Title
82263
    1SAPS     N    1   6.423   6.422  11.231 -0.4253 -0.0994  0.3226
    1SAPS   HN1    2   6.345   6.401  11.296 -1.5334  0.5037 -0.7828
    1SAPS   HN2    3   6.389   6.498  11.170  1.9113 -0.4259 -1.5412
    1SAPS   HN3    4   6.421   6.329  11.183 -1.6047 -0.2887  0.7103
    1SAPS   C12    5   6.544   6.457  11.304 -0.3663 -0.2810  0.2080
    1SAPS  H12A    6   6.530   6.557  11.342  0.2742  0.1013 -0.5248
    1SAPS   C13    7   6.568   6.360  11.416  0.1026  0.6088 -0.1123
    1SAPS  O13A    8   6.481   6.273  11.449 -0.1285  0.2262  0.0268
    1SAPS  O13B    9   6.682   6.370  11.477  0.2571  0.7369 -0.3906
    1SAPS   C11   10   6.665   6.457  11.205  0.0551  0.0023 -0.1908
    1SAPS  H11A   11   6.661   6.353  11.165 -0.4364 -0.3954  0.8576
    1SAPS  H11B   12   6.766   6.471  11.250  1.4340 -1.5787 -2.5556
    1SAPS     P   13   6.742   6.584  10.992 -0.2345 -0.3432  0.1583
    1SAPS   O13   14   6.695   6.678  10.892  0.4942  0.6052  0.3135
    1SAPS   O14   15   6.857   6.630  11.064 -0.3657  0.5728  0.7598
    1SAPS   O12   16   6.640   6.550  11.099  0.4572 -0.4301 -0.1868
    1SAPS   O11   17   6.782   6.446  10.927  0.5917  0.5449  0.2899
    1SAPS    C1   18   6.682   6.376  10.851 -0.4919  0.2043 -0.2364
    1SAPS    HA   19   6.694   6.268  10.875  1.0910  0.5026  0.4107
    1SAPS    HB   20   6.579   6.411  10.871 -0.8496  0.6428 -2.5714
    1SAPS    C2   21   6.716   6.393  10.699  0.6829 -0.6465  0.0147
    1SAPS    HS   22   6.678   6.490  10.661  0.1583 -0.5102  0.8651
    1SAPS   O21   23   6.665   6.279  10.630 -0.5734  0.2198  0.2088
    1SAPS   C21   24   6.540   6.290  10.582  0.0017  0.1156 -0.4423
    1SAPS   O22   25   6.466   6.381  10.609  0.3452  0.0132 -0.1490
    1SAPS   C22   26   6.511   6.183  10.477  0.5454 -0.3985 -1.0081
    1SAPS   H2R   27   6.590   6.194  10.400  2.8920  0.7598  1.4087
    1SAPS   H2S   28   6.525   6.090  10.537 -0.3587  0.0711 -0.0286
    1SAPS    C3   29   6.867   6.398  10.684  0.0999  0.4864 -0.6592
    1SAPS    HX   30   6.901   6.309  10.741 -0.9187  1.5515  1.7376
    1SAPS    HY   31   6.891   6.495  10.732  0.5392 -0.2754  0.7195
    1SAPS   O31   32   6.907   6.401  10.547 -0.0703  0.7433 -0.0408
    1SAPS   C31   33   7.037   6.423  10.526  0.0110  0.4369  0.3687
    1SAPS   O32   34   7.122   6.416  10.618  0.6677 -0.2479 -0.6507
    1SAPS   C32   35   7.071   6.417  10.377 -0.0464  0.2328 -0.3237
    1SAPS   H2X   36   7.114   6.321  10.342  0.0320  0.4336 -0.7828
    1SAPS   H2Y   37   7.141   6.502  10.368  0.1891  0.1807  0.8103
    1SAPS   C23   38   6.361   6.175  10.423 -0.7312  0.4659 -0.5484
    1SAPS   H3R   39   6.295   6.150  10.508 -0.6289  1.2120 -0.2434
    1SAPS   H3S   40   6.362   6.088  10.353 -0.7226 -0.2792  0.3653
    1SAPS   C24   41   6.317   6.304  10.363  0.1931 -0.2404  0.2610
    1SAPS   H4R   42   6.327   6.385  10.438  0.3930 -0.7428  0.7814
    1SAPS   H4S   43   6.207   6.300  10.347 -0.4124  2.1433  3.0547
    1SAPS   C25   44   6.392   6.339  10.232  0.4689  0.4083  0.3127
    1SAPS   H5R   45   6.481   6.403  10.245  0.6538  0.8459 -2.4815
    1SAPS   C26   46   6.376   6.275  10.117 -0.3269 -0.3420  0.0580
    1SAPS   H6R   47   6.433   6.315  10.032  0.1258  0.9327  0.9204
    1SAPS   C27   48   6.277   6.169  10.075  0.7677 -0.9207 -0.6215
    1SAPS   H7R   49   6.253   6.109  10.165 -0.4636 -0.1364 -0.3988
    1SAPS   H7S   50   6.325   6.089  10.016 -0.7503 -2.5288  0.2209
    1SAPS   C28   51   6.139   6.207  10.007 -0.6569  0.0993 -0.1364
    1SAPS   H8R   52   6.051   6.195  10.072 -0.7420  2.5394  0.3048
    1SAPS   C29   53   6.119   6.237   9.880 -0.8345 -0.0430  0.4021
    1SAPS   H9R   54   6.021   6.260   9.836  0.0310  1.8078 -0.7083
    1SAPS  C210   55   6.226   6.263   9.779  0.4032  0.5981  0.2078
    1SAPS  H10R   56   6.202   6.193   9.697 -2.7369 -0.5551  1.9461
    1SAPS  H10S   57   6.329   6.237   9.809  0.7510  0.9826 -0.6094
    1SAPS  C211   58   6.212   6.404   9.732 -0.6488 -0.3328 -0.0053
    1SAPS  H11R   59   6.205   6.477   9.814 -2.5287 -1.3733  0.8519
    1SAPS  C212   60   6.223   6.449   9.607 -0.4385  0.1217 -0.7328
    1SAPS  H12R   61   6.224   6.557   9.589  0.9650  0.2442 -0.0420
    1SAPS  C213   62   6.240   6.363   9.485 -0.6486 -0.0287  0.2259
    1SAPS  H13R   63   6.258   6.256   9.507 -0.8739  0.1515  1.3485
    1SAPS  H13S   64   6.334   6.396   9.437 -0.5317 -2.1943 -1.1962
    1SAPS  C214   65   6.126   6.368   9.384 -0.6569  0.3052 -0.3045
    1SAPS  H14R   66   6.033   6.326   9.424 -0.3302 -1.7018 -1.4667
    1SAPS  C215   67   6.129   6.425   9.260  0.4757 -0.1153  0.2487
    1SAPS  H15R   68   6.032   6.447   9.214  1.0495  1.4833 -0.2651
    1SAPS  C216   69   6.244   6.488   9.186 -1.2316 -0.5399 -0.0731
    1SAPS  H16R   70   6.345   6.469   9.228 -0.3689  1.4928 -1.1191
    1SAPS  H16S   71   6.230   6.598   9.191 -0.5331 -0.4022 -1.0212
    1SAPS  C217   72   6.246   6.442   9.041 -0.3232 -0.6709  0.1925
    1SAPS  H17R   73   6.214   6.338   9.021  0.6397 -1.1790  1.1975
    1SAPS  H17S   74   6.350   6.447   9.000  0.2243 -0.0060  1.5795
    1SAPS  C218   75   6.163   6.533   8.950 -0.5587  0.6479 -0.0656
    1SAPS  H18R   76   6.190   6.639   8.973  2.2181 -0.0827  0.4872
    1SAPS  H18S   77   6.058   6.527   8.985 -1.4015  0.2604 -2.4962
    1SAPS  C219   78   6.172   6.508   8.795 -0.0477 -0.2520 -0.2340
    1SAPS  H19R   79   6.266   6.557   8.762 -0.1316  0.2236  0.2240
    1SAPS  H19S   80   6.088   6.558   8.742  0.9782  1.7872 -0.0368
    1SAPS  C220   81   6.179   6.361   8.759 -0.6489  0.2407 -0.2326
    1SAPS  H20R   82   6.274   6.324   8.804  1.3343  2.9686 -1.9409
    1SAPS  H20S   83   6.171   6.345   8.649  1.8174  3.2233 -0.9522
    1SAPS  H20T   84   6.095   6.306   8.807  0.9885 -1.8537  0.4196
    1SAPS   C33   85   6.958   6.451  10.284  0.1917  0.0239 -0.3535
    1SAPS   H3X   86   6.913   6.552  10.301 -2.5827 -1.5458  2.6704
    1SAPS   H3Y   87   6.883   6.373  10.309 -1.1278  1.4434  0.2470
    1SAPS   C34   88   6.997   6.430  10.134  0.0542  0.0590  0.2200
    1SAPS   H4X   89   6.908   6.419  10.068 -0.4698  2.8008  0.3345
    1SAPS   H4Y   90   7.064   6.348  10.100  0.3215  0.1052  0.6328
    1SAPS   C35   91   7.060   6.551  10.073 -0.1840 -1.3218 -0.2433
    1SAPS   H5X   92   7.168   6.560  10.097 -0.0880  0.7345 -1.2582
    1SAPS   H5Y   93   7.008   6.638  10.118 -0.7292 -1.9213  0.2973
    1SAPS   C36   94   7.056   6.565   9.917  0.4343 -0.2193 -0.6274
    1SAPS   H6X   95   6.948   6.583   9.898 -1.1951 -3.1472  3.9670
    1SAPS   H6Y   96   7.098   6.476   9.865 -0.4378 -0.9452 -0.1346
    1SAPS   C37   97   7.130   6.687   9.865 -0.7410 -0.2855 -0.6984
    1SAPS   H7X   98   7.235   6.654   9.880 -1.4148 -1.4580  2.3661
    1SAPS   H7Y   99   7.121   6.770   9.938 -0.6648 -0.3012 -0.6706
    1SAPS   C38  100   7.120   6.714   9.714 -0.3257 -0.0937 -1.3123
    1SAPS   H8X  101   7.169   6.812   9.694 -0.5734 -0.1667 -2.3343
    1SAPS   H8Y  102   7.011   6.729   9.696 -0.1713  2.1564 -0.7475
    1SAPS   C39  103   7.186   6.603   9.630 -0.6295  0.0905  0.4583
    1SAPS   H9X  104   7.131   6.508   9.652 -0.6577 -0.1295 -0.4866
    1SAPS   H9Y  105   7.290   6.579   9.660 -0.3039 -0.5206 -1.0572
    1SAPS  C310  106   7.187   6.636   9.480  0.2589  0.5003 -0.2535
    1SAPS  H10X  107   7.267   6.707   9.448 -1.7515  2.7769 -0.4955
    1SAPS  H10Y  108   7.092   6.691   9.464 -1.2993 -1.3832  1.8972
    1SAPS  C311  109   7.167   6.514   9.379  0.2222  0.1972 -0.1061
    1SAPS  H11X  110   7.071   6.461   9.399  1.4849 -3.4810 -2.7401
    1SAPS  H11Y  111   7.249   6.440   9.385  0.5703  0.3879 -1.9435
    1SAPS  C312  112   7.165   6.551   9.234 -0.3747 -0.1369 -0.3758
    1SAPS  H12X  113   7.217   6.646   9.210 -1.3682  0.1481 -1.5503
    1SAPS  H12Y  114   7.067   6.577   9.188 -0.1915 -1.4948 -1.6633
    1SAPS  C313  115   7.230   6.445   9.149  0.0548 -0.2624 -0.1169
    1SAPS  H13X  116   7.176   6.353   9.182 -1.4905  0.5422 -0.2967
    1SAPS  H13Y  117   7.336   6.448   9.183  0.3478  1.1028 -1.1049
    1SAPS  C314  118   7.221   6.470   8.995  0.1987 -0.0705  0.5143
    1SAPS  H14X  119   7.208   6.578   8.975  1.9277 -0.3112 -2.3870
    1SAPS  H14Y  120   7.128   6.426   8.954 -0.0392  0.3089  0.6420
    1SAPS  C315  121   7.334   6.410   8.913 -0.2859  0.3177 -1.0067
    1SAPS  H15X  122   7.305   6.303   8.917 -0.8429  0.4671 -0.9557
    1SAPS  H15Y  123   7.436   6.410   8.957 -0.8298  0.8398  0.3127
    1SAPS  C316  124   7.325   6.447   8.764 -0.7075  0.2022  0.0801
    1SAPS  H16X  125   7.401   6.525   8.739  1.2580 -2.0283 -1.3920
    1SAPS  H16Y  126   7.225   6.485   8.737 -0.4211  1.4302  0.6814
    1SAPS  C317  127   7.365   6.335   8.662  0.5658 -0.1944 -1.2803
    1SAPS  H17X  128   7.304   6.245   8.689  2.2804 -0.2493  3.4092
    1SAPS  H17Y  129   7.470   6.312   8.689  0.5818 -0.8733 -1.8972
    1SAPS  C318  130   7.333   6.374   8.514 -0.2651  0.3048 -0.2425
    1SAPS  H18X  131   7.355   6.287   8.448 -1.9765 -0.3327 -0.0272
    1SAPS  H18Y  132   7.394   6.459   8.475  1.9113 -1.4647 -0.9563
    1SAPS  H18Z  133   7.227   6.403   8.498  0.7288  2.7917 -3.3672
    2SAPS     N  134   6.005   6.509  10.671 -0.7219  0.4029  0.0117
    2SAPS   HN1  135   5.994   6.411  10.705 -0.9316  1.4585  3.3333
    2SAPS   HN2  136   5.950   6.513  10.583  0.6724 -2.0656 -1.0704
    2SAPS   HN3  137   6.106   6.530  10.657 -1.2331  1.7816 -2.1611
    2SAPS   C12  138   5.960   6.609  10.770 -0.8547 -0.0824 -0.6495
    2SAPS  H12A  139   5.857   6.594  10.798 -0.4445  2.0772  2.4564
    2SAPS   C13  140   6.037   6.594  10.906 -0.3674 -0.3496  0.2518
    2SAPS  O13A  141   6.101   6.489  10.933 -0.4305 -0.0192  0.8143
    2SAPS  O13B  142   6.009   6.672  10.998  0.1274  0.2034  0.5805
    2SAPS   C11  143   5.996   6.759  10.724 -0.5780  0.6905 -0.1036
    2SAPS  H11A  144   6.105   6.766  10.705 -0.2843  1.0333  1.5603
    2SAPS  H11B  145   5.981   6.827  10.810 -2.9919  1.7998 -1.3371
    2SAPS     P  146   5.783   6.865  10.613 -0.1612  0.0011 -0.1165
    2SAPS   O13  147   5.686   6.841  10.508  0.1928  0.5733 -0.6698
    2SAPS   O14  148   5.738   6.840  10.748 -0.5401  0.4989 -0.7529
    2SAPS   O12  149   5.921   6.780  10.603  1.2589  0.2002  0.1901
    2SAPS   O11  150   5.829   7.020  10.600 -0.7619 -0.0132  0.0214
    2SAPS    C1  151   5.907   7.070  10.486  0.5678 -0.1043  0.7621
    2SAPS    HA  152   6.008   7.093  10.526  1.4299  0.3413 -1.4962
    2SAPS    HB  153   5.934   6.995  10.409 -0.4422 -1.4957  1.7184
    2SAPS    C2  154   5.850   7.204  10.419  0.4150  0.6524  0.3181
    2SAPS    HS  155   5.832   7.274  10.504 -2.1804 -0.7157  0.9933
    2SAPS   O21  156   5.721   7.168  10.363 -0.1603 -0.1034  0.0185
    2SAPS   C21  157   5.641   7.270  10.337 -0.3903  0.3097 -0.3417
    2SAPS   O22  158   5.667   7.386  10.361  0.0796 -0.2889  0.1674
    2SAPS   C22  159   5.523   7.227  10.249 -0.3545  0.3448 -0.6047
    2SAPS   H2R  160   5.521   7.116  10.247 -1.2127  0.3393 -0.0819
    2SAPS   H2S  161   5.430   7.270  10.292 -0.0136  1.4259 -0.8977
    2SAPS    C3  162   5.939   7.269  10.313  0.0812  0.1233  0.5645
    2SAPS    HX  163   6.035   7.298  10.362  1.8087 -1.0718 -1.9238
    2SAPS    HY  164   5.895   7.362  10.272 -0.1643  0.5316  1.7024
    2SAPS   O31  165   5.973   7.172  10.211 -0.1040  0.2258 -0.2185
    2SAPS   C31  166   6.058   7.218  10.118 -0.3474  0.2797  0.8348
    2SAPS   O32  167   6.100   7.332  10.110  0.0602  0.0924  0.2671
    2SAPS   C32  168   6.105   7.119  10.016  0.0141  0.4214 -0.6167
    2SAPS   H2X  169   6.039   7.030  10.024  2.1228 -1.2200 -0.7694
    2SAPS   H2Y  170   6.202   7.076  10.047 -0.4174 -1.7634 -2.1006
    2SAPS   C23  171   5.536   7.287  10.107  0.3983 -0.3680 -0.5074
    2SAPS   H3R  172   5.531   7.398  10.112 -0.9095 -0.3745 -1.1916
    2SAPS   H3S  173   5.448   7.251  10.049 -0.3541 -1.8355  1.3902
    2SAPS   C24  174   5.667   7.257  10.031 -0.0713 -0.0600 -0.2230
    2SAPS   H4R  175   5.745   7.320  10.078 -1.1028  1.5755 -0.6200
    2SAPS   H4S  176   5.658   7.309   9.933  3.0203 -0.5192 -0.8520
    2SAPS   C25  177   5.697   7.111  10.026  0.6254 -0.1139 -0.2669
    2SAPS   H5R  178   5.696   7.048  10.117 -1.9767 -1.8080 -1.3509
    2SAPS   C26  179   5.718   7.039   9.913  0.0794 -0.3721  0.7501
    2SAPS   H6R  180   5.754   6.935   9.923  3.3445  0.7205  1.5546
    2SAPS   C27  181   5.705   7.096   9.775 -0.6151  0.0756 -0.6172
    2SAPS   H7R  182   5.771   7.035   9.709 -1.4175 -2.2041  0.6054
    2SAPS   H7S  183   5.753   7.196   9.772 -1.1719  0.4821  2.0244
    2SAPS   C28  184   5.562   7.091   9.715 -0.0744  0.2997  0.5395
    2SAPS   H8R  185   5.483   7.053   9.782 -0.8764 -1.6070 -1.3581
    2SAPS   C29  186   5.529   7.098   9.578  0.3603 -0.5737 -0.6241
    2SAPS   H9R  187   5.422   7.088   9.555 -0.0521  0.9445  0.4151
    2SAPS  C210  188   5.617   7.132   9.459  0.5830  0.0742 -0.9552
    2SAPS  H10R  189   5.723   7.100   9.461  0.9786  1.3565  0.8003
    2SAPS  H10S  190   5.625   7.243   9.461 -1.4867  0.2646 -1.1282
    2SAPS  C211  191   5.552   7.085   9.328 -0.2315  0.2252  0.1600
    2SAPS  H11R  192   5.556   6.977   9.310  2.1870  0.8636 -4.8087
    2SAPS  C212  193   5.490   7.165   9.238 -0.5269  0.3880 -0.2125
    2SAPS  H12R  194   5.444   7.107   9.156 -1.2522  0.3036  0.2407
    2SAPS  C213  195   5.489   7.315   9.229 -0.1250 -0.2571  0.0437
    2SAPS  H13R  196   5.595   7.349   9.227  0.8423 -2.9788 -1.7879
    2SAPS  H13S  197   5.434   7.353   9.318  0.0132 -1.3600  0.6107
    2SAPS  C214  198   5.419   7.387   9.115 -0.5623 -0.5700 -0.1665
    2SAPS  H14R  199   5.345   7.326   9.062 -1.5694 -1.1994  1.8796
    2SAPS  C215  200   5.443   7.511   9.071 -0.0214  0.1121 -0.7151
    2SAPS  H15R  201   5.379   7.548   8.989 -0.0318  1.5904 -0.0744
    2SAPS  C216  202   5.560   7.597   9.113 -0.3153  0.2190 -0.0116
    2SAPS  H16R  203   5.577   7.597   9.222  0.6277  1.2632 -0.1502
    2SAPS  H16S  204   5.534   7.701   9.085  0.3291  0.5216  0.5123
    2SAPS  C217  205   5.686   7.560   9.034  0.1962 -0.1736 -0.9685
    2SAPS  H17R  206   5.704   7.451   9.045 -0.6125 -0.3680 -1.4486
    2SAPS  H17S  207   5.757   7.631   9.082  0.1546 -0.5904 -0.2833
    2SAPS  C218  208   5.676   7.585   8.882 -1.0480  0.3652  0.2084
    2SAPS  H18R  209   5.657   7.688   8.843  0.2869  0.2967 -0.7057
    2SAPS  H18S  210   5.586   7.530   8.847 -1.1018  0.0761  0.8029
    2SAPS  C219  211   5.803   7.535   8.806 -0.2795  0.1225  0.1320
    2SAPS  H19R  212   5.821   7.428   8.831 -0.2870 -0.2056 -1.1620
    2SAPS  H19S  213   5.891   7.596   8.835 -0.1568 -0.2760  0.6084
    2SAPS  C220  214   5.786   7.543   8.655  0.0862 -0.1075 -0.0242
    2SAPS  H20R  215   5.864   7.477   8.611 -1.0015 -0.5378 -1.3611
    2SAPS  H20S  216   5.803   7.647   8.619  3.8563  0.3910  2.5227
    2SAPS  H20T  217   5.690   7.499   8.623 -0.3359 -0.3021  1.4489
    2SAPS   C33  218   6.086   7.166   9.874  0.1485  1.2506 -0.0120
    2SAPS   H3X  219   6.132   7.267   9.866 -1.3380  1.9706  0.2591
    2SAPS   H3Y  220   5.979   7.180   9.849  0.0325  1.8989  0.8121
    2SAPS   C34  221   6.153   7.083   9.766 -0.2770 -0.2676 -1.4464
    2SAPS   H4X  222   6.156   7.142   9.673 -1.3415  4.0825  1.0036
    2SAPS   H4Y  223   6.096   6.988   9.753  0.5596 -0.7315 -1.8229
    2SAPS   C35  224   6.301   7.055   9.795  0.9785  0.1403  0.5295
    2SAPS   H5X  225   6.307   6.979   9.874  1.0179  1.2186  1.5942
    2SAPS   H5Y  226   6.342   7.152   9.832  0.4993  0.4775  0.1983
    2SAPS   C36  227   6.386   7.012   9.675 -0.2227  0.5980 -0.2199
    2SAPS   H6X  228   6.476   6.967   9.722 -1.0508 -0.7260  0.1618
    2SAPS   H6Y  229   6.415   7.097   9.609  0.1311  0.2232 -0.5484
    2SAPS   C37  230   6.307   6.893   9.597 -0.7015 -0.3961 -0.1336
    2SAPS   H7X  231   6.219   6.944   9.552  0.4515  2.7523  0.8696
    2SAPS   H7Y  232   6.279   6.814   9.670 -0.3107 -0.0435  0.4079
    2SAPS   C38  233   6.386   6.831   9.480 -0.5795 -0.2152 -0.1481
    2SAPS   H8X  234   6.355   6.725   9.466 -2.1317  0.1567  0.2807
    2SAPS   H8Y  235   6.493   6.820   9.507 -0.1621  2.2704 -0.6057
    2SAPS   C39  236   6.375   6.909   9.354  0.3539  0.0391  0.2698
    2SAPS   H9X  237   6.411   7.012   9.375  0.6046 -0.0163  0.1241
    2SAPS   H9Y  238   6.268   6.913   9.326  0.0412 -0.2795  1.3869
    2SAPS  C310  239   6.461   6.861   9.239 -0.7981 -0.0532  0.2877
    2SAPS  H10X  240   6.426   6.765   9.195  0.9212 -0.7547  0.3749
    2SAPS  H10Y  241   6.567   6.846   9.267 -0.1975  0.1560 -1.7340
    2SAPS  C311  242   6.473   6.974   9.132  0.3817 -0.0946 -0.2115
    2SAPS  H11X  243   6.519   7.066   9.173 -1.7366  1.5048 -1.2085
    2SAPS  H11Y  244   6.372   7.005   9.097 -0.2850 -0.1252  1.6027
    2SAPS  C312  245   6.562   6.926   9.012  0.3416  0.3363 -0.4844
    2SAPS  H12X  246   6.497   6.868   8.943 -1.4127 -0.7300  1.8789
    2SAPS  H12Y  247   6.641   6.852   9.038 -0.4489 -0.9238 -1.5025
    2SAPS  C313  248   6.623   7.036   8.920 -0.0803  0.6558  0.0300
    2SAPS  H13X  249   6.717   7.082   8.957  1.9643 -1.5413 -2.0850
    2SAPS  H13Y  250   6.544   7.112   8.902 -0.2083  0.7880  1.0726
    2SAPS  C314  251   6.668   6.984   8.785 -0.1028 -0.1552  0.7134
    2SAPS  H14X  252   6.595   6.925   8.725  1.3792  0.2665 -1.6282
    2SAPS  H14Y  253   6.761   6.924   8.792  0.5264  0.9734  2.8163
    2SAPS  C315  254   6.700   7.100   8.693 -0.1306 -0.5025  0.1627
    2SAPS  H15X  255   6.759   7.169   8.758 -1.0126 -0.8523  1.3602
    2SAPS  H15Y  256   6.602   7.149   8.671  0.3462  0.2258 -0.4107
    2SAPS  C316  257   6.763   7.060   8.561 -0.3036  0.3769 -0.8705
    2SAPS  H16X  258   6.706   6.973   8.520 -0.2280 -0.4041  0.6256
    2SAPS  H16Y  259   6.864   7.021   8.584 -0.3867  0.4545 -0.3748
    2SAPS  C317  260   6.768   7.170   8.453 -0.0657 -0.6546 -0.4436
    2SAPS  H17X  261   6.800   7.262   8.504 -0.4521  0.1161 -1.5497
    2SAPS  H17Y  262   6.663   7.180   8.416 -1.0467 -1.8510  1.8045
    2SAPS  C318  263   6.863   7.139   8.348 -0.2920 -0.4547 -0.0002
    2SAPS  H18X  264   6.868   7.222   8.275 -0.2741  0.1376  0.6565
    2SAPS  H18Y  265   6.851   7.044   8.294  1.8402 -1.1810  0.6919
    2SAPS  H18Z  266   6.967   7.135   8.386 -0.9608 -2.9241  1.7993
    3SAPS     N  267   1.006   2.122  10.817  0.5199  0.3764  0.4973
    3SAPS   HN1  268   1.034   2.141  10.915 -1.9901 -1.8984  1.8035
    3SAPS   HN2  269   1.088   2.103  10.755 -0.3508 -0.0740 -0.5543
    3SAPS   HN3  270   0.954   2.208  10.791 -0.0226  0.5295  1.9806
    3SAPS   C12  271   0.922   1.995  10.831  0.4359 -0.1970 -0.2860
    3SAPS  H12A  272   0.890   1.965  10.732 -2.2381  1.3761 -0.0029
    3SAPS   C13  273   1.015   1.889  10.889 -0.5643  0.2738  0.4320
    3SAPS  O13A  274   1.134   1.913  10.921 -0.3412 -0.2517 -0.0374
    3SAPS  O13B  275   0.961   1.780  10.910  0.3772 -0.1518  0.1976
    3SAPS   C11  276   0.800   2.026  10.914 -0.3948  0.8364 -0.2303
    3SAPS  H11A  277   0.837   2.069  11.009  0.4422  3.1715 -1.5352
    3SAPS  H11B  278   0.753   1.927  10.934  1.3386  0.1877  0.8401
    3SAPS     P  279   0.578   2.170  10.924 -0.4983 -0.1952  0.1432
    3SAPS   O13  280   0.557   2.089  11.042  0.3172  0.3510  0.1227
    3SAPS   O14  281   0.561   2.317  10.930 -0.3241 -0.3126 -0.2210
    3SAPS   O12  282   0.725   2.131  10.858  0.0011 -0.2396 -0.0241
    3SAPS   O11  283   0.487   2.115  10.814  0.5580  0.1022 -0.0800
    3SAPS    C1  284   0.539   2.015  10.723  0.2997 -0.5748 -0.2172
    3SAPS    HA  285   0.607   1.941  10.771 -1.5357 -2.6334 -0.6314
    3SAPS    HB  286   0.463   1.937  10.701  2.7404 -3.0742 -0.3697
    3SAPS    C2  287   0.604   2.057  10.582 -0.0065  0.3899 -0.1702
    3SAPS    HS  288   0.680   2.135  10.604  0.1015  0.4081 -0.6080
    3SAPS   O21  289   0.507   2.097  10.482  0.2896  0.4025 -0.0036
    3SAPS   C21  290   0.467   2.229  10.490 -0.2635  0.2871 -0.5826
    3SAPS   O22  291   0.491   2.310  10.577  0.0913  0.6868  0.6635
    3SAPS   C22  292   0.380   2.261  10.372  0.2770 -0.0637 -0.5319
    3SAPS   H2R  293   0.310   2.176  10.362 -2.0468  1.4721  1.5050
    3SAPS   H2S  294   0.311   2.340  10.408  0.1675 -0.4769  0.1941
    3SAPS    C3  295   0.677   1.932  10.535 -0.7740 -0.2535  0.1433
    3SAPS    HX  296   0.598   1.854  10.534 -1.1237  0.0791 -1.5189
    3SAPS    HY  297   0.755   1.889  10.600 -0.0467 -2.1728 -1.8724
    3SAPS   O31  298   0.735   1.950  10.412 -0.5697  0.5333 -0.6785
    3SAPS   C31  299   0.663   1.920  10.304 -0.3252  0.2968  0.1055
    3SAPS   O32  300   0.549   1.874  10.302 -0.6286 -0.3818  0.2281
    3SAPS   C32  301   0.742   1.963  10.182  0.0476 -0.1030  0.1908
    3SAPS   H2X  302   0.841   1.913  10.188  0.5170  0.6322 -0.9445
    3SAPS   H2Y  303   0.760   2.072  10.194 -0.6936 -0.3279  5.1837
    3SAPS   C23  304   0.467   2.297  10.252 -0.0576  0.6826  0.2735
    3SAPS   H3R  305   0.532   2.208  10.237 -2.3459 -0.9573 -0.2828
    3SAPS   H3S  306   0.547   2.373  10.265 -0.2597  0.7394  1.3049
    3SAPS   C24  307   0.390   2.320  10.120 -0.3977 -0.5225 -0.6304
    3SAPS   H4R  308   0.455   2.350  10.035 -1.8858  0.3055 -1.5319
    3SAPS   H4S  309   0.321   2.406  10.132  0.9045  0.1921  3.0039
    3SAPS   C25  310   0.307   2.195  10.084 -0.2424 -0.3363 -0.3130
    3SAPS   H5R  311   0.245   2.144  10.159  0.6864  2.6975  2.7358
    3SAPS   C26  312   0.306   2.142   9.963  0.0979  0.3797  0.0890
    3SAPS   H6R  313   0.251   2.047   9.960 -0.4433  0.5747  2.1893
    3SAPS   C27  314   0.372   2.179   9.832 -0.6416 -0.3088 -0.4977
    3SAPS   H7R  315   0.436   2.090   9.810 -0.9442 -0.7138  0.2158
    3SAPS   H7S  316   0.444   2.262   9.851  0.2393 -0.5744 -2.3426
    3SAPS   C28  317   0.288   2.231   9.722 -0.2086 -0.3865  0.0710
    3SAPS   H8R  318   0.203   2.288   9.762 -1.3752 -3.3848  2.1477
    3SAPS   C29  319   0.316   2.230   9.588 -0.3413 -0.1996  0.4749
    3SAPS   H9R  320   0.246   2.283   9.522  0.0010 -0.2171  0.1009
    3SAPS  C210  321   0.434   2.173   9.520  0.4412 -0.2342 -0.0351
    3SAPS  H10R  322   0.386   2.097   9.455 -1.2858  0.4711  0.3415
    3SAPS  H10S  323   0.495   2.121   9.596 -0.2985 -2.2271 -0.7345
    3SAPS  C211  324   0.512   2.273   9.439 -0.6503 -0.4245 -1.1162
    3SAPS  H11R  325   0.587   2.333   9.493 -2.0577  2.1612 -1.8567
    3SAPS  C212  326   0.505   2.287   9.302 -0.9030 -0.5573  0.0326
    3SAPS  H12R  327   0.570   2.363   9.256 -1.1565  0.5924  1.4922
    3SAPS  C213  328   0.407   2.219   9.211  0.3644  0.1627  0.3366
    3SAPS  H13R  329   0.350   2.299   9.159 -0.0647  0.2439  0.9157
    3SAPS  H13S  330   0.329   2.158   9.262 -1.0975 -0.7697 -2.8148
    3SAPS  C214  331   0.478   2.123   9.123 -0.4716  0.7542 -0.4856
    3SAPS  H14R  332   0.528   2.037   9.168  0.4480  0.5838 -1.7838
    3SAPS  C215  333   0.487   2.127   8.990  0.1702  0.4360 -0.7873
    3SAPS  H15R  334   0.532   2.036   8.945 -1.8837 -1.0131 -0.0569
    3SAPS  C216  335   0.423   2.224   8.897  0.2077  0.6641 -0.0356
    3SAPS  H16R  336   0.359   2.302   8.942 -1.5379 -0.8818  0.3186
    3SAPS  H16S  337   0.365   2.167   8.821  2.7172 -2.2548  0.0381
    3SAPS  C217  338   0.529   2.292   8.806 -0.1109  0.5933 -0.5235
    3SAPS  H17R  339   0.605   2.338   8.874 -1.5421  3.0956 -0.5017
    3SAPS  H17S  340   0.482   2.374   8.749 -1.3365 -0.1337 -0.5949
    3SAPS  C218  341   0.599   2.194   8.712  0.4532 -0.0262 -0.2692
    3SAPS  H18R  342   0.527   2.123   8.665 -1.6997  2.1768 -0.5167
    3SAPS  H18S  343   0.664   2.132   8.776 -0.3638  1.5629  2.2632
    3SAPS  C219  344   0.674   2.252   8.595  0.4656 -0.4372  0.5714
    3SAPS  H19R  345   0.595   2.290   8.527 -0.5519 -0.7384  1.5708
    3SAPS  H19S  346   0.728   2.173   8.538  1.0386  0.8105 -0.6885
    3SAPS  C220  347   0.765   2.370   8.627  0.4406 -0.0857  0.3235
    3SAPS  H20R  348   0.699   2.454   8.657 -2.6630 -2.8583  1.9276
    3SAPS  H20S  349   0.836   2.390   8.544  0.4089 -0.9251  0.0850
    3SAPS  H20T  350   0.830   2.347   8.713  1.1827  2.1301  0.4104
    3SAPS   C33  351   0.673   1.946  10.046 -0.0504  0.4373 -0.2101
    3SAPS   H3X  352   0.572   1.989  10.034  0.0724  0.4894 -1.1885
    3SAPS   H3Y  353   0.653   1.837  10.043  2.5179 -0.1345  0.7797
    3SAPS   C34  354   0.751   1.970   9.915 -0.8305 -0.1673 -0.0938
    3SAPS   H4X  355   0.843   1.909   9.931  0.2357  0.2538 -3.6901
    3SAPS   H4Y  356   0.783   2.075   9.904 -0.6450 -0.1780  0.3251
    3SAPS   C35  357   0.682   1.918   9.791 -0.3428  0.3655  0.3017
    3SAPS   H5X  358   0.589   1.975   9.770 -0.5467 -0.4504 -1.1048
    3SAPS   H5Y  359   0.648   1.812   9.793  3.8578 -1.1399  1.7838
    3SAPS   C36  360   0.768   1.932   9.661 -0.1175  0.0142  0.2211
    3SAPS   H6X  361   0.862   1.875   9.675 -0.0035  0.7067  2.6491
    3SAPS   H6Y  362   0.781   2.038   9.631  0.4208 -0.4811 -1.3799
    3SAPS   C37  363   0.683   1.879   9.541 -0.6939  0.2745 -0.0711
    3SAPS   H7X  364   0.590   1.939   9.531  0.2668  1.5048 -2.5755
    3SAPS   H7Y  365   0.661   1.772   9.562 -0.2242  0.2460  0.2971
    3SAPS   C38  366   0.750   1.885   9.398  0.5359  0.2101 -0.4868
    3SAPS   H8X  367   0.676   1.853   9.321  0.3652  2.1592 -1.1805
    3SAPS   H8Y  368   0.833   1.813   9.413 -0.0552 -0.4343 -0.2284
    3SAPS   C39  369   0.806   2.013   9.361  0.1497  0.1623 -0.9920
    3SAPS   H9X  370   0.892   2.041   9.425 -0.4452 -2.9713  1.4056
    3SAPS   H9Y  371   0.718   2.081   9.369 -1.4446 -1.9853  0.8976
    3SAPS  C310  372   0.846   2.023   9.218 -0.6346 -0.0426 -0.2846
    3SAPS  H10X  373   0.766   1.985   9.152  0.7341 -3.8799  0.0038
    3SAPS  H10Y  374   0.925   1.945   9.213 -2.1239 -1.6177 -0.0778
    3SAPS  C311  375   0.898   2.160   9.179 -0.2197 -0.3437 -0.3105
    3SAPS  H11X  376   0.984   2.183   9.246 -1.5088  2.0802  0.6297
    3SAPS  H11Y  377   0.827   2.241   9.206  0.9033  1.0041 -1.2960
    3SAPS  C312  378   0.935   2.181   9.022  0.0008  0.2906  0.6123
    3SAPS  H12X  379   0.984   2.281   9.017 -2.4801  1.5433 -0.3083
    3SAPS  H12Y  380   0.843   2.192   8.960  1.0068 -0.0141 -0.9754
    3SAPS  C313  381   1.039   2.083   8.965  0.2637 -0.3598  0.3267
    3SAPS  H13X  382   0.994   1.982   8.955 -1.2592  0.3117  0.1426
    3SAPS  H13Y  383   1.133   2.089   9.023 -0.6337  1.1035  1.7269
    3SAPS  C314  384   1.069   2.116   8.814 -0.0779  0.3515 -0.3444
    3SAPS  H14X  385   0.987   2.178   8.772 -1.2391 -1.0286 -0.1601
    3SAPS  H14Y  386   1.066   2.021   8.758 -0.0604 -0.4855  1.0293
    3SAPS  C315  387   1.204   2.195   8.796  0.0138 -0.8467 -0.3706
    3SAPS  H15X  388   1.287   2.138   8.843 -0.8515 -0.5579  1.5874
    3SAPS  H15Y  389   1.204   2.298   8.835  0.2627 -1.5373  1.5621
    3SAPS  C316  390   1.248   2.206   8.650 -0.7573 -0.0352  0.3188
    3SAPS  H16X  391   1.183   2.260   8.578  2.2489 -0.4613 -2.9601
    3SAPS  H16Y  392   1.249   2.104   8.606  0.0348 -0.3669  1.0843
    3SAPS  C317  393   1.385   2.271   8.642 -1.0096  0.5563  0.2007
    3SAPS  H17X  394   1.411   2.266   8.534 -2.6165 -2.7906 -0.1620
    3SAPS  H17Y  395   1.462   2.214   8.699 -0.0536  1.0487 -0.5641
    3SAPS  C318  396   1.392   2.422   8.686  0.1981 -0.0982  0.4821
    3SAPS  H18X  397   1.491   2.461   8.654  1.2215 -2.2650  0.7559
    3SAPS  H18Y  398   1.385   2.421   8.797 -1.0129 -1.7164  0.4350
    3SAPS  H18Z  399   1.306   2.474   8.639 -0.0172  0.9620  1.9792
    4SAPS     N  400   3.053   1.343  10.587 -0.0771  0.1846  0.1634
    4SAPS   HN1  401   2.992   1.302  10.514  0.1604 -2.2752  1.2697
    4SAPS   HN2  402   3.009   1.435  10.606  1.4576  0.6523  1.7499
    4SAPS   HN3  403   3.149   1.368  10.554 -0.8343  1.2697 -1.3661
    4SAPS   C12  404   3.041   1.276  10.716 -0.0346  0.2545  0.0027
    4SAPS  H12A  405   3.115   1.198  10.716  2.0186  2.0814 -1.5919
    4SAPS   C13  406   3.085   1.367  10.830 -1.3657 -0.2676 -1.3117
    4SAPS  O13A  407   3.151   1.473  10.804 -0.6542 -0.0564 -0.4799
    4SAPS  O13B  408   3.078   1.326  10.952  0.3404  0.2228 -0.3866
    4SAPS   C11  409   2.899   1.209  10.722 -0.3039 -0.2667  0.3218
    4SAPS  H11A  410   2.820   1.282  10.694  2.1485  1.9539 -1.3724
    4SAPS  H11B  411   2.886   1.170  10.825  1.9350 -0.8129  0.4557
    4SAPS     P  412   2.809   1.069  10.517  0.1958 -0.0524  0.3084
    4SAPS   O13  413   2.840   0.940  10.449  0.1523  0.7777  0.5895
    4SAPS   O14  414   2.670   1.094  10.557  0.0996  0.2098 -0.8464
    4SAPS   O12  415   2.897   1.088  10.642  0.3949  0.2320 -0.6939
    4SAPS   O11  416   2.862   1.190  10.426  0.5495 -0.2724 -0.2905
    4SAPS    C1  417   2.774   1.270  10.348  0.8712 -0.1809 -0.1327
    4SAPS    HA  418   2.668   1.241  10.362  0.3182  1.9461  0.4226
    4SAPS    HB  419   2.772   1.377  10.377  1.0814 -0.1731 -0.1450
    4SAPS    C2  420   2.791   1.254  10.191  0.7639  0.1938 -0.6694
    4SAPS    HS  421   2.714   1.309  10.133 -0.8799 -3.7899 -2.6763
    4SAPS   O21  422   2.792   1.116  10.158 -0.0992 -0.6908  0.5298
    4SAPS   C21  423   2.679   1.049  10.158 -0.1618  1.0961  0.1018
    4SAPS   O22  424   2.570   1.095  10.191 -0.3491  0.1670 -0.3163
    4SAPS   C22  425   2.710   0.906  10.113  0.4675 -0.0024  0.7985
    4SAPS   H2R  426   2.769   0.851  10.189  1.7281 -1.8443 -1.3982
    4SAPS   H2S  427   2.612   0.854  10.108 -0.2885  1.3817  0.7239
    4SAPS    C3  428   2.934   1.304  10.151 -1.5129  0.0179  0.5370
    4SAPS    HX  429   2.949   1.308  10.041 -1.5550  0.6628  0.5509
    4SAPS    HY  430   3.011   1.232  10.186 -0.8332  0.0480 -0.8240
    4SAPS   O31  431   2.969   1.432  10.205 -0.2337 -0.1060  0.3696
    4SAPS   C31  432   3.094   1.474  10.172 -0.5390 -0.2937  0.1832
    4SAPS   O32  433   3.174   1.409  10.108 -0.0973 -0.2557  0.0661
    4SAPS   C32  434   3.107   1.624  10.218  0.4684  0.9018 -0.2745
    4SAPS   H2X  435   3.136   1.618  10.325  0.2932  1.6061 -0.1878
    4SAPS   H2Y  436   3.008   1.673  10.209  0.6911  1.3124 -0.4573
    4SAPS   C23  437   2.759   0.910   9.969  0.3484 -0.6240 -0.2262
    4SAPS   H3R  438   2.795   0.808   9.942  0.7516 -1.0973  1.8754
    4SAPS   H3S  439   2.851   0.971   9.956 -0.5809  0.5134 -1.8296
    4SAPS   C24  440   2.652   0.958   9.868 -0.7380  0.2714 -0.6763
    4SAPS   H4R  441   2.637   1.066   9.886 -1.6805  0.1644 -0.7931
    4SAPS   H4S  442   2.554   0.912   9.892 -0.8303  1.4118  1.3826
    4SAPS   C25  443   2.684   0.925   9.724 -0.4526  0.4291  0.1865
    4SAPS   H5R  444   2.705   0.819   9.706 -1.2113  0.4801 -1.1255
    4SAPS   C26  445   2.681   1.009   9.620 -0.0028 -0.8997 -1.2097
    4SAPS   H6R  446   2.680   0.965   9.519 -2.3140  1.1019 -2.1363
    4SAPS   C27  447   2.648   1.160   9.636  0.5574 -0.0589 -0.5510
    4SAPS   H7R  448   2.680   1.207   9.731 -1.3472  2.7615 -1.1857
    4SAPS   H7S  449   2.537   1.166   9.631  0.2225 -3.8042 -0.5147
    4SAPS   C28  450   2.708   1.239   9.521 -0.9197 -0.4271  0.1054
    4SAPS   H8R  451   2.812   1.268   9.542  0.8340 -4.6580 -1.7175
    4SAPS   C29  452   2.648   1.257   9.402  0.1500 -0.2460  0.2175
    4SAPS   H9R  453   2.705   1.314   9.328  0.9588  0.2928  1.2449
    4SAPS  C210  454   2.511   1.212   9.338 -0.6116  0.2740 -0.6330
    4SAPS  H10R  455   2.449   1.152   9.408 -0.8640  2.1552  0.8466
    4SAPS  H10S  456   2.532   1.150   9.248  1.3888  0.7161 -0.5281
    4SAPS  C211  457   2.437   1.343   9.304  0.3274  0.1005  0.3825
    4SAPS  H11R  458   2.413   1.409   9.388  1.0712 -0.9219  1.4173
    4SAPS  C212  459   2.420   1.398   9.179 -0.3023  0.7690  0.4417
    4SAPS  H12R  460   2.367   1.493   9.162  0.5731  1.0956 -0.5764
    4SAPS  C213  461   2.462   1.336   9.048 -0.4692  0.3038  0.3757
    4SAPS  H13R  462   2.395   1.255   9.011 -2.4393  2.6002 -1.4197
    4SAPS  H13S  463   2.556   1.278   9.066 -1.2030 -1.1527 -0.3445
    4SAPS  C214  464   2.477   1.435   8.932  0.2404  0.0234 -0.3341
    4SAPS  H14R  465   2.578   1.472   8.911 -0.4390  2.0590 -0.3119
    4SAPS  C215  466   2.378   1.469   8.848  0.0616 -1.0037 -0.6109
    4SAPS  H15R  467   2.399   1.538   8.765  0.6247  0.3311  0.5826
    4SAPS  C216  468   2.240   1.413   8.851  0.2170 -0.4689  0.2833
    4SAPS  H16R  469   2.181   1.495   8.805 -1.2585 -1.4009  0.4598
    4SAPS  H16S  470   2.213   1.402   8.958  2.5819  1.3004  1.1503
    4SAPS  C217  471   2.235   1.284   8.769  0.1695 -0.3030  0.1896
    4SAPS  H17R  472   2.134   1.240   8.788 -0.1866  0.9763  1.4519
    4SAPS  H17S  473   2.308   1.212   8.812 -2.5083 -3.1568  0.3070
    4SAPS  C218  474   2.257   1.293   8.617  0.4923  0.6036 -0.0850
    4SAPS  H18R  475   2.328   1.374   8.589 -1.2950  1.7624 -1.5012
    4SAPS  H18S  476   2.163   1.334   8.574 -0.6472 -0.6771  1.0741
    4SAPS  C219  477   2.322   1.176   8.548  0.0011 -0.0512 -0.2730
    4SAPS  H19R  478   2.258   1.085   8.556 -1.8708  1.1557 -0.9389
    4SAPS  H19S  479   2.417   1.165   8.606 -0.5493  0.5686  0.7761
    4SAPS  C220  480   2.369   1.198   8.404 -0.2198 -0.0195  0.1325
    4SAPS  H20R  481   2.440   1.283   8.399 -1.0073  0.5748 -2.4351
    4SAPS  H20S  482   2.276   1.218   8.346 -0.7520 -3.1586 -0.3006
    4SAPS  H20T  483   2.404   1.102   8.358 -0.7874  0.8950 -2.3786
    4SAPS   C33  484   3.220   1.700  10.140 -0.1440  0.0298 -0.0040
    4SAPS   H3X  485   3.308   1.633  10.156  0.6447  0.5636 -1.8424
    4SAPS   H3Y  486   3.240   1.797  10.190 -0.0703 -0.1225  0.2652
    4SAPS   C34  487   3.181   1.722   9.992 -0.2503  0.1411 -0.7672
    4SAPS   H4X  488   3.096   1.792   9.975 -0.1668  0.5318  0.3068
    4SAPS   H4Y  489   3.151   1.622   9.954  1.0137 -0.7590  0.4942
    4SAPS   C35  490   3.309   1.784   9.917  0.8428  0.2108 -0.9058
    4SAPS   H5X  491   3.392   1.710   9.918 -0.3538 -1.1797 -1.4886
    4SAPS   H5Y  492   3.347   1.882   9.954  1.3829  0.1252 -1.2103
    4SAPS   C36  493   3.284   1.803   9.760 -0.0733 -0.0437 -0.1325
    4SAPS   H6X  494   3.207   1.881   9.746 -0.2489 -0.1134  0.4146
    4SAPS   H6Y  495   3.253   1.713   9.703  0.2255  0.3124 -0.8753
    4SAPS   C37  496   3.417   1.837   9.683 -0.4479 -0.2074  0.8462
    4SAPS   H7X  497   3.497   1.768   9.714 -0.9920 -1.1333  0.2352
    4SAPS   H7Y  498   3.443   1.945   9.695 -0.6260  0.0603 -0.8142
    4SAPS   C38  499   3.380   1.838   9.535  0.1049  0.6177  0.1859
    4SAPS   H8X  500   3.297   1.909   9.513  0.1707  0.0826 -2.0371
    4SAPS   H8Y  501   3.333   1.742   9.506 -1.1925  0.8990  1.2996
    4SAPS   C39  502   3.501   1.878   9.445  0.8503 -0.7814  0.0339
    4SAPS   H9X  503   3.578   1.797   9.444 -0.1585 -1.8029  1.2224
    4SAPS   H9Y  504   3.546   1.968   9.493  0.3833 -0.3227 -0.3874
    4SAPS  C310  505   3.456   1.915   9.306  0.9017 -0.3067  0.0718
    4SAPS  H10X  506   3.538   1.973   9.258  0.5589  1.2738  1.2964
    4SAPS  H10Y  507   3.366   1.979   9.314  1.1048  0.1572 -1.1406
    4SAPS  C311  508   3.436   1.794   9.218 -0.5178 -0.6540  0.2192
    4SAPS  H11X  509   3.350   1.732   9.254 -0.6293  0.2690  1.6305
    4SAPS  H11Y  510   3.526   1.730   9.226  0.6211  0.9868  1.3427
    4SAPS  C312  511   3.397   1.827   9.071  0.1669 -0.5638  0.1129
    4SAPS  H12X  512   3.361   1.931   9.052 -0.6945 -0.5696  1.5685
    4SAPS  H12Y  513   3.309   1.767   9.039  0.4495 -1.8419  1.6287
    4SAPS  C313  514   3.517   1.795   8.979 -0.2494 -1.0260  0.4317
    4SAPS  H13X  515   3.517   1.684   8.968  3.6405 -1.1948  0.7787
    4SAPS  H13Y  516   3.612   1.815   9.032  1.1091 -3.2149 -0.9773
    4SAPS  C314  517   3.518   1.870   8.851  0.7467  0.1600 -0.0467
    4SAPS  H14X  518   3.517   1.981   8.857 -0.0107  0.3774 -2.8381
    4SAPS  H14Y  519   3.425   1.851   8.794  0.0693 -2.2915  1.7242
    4SAPS  C315  520   3.636   1.832   8.761  0.0808  0.9650 -0.9138
    4SAPS  H15X  521   3.645   1.721   8.754 -0.6757  0.9900 -2.6107
    4SAPS  H15Y  522   3.728   1.881   8.801  0.6023  0.1413 -1.0745
    4SAPS  C316  523   3.621   1.897   8.626 -0.4390 -0.1642  0.2874
    4SAPS  H16X  524   3.627   2.006   8.649 -0.4154  0.4199 -2.1506
    4SAPS  H16Y  525   3.521   1.869   8.587  0.1776 -1.4373 -0.4479
    4SAPS  C317  526   3.731   1.857   8.523 -0.1482  0.2463  0.1991
    4SAPS  H17X  527   3.726   1.747   8.507 -0.4582  0.2963 -0.0714
    4SAPS  H17Y  528   3.833   1.884   8.557 -0.2388 -0.1350  0.7825
    4SAPS  C318  529   3.699   1.925   8.389 -0.2372  0.1889 -0.0291
    4SAPS  H18X  530   3.594   1.908   8.356 -0.3150  1.6992 -0.6273
    4SAPS  H18Y  531   3.768   1.883   8.313  1.5681  1.4040  0.8527
    4SAPS  H18Z  532   3.712   2.035   8.392 -2.9027  0.8517 -4.3229
    5SAPS     N  533   6.035   3.029  11.143 -0.1574  0.3848  0.1597
    5SAPS   HN1  534   5.985   2.937  11.147 -2.1379  1.4122  0.3823
    5SAPS   HN2  535   6.108   3.036  11.216  0.4716 -0.6871 -0.3388
    5SAPS   HN3  536   5.959   3.100  11.151  0.6121  1.3761 -1.1150
    5SAPS   C12  537   6.100   3.046  11.017  0.2322  0.9351  0.2120
    5SAPS  H12A  538   6.025   3.071  10.944 -0.4155 -0.6895  0.2750
    5SAPS   C13  539   6.208   3.156  11.023 -0.0204 -0.0447 -0.5148
    5SAPS  O13A  540   6.200   3.243  11.113  0.0266  0.4636 -0.1214
    5SAPS  O13B  541   6.289   3.170  10.929  0.0672  0.6190  0.0396
    5SAPS   C11  542   6.172   2.910  10.976 -0.5563 -0.5852  0.2319
    5SAPS  H11A  543   6.252   2.890  11.051  2.0643  3.1827 -1.2605
    5SAPS  H11B  544   6.220   2.922  10.877 -0.9444 -0.9007  0.0038
    5SAPS     P  545   6.155   2.654  10.928 -0.2848  0.2763  0.3402
    5SAPS   O13  546   6.274   2.645  11.015  0.1069 -0.0367 -0.4040
    5SAPS   O14  547   6.045   2.559  10.945  0.1483  0.3407 -0.3448
    5SAPS   O12  548   6.087   2.797  10.962  0.8528 -0.0492 -0.9395
    5SAPS   O11  549   6.194   2.676  10.772  0.4301  0.3475 -0.0177
    5SAPS    C1  550   6.100   2.670  10.664  0.7696  0.2668  0.4793
    5SAPS    HA  551   6.093   2.561  10.644  0.1052  0.1405  1.2906
    5SAPS    HB  552   5.999   2.709  10.691  1.2931  0.3102  2.5663
    5SAPS    C2  553   6.146   2.746  10.543  0.3813 -0.4900 -0.1832
    5SAPS    HS  554   6.161   2.848  10.582  1.0102 -0.3889 -0.6653
    5SAPS   O21  555   6.032   2.740  10.452  0.4872 -0.2631 -0.5700
    5SAPS   C21  556   6.016   2.850  10.383 -0.5839 -0.5143 -0.1927
    5SAPS   O22  557   6.053   2.961  10.422 -0.5688 -0.5019 -0.3732
    5SAPS   C22  558   5.951   2.832  10.253  0.4747 -0.1426  0.1206
    5SAPS   H2R  559   6.005   2.744  10.212  1.7351  1.1898 -1.1422
    5SAPS   H2S  560   5.843   2.808  10.267  0.5074 -1.4175 -1.5459
    5SAPS    C3  561   6.270   2.684  10.479 -0.0086 -0.1629  0.5265
    5SAPS    HX  562   6.237   2.580  10.460  1.6087 -0.1934 -2.8740
    5SAPS    HY  563   6.348   2.677  10.558 -1.7863  0.0835  2.3871
    5SAPS   O31  564   6.307   2.737  10.349  0.2396 -0.3388  0.4677
    5SAPS   C31  565   6.384   2.846  10.360 -0.1447  0.1416  0.3842
    5SAPS   O32  566   6.407   2.914  10.456 -0.0452  0.4421  0.3497
    5SAPS   C32  567   6.438   2.885  10.224 -0.3329  0.1935 -0.1810
    5SAPS   H2X  568   6.548   2.870  10.231 -0.4092 -0.8627 -1.0575
    5SAPS   H2Y  569   6.418   2.992  10.200  0.4767  0.7112  1.3142
    5SAPS   C23  570   5.979   2.949  10.160 -0.0671  0.3576  0.0106
    5SAPS   H3R  571   6.088   2.969  10.156  0.0157  0.1975  1.1040
    5SAPS   H3S  572   5.927   3.046  10.177 -2.0117  0.1483 -3.6293
    5SAPS   C24  573   5.930   2.911  10.016 -0.6157  0.0758  0.1910
    5SAPS   H4R  574   5.906   3.001   9.956  2.1116 -1.0292 -2.9255
    5SAPS   H4S  575   5.828   2.867  10.027  0.4842 -3.2085 -1.1854
    5SAPS   C25  576   6.016   2.809   9.940  0.7419 -0.1169  0.4521
    5SAPS   H5R  577   6.025   2.711   9.990  0.9836  0.2440  1.1293
    5SAPS   C26  578   6.074   2.830   9.816  1.3361 -0.7179  0.0931
    5SAPS   H6R  579   6.107   2.742   9.759  0.0130 -0.3742 -1.2774
    5SAPS   C27  580   6.068   2.954   9.726 -0.4611 -0.4089  0.5621
    5SAPS   H7R  581   6.064   3.046   9.788  1.5800  0.2964 -0.2685
    5SAPS   H7S  582   5.985   2.937   9.654 -1.3735 -0.4346  1.5977
    5SAPS   C28  583   6.189   2.963   9.635 -0.2043 -0.8559  0.7094
    5SAPS   H8R  584   6.288   2.929   9.670  0.7763  1.9570  0.9140
    5SAPS   C29  585   6.193   3.009   9.513 -0.1344  0.5528  0.5102
    5SAPS   H9R  586   6.284   3.001   9.452 -2.2926 -1.4563 -2.7524
    5SAPS  C210  587   6.075   3.063   9.431 -0.5069  0.0868  0.0608
    5SAPS  H10R  588   6.002   3.117   9.495  0.6015  3.2753 -1.2096
    5SAPS  H10S  589   6.024   2.972   9.392 -0.3969  0.6874 -1.5588
    5SAPS  C211  590   6.119   3.154   9.321 -0.3302 -0.8195  0.0774
    5SAPS  H11R  591   6.115   3.262   9.341 -1.7440 -0.8387 -0.0606
    5SAPS  C212  592   6.165   3.099   9.209 -0.5140 -1.3662 -0.0503
    5SAPS  H12R  593   6.178   3.170   9.126 -1.0338 -0.0390  0.9658
    5SAPS  C213  594   6.183   2.955   9.158 -0.7788 -0.4602  0.3426
    5SAPS  H13R  595   6.174   2.882   9.242 -0.8287 -0.9317 -0.0703
    5SAPS  H13S  596   6.286   2.937   9.120 -0.5369  0.7274  0.3762
    5SAPS  C214  597   6.078   2.928   9.053 -0.6695  0.4392 -0.6375
    5SAPS  H14R  598   5.983   2.966   9.095  1.0154  3.3216  0.9068
    5SAPS  C215  599   6.075   2.868   8.934 -0.1060 -0.0043  0.0346
    5SAPS  H15R  600   5.979   2.862   8.881 -0.2472  1.1141  0.1322
    5SAPS  C216  601   6.190   2.807   8.860  0.3079 -0.6112  0.5769
    5SAPS  H16R  602   6.170   2.698   8.852 -0.4302 -0.7256  3.1947
    5SAPS  H16S  603   6.278   2.820   8.926 -0.4697  0.1865  1.4841
    5SAPS  C217  604   6.219   2.874   8.724 -0.0638  0.5787  0.5865
    5SAPS  H17R  605   6.140   2.830   8.659  0.7001  0.0079  0.0246
    5SAPS  H17S  606   6.316   2.841   8.682  0.4367  1.5893  0.9306
    5SAPS  C218  607   6.209   3.024   8.728  0.4249 -0.6054 -0.8388
    5SAPS  H18R  608   6.103   3.050   8.750 -0.6231 -3.6476 -1.8282
    5SAPS  H18S  609   6.268   3.061   8.815 -1.6391  2.2368 -0.4972
    5SAPS  C219  610   6.262   3.095   8.609 -0.3986  0.9766 -0.6797
    5SAPS  H19R  611   6.347   3.037   8.566 -1.0419 -0.9621  0.5555
    5SAPS  H19S  612   6.297   3.193   8.648 -0.4256  0.6006  0.3089
    5SAPS  C220  613   6.163   3.117   8.497  0.2480 -0.1392 -0.7182
    5SAPS  H20R  614   6.208   3.188   8.425  1.2743 -1.2607 -1.2228
    5SAPS  H20S  615   6.070   3.165   8.534  0.2050 -1.9044  1.7237
    5SAPS  H20T  616   6.138   3.024   8.441 -1.0181  0.1597 -0.6777
    5SAPS   C33  617   6.401   2.798  10.107  0.5123 -0.4028  0.1215
    5SAPS   H3X  618   6.291   2.783  10.103  0.3336  0.1986  2.0125
    5SAPS   H3Y  619   6.445   2.697  10.121  0.6241 -0.2888  0.6099
    5SAPS   C34  620   6.437   2.854   9.969  0.1671  0.5921 -0.2160
    5SAPS   H4X  621   6.403   2.959   9.955  0.2570  0.4379 -1.8096
    5SAPS   H4Y  622   6.392   2.789   9.891 -0.4722 -0.1001  0.7024
    5SAPS   C35  623   6.587   2.867   9.948 -0.4849  0.3557 -0.2971
    5SAPS   H5X  624   6.634   2.774   9.988  0.1081  1.7153  2.3439
    5SAPS   H5Y  625   6.629   2.956   9.999  1.5864 -0.8712  0.2465
    5SAPS   C36  626   6.631   2.872   9.804  0.0527 -0.7293  0.7648
    5SAPS   H6X  627   6.571   2.794   9.754 -3.2427  2.1824 -0.2294
    5SAPS   H6Y  628   6.738   2.850   9.783  0.0561 -0.6177  0.6681
    5SAPS   C37  629   6.598   3.007   9.747 -0.1064 -0.4395  0.2024
    5SAPS   H7X  630   6.604   3.087   9.823 -2.2647 -1.1421  1.2102
    5SAPS   H7Y  631   6.488   3.003   9.728  0.2359  0.3195 -2.1729
    5SAPS   C38  632   6.675   3.066   9.626  0.0308 -0.2466 -0.7987
    5SAPS   H8X  633   6.783   3.036   9.626  0.5359  1.3957 -2.2120
    5SAPS   H8Y  634   6.668   3.176   9.637  2.8552 -0.1909  1.8752
    5SAPS   C39  635   6.612   3.026   9.489 -0.1418 -0.5542  0.2617
    5SAPS   H9X  636   6.506   3.057   9.477 -0.0011 -0.2717 -0.2657
    5SAPS   H9Y  637   6.610   2.915   9.481 -1.1597 -0.6249  1.3687
    5SAPS  C310  638   6.686   3.076   9.361  0.0214 -0.1391  0.2898
    5SAPS  H10X  639   6.790   3.038   9.366  0.1666  0.3168  1.1015
    5SAPS  H10Y  640   6.696   3.187   9.367 -1.1329  0.0003 -0.1330
    5SAPS  C311  641   6.619   3.037   9.231 -0.5803 -0.0141 -0.3636
    5SAPS  H11X  642   6.540   3.114   9.219 -0.5907 -0.0264 -0.3738
    5SAPS  H11Y  643   6.569   2.937   9.232 -1.4786  0.3916 -1.8634
    5SAPS  C312  644   6.719   3.041   9.108 -0.2433 -0.2331 -0.2247
    5SAPS  H12X  645   6.811   2.981   9.125  0.0443  0.4789  0.7934
    5SAPS  H12Y  646   6.743   3.148   9.090  1.2249 -0.2892  1.2174
    5SAPS  C313  647   6.660   2.981   8.983  0.2439 -0.3479  0.4297
    5SAPS  H13X  648   6.559   3.018   8.955  0.1072 -0.6239  0.5565
    5SAPS  H13Y  649   6.632   2.875   9.001 -0.4096 -0.3025 -0.2696
    5SAPS  C314  650   6.767   2.976   8.874 -0.4710  0.5598  0.1165
    5SAPS  H14X  651   6.854   2.927   8.922 -0.4703  0.0657 -0.3810
    5SAPS  H14Y  652   6.786   3.081   8.843 -0.7034 -0.0341 -2.2549
    5SAPS  C315  653   6.730   2.900   8.739 -0.3703 -0.3293  0.0067
    5SAPS  H15X  654   6.631   2.926   8.696 -0.0292  2.9754  0.9059
    5SAPS  H15Y  655   6.725   2.792   8.765  0.0372 -0.0481  1.3505
    5SAPS  C316  656   6.845   2.917   8.631  0.0866  0.2566  0.2894
    5SAPS  H16X  657   6.939   2.878   8.677 -0.9419 -1.8880  0.6903
    5SAPS  H16Y  658   6.864   3.025   8.614  1.4518 -0.1143 -0.7277
    5SAPS  C317  659   6.818   2.837   8.502 -0.5000  0.6935 -0.7697
    5SAPS  H17X  660   6.738   2.881   8.438  0.4720 -0.4489 -2.9011
    5SAPS  H17Y  661   6.787   2.732   8.522 -0.2500  0.6861 -0.4169
    5SAPS  C318  662   6.950   2.834   8.422 -0.2871 -0.0483  0.6522
    5SAPS  H18X  663   6.939   2.792   8.320  1.9717  1.7696 -0.4518
    5SAPS  H18Y  664   7.019   2.769   8.480  2.5678  1.9811 -0.2442
    5SAPS  H18Z  665   6.994   2.935   8.406  2.2250 -1.3596 -1.5096
    6SAPS     N  666   6.512   2.757  11.085 -0.3239 -0.2267 -0.4804
    6SAPS   HN1  667   6.514   2.854  11.048  1.9369 -0.0113  0.0533
    6SAPS   HN2  668   6.432   2.695  11.061 -0.4802 -1.0511  1.8501
    6SAPS   HN3  669   6.504   2.767  11.189  1.1376  1.7073 -0.4883
    6SAPS   C12  670   6.637   2.686  11.068  0.6843 -1.1428 -0.4748
    6SAPS  H12A  671   6.687   2.741  10.989  1.2756  0.4289  0.9305
    6SAPS   C13  672   6.726   2.703  11.191 -0.6039 -0.9940 -0.4588
    6SAPS  O13A  673   6.681   2.757  11.296  0.1904  0.9046 -0.1092
    6SAPS  O13B  674   6.851   2.672  11.179  0.0797 -0.1744 -0.1068
    6SAPS   C11  675   6.594   2.542  11.045 -0.0440 -0.7272  0.4082
    6SAPS  H11A  676   6.522   2.516  11.126  0.6769  0.5967  1.5167
    6SAPS  H11B  677   6.680   2.474  11.066  2.5534  2.0337 -0.6804
    6SAPS     P  678   6.605   2.414  10.817 -0.0201  0.2586 -0.3818
    6SAPS   O13  679   6.746   2.445  10.780  0.4590  0.2698  0.0798
    6SAPS   O14  680   6.583   2.286  10.880  0.5452  0.2108  0.6672
    6SAPS   O12  681   6.541   2.528  10.917  0.5343  0.2676 -0.0726
    6SAPS   O11  682   6.505   2.423  10.696  0.7117  0.2652 -0.7022
    6SAPS    C1  683   6.366   2.384  10.711 -0.6594 -0.7305 -0.0690
    6SAPS    HA  684   6.335   2.352  10.813 -2.2195 -0.1425 -0.3412
    6SAPS    HB  685   6.299   2.471  10.692 -1.3841 -1.7473 -2.5225
    6SAPS    C2  686   6.321   2.268  10.616  0.1802  0.2053 -0.3013
    6SAPS    HS  687   6.386   2.183  10.646 -1.0454 -0.8074 -0.4188
    6SAPS   O21  688   6.344   2.309  10.487 -0.2124 -0.1961 -0.2047
    6SAPS   C21  689   6.348   2.216  10.390 -0.1055  0.1745  0.3107
    6SAPS   O22  690   6.338   2.094  10.403  0.5151  0.2467 -0.0224
    6SAPS   C22  691   6.369   2.285  10.258  0.5156 -1.3040  0.0458
    6SAPS   H2R  692   6.340   2.392  10.270 -1.7117 -1.4892 -2.5939
    6SAPS   H2S  693   6.479   2.276  10.248  0.7247 -0.3415  1.2682
    6SAPS    C3  694   6.173   2.220  10.643  0.2002  0.2191 -0.0274
    6SAPS    HX  695   6.166   2.191  10.750  1.2053  1.0188  0.2710
    6SAPS    HY  696   6.165   2.122  10.589  0.7288  1.0282 -1.6498
    6SAPS   O31  697   6.075   2.327  10.610 -0.4691 -0.0582  0.1583
    6SAPS   C31  698   5.981   2.281  10.527  0.1888  0.4367 -0.0485
    6SAPS   O32  699   5.989   2.178  10.460  0.2954 -0.6398 -0.3713
    6SAPS   C32  700   5.853   2.368  10.523 -0.3898 -0.5954  0.8405
    6SAPS   H2X  701   5.872   2.468  10.566  0.1601 -0.3492  0.0557
    6SAPS   H2Y  702   5.778   2.322  10.591 -1.1954 -0.6353 -0.0504
    6SAPS   C23  703   6.297   2.229  10.137 -0.0211 -0.1986  0.2283
    6SAPS   H3R  704   6.191   2.260  10.146 -0.2682 -0.9384 -0.1542
    6SAPS   H3S  705   6.308   2.119  10.140 -0.7112 -0.3679 -2.0160
    6SAPS   C24  706   6.367   2.271  10.010 -0.4805 -0.3357 -0.3225
    6SAPS   H4R  707   6.330   2.201   9.933 -1.7418  0.3501 -0.3633
    6SAPS   H4S  708   6.478   2.261  10.015 -0.5473 -0.8994  0.2546
    6SAPS   C25  709   6.327   2.414   9.980 -0.1203 -0.1303  0.0872
    6SAPS   H5R  710   6.285   2.474  10.062 -0.9171 -0.5799  0.0199
    6SAPS   C26  711   6.324   2.471   9.859  0.6897  0.2803  0.5069
    6SAPS   H6R  712   6.300   2.579   9.859  0.2512  0.1813  0.7187
    6SAPS   C27  713   6.357   2.417   9.726  0.5130 -0.0387 -0.0805
    6SAPS   H7R  714   6.413   2.323   9.742  1.4032  0.1964 -1.6664
    6SAPS   H7S  715   6.420   2.485   9.665  1.3810  0.0462  0.8958
    6SAPS   C28  716   6.232   2.388   9.647  0.1294  0.2723 -0.0650
    6SAPS   H8R  717   6.216   2.280   9.660  2.1819 -0.0065  0.3941
    6SAPS   C29  718   6.164   2.455   9.554 -0.8533  0.2605 -0.0600
    6SAPS   H9R  719   6.078   2.407   9.505 -1.4922 -0.6810  1.8944
    6SAPS  C210  720   6.183   2.593   9.499  0.1407  0.0105  0.4354
    6SAPS  H10R  721   6.261   2.653   9.551 -1.7641  2.2903  0.8544
    6SAPS  H10S  722   6.088   2.649   9.511 -0.4880 -0.9458  0.0515
    6SAPS  C211  723   6.219   2.600   9.352 -0.4053 -0.2760 -0.1111
    6SAPS  H11R  724   6.140   2.617   9.278 -1.1506  0.6936  0.8687
    6SAPS  C212  725   6.347   2.608   9.302 -0.4709  0.3264 -0.1134
    6SAPS  H12R  726   6.367   2.604   9.194  1.9359 -3.0107  0.2794
    6SAPS  C213  727   6.478   2.590   9.383 -0.1224  0.1147 -0.8969
    6SAPS  H13R  728   6.481   2.485   9.418 -3.3362 -0.7490 -2.7435
    6SAPS  H13S  729   6.472   2.664   9.466 -1.6128  0.0202 -0.8858
    6SAPS  C214  730   6.601   2.608   9.300 -0.2509 -0.7531 -0.6310
    6SAPS  H14R  731   6.598   2.619   9.190  0.9001 -1.0577 -0.7060
    6SAPS  C215  732   6.725   2.627   9.347 -0.4355 -1.2855 -0.0527
    6SAPS  H15R  733   6.807   2.640   9.275 -0.3481 -0.7270  0.1405
    6SAPS  C216  734   6.772   2.619   9.492 -0.0501 -0.6339 -0.2643
    6SAPS  H16R  735   6.764   2.725   9.526  2.4978 -0.1588 -0.9567
    6SAPS  H16S  736   6.879   2.599   9.471  0.8879  0.1178  3.1093
    6SAPS  C217  737   6.733   2.521   9.600  0.9230 -0.6618 -1.0514
    6SAPS  H17R  738   6.762   2.420   9.565  2.2360 -1.0303  0.9419
    6SAPS  H17S  739   6.627   2.527   9.630  1.3414 -3.8442  1.6859
    6SAPS  C218  740   6.812   2.544   9.738 -0.3364  0.2554  0.2170
    6SAPS  H18R  741   6.809   2.650   9.769 -1.9797 -0.3173  2.2243
    6SAPS  H18S  742   6.913   2.500   9.722  0.0937  2.0864 -2.9220
    6SAPS  C219  743   6.762   2.467   9.861 -0.0480 -0.1742  0.4203
    6SAPS  H19R  744   6.759   2.360   9.834 -0.8484 -0.2483  0.7867
    6SAPS  H19S  745   6.654   2.492   9.868 -0.6641 -2.6015  0.3148
    6SAPS  C220  746   6.844   2.502   9.979  0.1658 -0.2471  0.2364
    6SAPS  H20R  747   6.807   2.435  10.060 -0.1654 -1.6538 -1.0198
    6SAPS  H20S  748   6.829   2.608  10.008  0.1769 -0.4775  1.0855
    6SAPS  H20T  749   6.953   2.490   9.963 -0.1569 -1.1523 -1.5360
    6SAPS   C33  750   5.785   2.384  10.382 -0.4181  0.3220  0.3908
    6SAPS   H3X  751   5.681   2.415  10.405 -1.0844  0.4937 -2.4315
    6SAPS   H3Y  752   5.782   2.284  10.334 -0.5959 -0.0644  1.2037
    6SAPS   C34  753   5.863   2.489  10.301  0.6797  0.5949 -0.0024
    6SAPS   H4X  754   5.970   2.470  10.325  0.0313 -0.4192  2.2822
    6SAPS   H4Y  755   5.839   2.594  10.330 -1.8184  0.1078 -0.1012
    6SAPS   C35  756   5.839   2.466  10.151 -0.5742 -0.5686 -0.0590
    6SAPS   H5X  757   5.858   2.362  10.117  3.0189  0.3452 -1.2776
    6SAPS   H5Y  758   5.912   2.530  10.097 -0.7963  0.0977  0.4114
    6SAPS   C36  759   5.697   2.506  10.114 -0.3740 -0.6000  0.2415
    6SAPS   H6X  760   5.678   2.612  10.140 -2.3956 -0.0007 -3.0652
    6SAPS   H6Y  761   5.632   2.439  10.174  0.8926 -1.8232  0.3018
    6SAPS   C37  762   5.658   2.484   9.965  0.6260 -0.6151 -0.2167
    6SAPS   H7X  763   5.550   2.486   9.939  0.8825 -2.3052 -1.5840
    6SAPS   H7Y  764   5.688   2.378   9.951 -1.5287 -1.8789  3.2593
    6SAPS   C38  765   5.724   2.574   9.858  0.0239  0.1947 -0.6720
    6SAPS   H8X  766   5.835   2.564   9.860  0.2459  1.9413 -1.5798
    6SAPS   H8Y  767   5.702   2.679   9.887 -0.8043  0.1008 -0.9352
    6SAPS   C39  768   5.682   2.546   9.715  0.2645  0.7030  0.6179
    6SAPS   H9X  769   5.574   2.574   9.710  0.5019  1.4415 -3.5943
    6SAPS   H9Y  770   5.697   2.438   9.696  0.9803  0.8450  0.3549
    6SAPS  C310  771   5.750   2.621   9.600 -0.3627 -0.2205 -1.2891
    6SAPS  H10X  772   5.855   2.585   9.598 -0.5575 -0.9361  0.0999
    6SAPS  H10Y  773   5.756   2.731   9.615  1.6475 -0.5473  0.9721
    6SAPS  C311  774   5.701   2.594   9.461 -0.2005  0.9070 -0.4065
    6SAPS  H11X  775   5.592   2.610   9.449 -0.1787  0.4729 -1.2455
    6SAPS  H11Y  776   5.708   2.484   9.454 -1.5617  0.7969 -0.1475
    6SAPS  C312  777   5.783   2.664   9.360  0.0090  0.3796 -0.3824
    6SAPS  H12X  778   5.890   2.644   9.381 -0.5355 -0.5470  1.7914
    6SAPS  H12Y  779   5.763   2.773   9.363  1.1429  0.5994 -0.4378
    6SAPS  C313  780   5.764   2.600   9.222  0.2854  0.0699  0.5016
    6SAPS  H13X  781   5.660   2.629   9.196  0.4386  0.2047  0.0367
    6SAPS  H13Y  782   5.763   2.489   9.230 -1.1214  0.0095 -0.1614
    6SAPS  C314  783   5.854   2.656   9.117 -0.2022  0.1642  0.4747
    6SAPS  H14X  784   5.957   2.643   9.155 -0.5239  0.4900  1.4776
    6SAPS  H14Y  785   5.837   2.763   9.094  0.7109  0.5658  1.6129
    6SAPS  C315  786   5.840   2.576   8.983  0.2963 -0.6723 -0.4148
    6SAPS  H15X  787   5.838   2.646   8.897 -1.3168 -1.7402 -1.3000
    6SAPS  H15Y  788   5.735   2.539   8.984  0.0543 -0.0603 -1.2863
    6SAPS  C316  789   5.948   2.473   8.969 -0.1548  0.7030  0.1307
    6SAPS  H16X  790   5.955   2.411   9.061  1.2948  1.8162  0.8037
    6SAPS  H16Y  791   6.050   2.514   8.957 -0.3621  0.6441 -2.1615
    6SAPS  C317  792   5.917   2.365   8.855  0.5307  0.0781  0.2641
    6SAPS  H17X  793   5.894   2.409   8.756  1.6948  2.0359  0.8047
    6SAPS  H17Y  794   5.820   2.321   8.888 -1.1732  3.1237 -0.3324
    6SAPS  C318  795   6.022   2.259   8.848  0.3842 -0.4933  0.5450
    6SAPS  H18X  796   5.998   2.209   8.752 -1.0035  2.1505 -0.5892
    6SAPS  H18Y  797   6.014   2.186   8.931 -0.1152  0.6801  1.5688
    6SAPS  H18Z  798   6.124   2.301   8.848  0.5113 -0.7763  1.5363
    7SAPS     N  799   1.291   3.014  10.887  0.1496 -0.0092 -0.1274
    7SAPS   HN1  800   1.324   2.930  10.835 -3.2600 -1.9053  0.5109
    7SAPS   HN2  801   1.221   2.980  10.956 -0.3729  0.7246 -0.2848
    7SAPS   HN3  802   1.238   3.075  10.821 -0.4331  0.0136  0.3496
    7SAPS   C12  803   1.398   3.097  10.941  0.3279  0.0160  0.8611
    7SAPS  H12A  804   1.437   3.164  10.865  1.5271 -2.6150 -0.9816
    7SAPS   C13  805   1.364   3.181  11.066 -0.1400  0.1464 -0.0517
    7SAPS  O13A  806   1.252   3.192  11.109 -0.4026  0.2708 -0.3408
    7SAPS  O13B  807   1.450   3.272  11.087 -0.2092 -0.0558  0.2341
    7SAPS   C11  808   1.518   3.011  10.976  0.5436 -0.6667  0.2065
    7SAPS  H11A  809   1.500   2.971  11.078 -0.0164 -3.0958 -0.7785
    7SAPS  H11B  810   1.602   3.084  10.980 -1.4585  1.7720  0.5873
    7SAPS     P  811   1.688   2.832  10.870 -0.0387 -0.1360  0.1981
    7SAPS   O13  812   1.779   2.869  10.985  0.0775 -0.1481  0.1474
    7SAPS   O14  813   1.687   2.689  10.832  0.4118  0.9009 -0.1560
    7SAPS   O12  814   1.536   2.891  10.893 -0.2664 -0.0426 -0.6839
    7SAPS   O11  815   1.733   2.913  10.744 -0.0569 -0.2905 -0.6117
    7SAPS    C1  816   1.648   2.927  10.623 -0.4204  0.2887 -0.8035
    7SAPS    HA  817   1.562   2.859  10.634  0.6211 -0.7147  1.8513
    7SAPS    HB  818   1.606   3.029  10.623 -1.8176 -0.2432  0.9592
    7SAPS    C2  819   1.730   2.883  10.505 -0.4594  0.0191 -0.2810
    7SAPS    HS  820   1.783   2.788  10.526  0.9188  0.8054 -0.0934
    7SAPS   O21  821   1.833   2.984  10.481  0.2725  0.2413 -0.3210
    7SAPS   C21  822   1.936   2.938  10.404  0.4159  0.3852 -0.1023
    7SAPS   O22  823   1.956   2.821  10.375 -0.1393 -0.0603 -0.3789
    7SAPS   C22  824   2.010   3.052  10.342  0.2597 -0.4767  0.0037
    7SAPS   H2R  825   2.072   3.096  10.423  0.1801 -0.4619  0.0563
    7SAPS   H2S  826   2.085   3.011  10.271 -0.9049 -2.9031  0.0703
    7SAPS    C3  827   1.637   2.880  10.382  0.0549 -0.3954 -0.6112
    7SAPS    HX  828   1.617   2.985  10.352  1.0368  0.3074  1.1092
    7SAPS    HY  829   1.541   2.832  10.411  0.9778 -1.4086  0.8421
    7SAPS   O31  830   1.697   2.825  10.263  0.0264 -0.8798 -0.1038
    7SAPS   C31  831   1.688   2.694  10.245  0.7702  0.0774 -0.4920
    7SAPS   O32  832   1.610   2.622  10.307 -0.2587 -0.3454  0.3794
    7SAPS   C32  833   1.786   2.646  10.138  0.3791  0.4168  0.8859
    7SAPS   H2X  834   1.845   2.559  10.175  0.8909  1.0523  1.6277
    7SAPS   H2Y  835   1.859   2.728  10.119 -0.8261  1.2873 -0.1747
    7SAPS   C23  836   1.908   3.158  10.271 -0.7743 -0.2917  0.6420
    7SAPS   H3R  837   1.925   3.252  10.328  1.5932 -0.9234  1.0847
    7SAPS   H3S  838   1.801   3.131  10.273 -0.6704 -1.2344 -2.1838
    7SAPS   C24  839   1.938   3.167  10.116  0.3567 -0.1021 -0.2150
    7SAPS   H4R  840   2.040   3.208  10.102 -0.3391  1.4462 -0.8817
    7SAPS   H4S  841   1.867   3.245  10.082 -0.7530 -0.4208  1.2391
    7SAPS   C25  842   1.919   3.042  10.036  0.0602 -0.7584 -0.3773
    7SAPS   H5R  843   1.930   2.947  10.091  1.2786 -0.6916 -0.4748
    7SAPS   C26  844   1.890   3.028   9.904  0.1141  0.0985  0.0487
    7SAPS   H6R  845   1.904   2.926   9.865  1.6926 -0.3519  1.6497
    7SAPS   C27  846   1.890   3.139   9.804  0.3654 -0.0294  0.3360
    7SAPS   H7R  847   1.921   3.233   9.857 -0.4008  0.1208  0.5251
    7SAPS   H7S  848   1.782   3.140   9.779  0.0685  2.2698  1.3780
    7SAPS   C28  849   1.972   3.135   9.677  0.1608 -0.1826 -0.1715
    7SAPS   H8R  850   2.080   3.142   9.698 -0.2126 -0.9411  2.3626
    7SAPS   C29  851   1.930   3.105   9.554  0.7901 -0.2987  0.1355
    7SAPS   H9R  852   1.994   3.105   9.464  0.7936  2.3598  0.0572
    7SAPS  C210  853   1.789   3.055   9.521  0.1096  0.0349 -0.1925
    7SAPS  H10R  854   1.738   3.033   9.617  1.3999 -0.4951  0.4012
    7SAPS  H10S  855   1.803   2.957   9.469 -1.9258  0.7741 -2.2813
    7SAPS  C211  856   1.708   3.134   9.431  0.0391 -0.3821 -0.4020
    7SAPS  H11R  857   1.643   3.205   9.484  0.7058 -0.5014  0.5925
    7SAPS  C212  858   1.715   3.127   9.296  0.1373  0.6869  0.7088
    7SAPS  H12R  859   1.646   3.184   9.233  0.9721  0.8144 -0.1112
    7SAPS  C213  860   1.817   3.045   9.218  0.1220 -0.3965 -0.4746
    7SAPS  H13R  861   1.766   2.961   9.167 -0.9249  0.6663 -1.2155
    7SAPS  H13S  862   1.896   2.999   9.281  0.0943  1.7210  1.2264
    7SAPS  C214  863   1.884   3.140   9.130 -0.7843  0.4571 -0.7505
    7SAPS  H14R  864   1.936   3.226   9.176  0.3710 -1.2053  1.2273
    7SAPS  C215  865   1.901   3.134   8.997  0.0098 -0.4887  0.1792
    7SAPS  H15R  866   1.959   3.215   8.950  0.2990  0.2075  1.6785
    7SAPS  C216  867   1.866   3.028   8.898  0.0389  0.8428  0.1014
    7SAPS  H16R  868   1.801   2.952   8.947 -0.1370 -0.2949 -1.7953
    7SAPS  H16S  869   1.954   2.968   8.867  0.1697  1.6975 -1.2201
    7SAPS  C217  870   1.795   3.071   8.770 -0.0038 -0.0206  0.0812
    7SAPS  H17R  871   1.696   3.109   8.802 -0.5874 -0.2291 -1.4075
    7SAPS  H17S  872   1.772   2.982   8.707 -0.3830  1.4369 -1.9435
    7SAPS  C218  873   1.886   3.166   8.687 -0.4344 -0.1361  0.2360
    7SAPS  H18R  874   1.980   3.109   8.672 -2.5073 -4.2905  1.2964
    7SAPS  H18S  875   1.912   3.259   8.741 -1.1153  0.3158 -0.2057
    7SAPS  C219  876   1.822   3.210   8.548 -0.2037 -0.0397 -0.1320
    7SAPS  H19R  877   1.885   3.295   8.513  1.4444 -0.0896  2.4686
    7SAPS  H19S  878   1.721   3.256   8.559 -0.5224 -0.7342 -0.1225
    7SAPS  C220  879   1.812   3.093   8.455  0.1699  0.7542 -0.3466
    7SAPS  H20R  880   1.722   3.032   8.475  0.6288 -0.2634 -1.2832
    7SAPS  H20S  881   1.907   3.035   8.457  0.6615  1.5554  0.3598
    7SAPS  H20T  882   1.802   3.120   8.347 -0.4544 -1.6973 -0.9665
    7SAPS   C33  883   1.713   2.621  10.002 -0.1862  0.7042 -0.7672
    7SAPS   H3X  884   1.628   2.691   9.985 -0.7972  1.4119  3.9111
    7SAPS   H3Y  885   1.663   2.521  10.007 -0.3780  0.7987 -0.7772
    7SAPS   C34  886   1.821   2.609   9.891 -0.4221 -0.6245  0.2165
    7SAPS   H4X  887   1.889   2.531   9.932 -1.3785 -0.5613  2.0029
    7SAPS   H4Y  888   1.875   2.706   9.880 -2.6308  0.6546 -0.0380
    7SAPS   C35  889   1.762   2.578   9.751 -0.4462 -0.1836  0.1114
    7SAPS   H5X  890   1.691   2.492   9.748  0.8102 -1.2344 -0.4027
    7SAPS   H5Y  891   1.844   2.535   9.691 -1.7127 -1.4986 -0.7637
    7SAPS   C36  892   1.711   2.703   9.685 -0.4563 -0.6104  1.0379
    7SAPS   H6X  893   1.798   2.772   9.684  0.1675 -1.3002  3.0437
    7SAPS   H6Y  894   1.625   2.750   9.739  0.2511 -0.9501  2.4872
    7SAPS   C37  895   1.669   2.671   9.537  0.0324  0.3491  0.8296
    7SAPS   H7X  896   1.608   2.754   9.495 -3.1603 -1.9921  0.4600
    7SAPS   H7Y  897   1.610   2.580   9.562  1.6817 -1.2092 -0.6708
    7SAPS   C38  898   1.783   2.635   9.448 -0.3455  0.5787  0.5017
    7SAPS   H8X  899   1.811   2.529   9.462  0.0630  0.6780  0.4610
    7SAPS   H8Y  900   1.876   2.691   9.474  1.7917 -1.6069 -1.8112
    7SAPS   C39  901   1.746   2.656   9.296 -0.0205  0.2414  0.1147
    7SAPS   H9X  902   1.707   2.759   9.288 -3.3360 -0.9361 -0.8514
    7SAPS   H9Y  903   1.666   2.582   9.270  0.9079 -0.8537  0.2829
    7SAPS  C310  904   1.850   2.626   9.188  0.3669 -0.7514 -0.2311
    7SAPS  H10X  905   1.870   2.517   9.192 -0.1951 -0.8896 -0.9010
    7SAPS  H10Y  906   1.943   2.682   9.212 -0.9393  0.0014  3.8597
    7SAPS  C311  907   1.806   2.669   9.051 -0.1836 -0.0155  0.0737
    7SAPS  H11X  908   1.766   2.772   9.049 -1.4599 -0.5032 -0.8004
    7SAPS  H11Y  909   1.713   2.614   9.026  0.4062 -0.8838 -0.2598
    7SAPS  C312  910   1.921   2.656   8.956  0.2735  0.3645  0.0308
    7SAPS  H12X  911   1.977   2.561   8.973 -0.5419 -0.1800 -0.2411
    7SAPS  H12Y  912   1.988   2.740   8.982  0.7622 -0.8489  3.0329
    7SAPS  C313  913   1.887   2.648   8.799 -0.6461 -0.3432  0.1506
    7SAPS  H13X  914   1.817   2.731   8.778  0.5308  0.2697 -1.6145
    7SAPS  H13Y  915   1.841   2.551   8.773 -2.9244  0.3040  1.5194
    7SAPS  C314  916   2.011   2.675   8.708  0.8218 -0.5679 -0.1441
    7SAPS  H14X  917   2.077   2.585   8.710 -0.3585 -1.4456  1.0430
    7SAPS  H14Y  918   2.069   2.761   8.748 -1.8965  1.7339 -0.8907
    7SAPS  C315  919   1.988   2.704   8.561 -0.0591 -0.2883 -0.7515
    7SAPS  H15X  920   1.938   2.803   8.557 -1.4500 -0.8869  0.7322
    7SAPS  H15Y  921   1.921   2.629   8.513  0.2732 -0.0680 -1.5762
    7SAPS  C316  922   2.121   2.698   8.484  0.4747  0.1156 -0.5183
    7SAPS  H16X  923   2.178   2.604   8.502 -0.0428 -1.2245 -4.7714
    7SAPS  H16Y  924   2.186   2.787   8.500  0.7672 -0.3962  1.3561
    7SAPS  C317  925   2.105   2.702   8.330  0.9481  0.4404 -0.0313
    7SAPS  H17X  926   2.040   2.789   8.307  0.8726  0.1810 -0.8293
    7SAPS  H17Y  927   2.050   2.609   8.305  2.9487 -0.9993  0.6739
    7SAPS  C318  928   2.228   2.705   8.244 -0.5133 -0.1775 -0.5551
    7SAPS  H18X  929   2.303   2.783   8.270  0.6194 -1.7391  1.1547
    7SAPS  H18Y  930   2.191   2.709   8.139  0.6802 -0.8832 -1.0262
    7SAPS  H18Z  931   2.290   2.613   8.257  3.0015  1.5646 -3.2332
    8SAPS     N  932   5.678   3.362  11.020  0.0922  0.7977  0.2749
    8SAPS   HN1  933   5.731   3.416  11.090 -0.3071  1.9511 -0.2911
    8SAPS   HN2  934   5.744   3.338  10.943  0.3965  2.2259  0.0597
    8SAPS   HN3  935   5.615   3.433  10.978 -0.5498  0.5125  0.7366
    8SAPS   C12  936   5.605   3.252  11.086 -0.0913 -0.1270  0.3428
    8SAPS  H12A  937   5.589   3.175  11.011  2.9839 -0.3086 -0.2413
    8SAPS   C13  938   5.693   3.171  11.181 -0.0638  0.3469 -0.0200
    8SAPS  O13A  939   5.818   3.192  11.183 -0.0400 -0.1438  0.0733
    8SAPS  O13B  940   5.637   3.071  11.237 -0.0573  0.0225  0.2020
    8SAPS   C11  941   5.468   3.310  11.144 -0.1227  0.6379  0.2391
    8SAPS  H11A  942   5.502   3.381  11.222  2.2741 -2.1506  1.9608
    8SAPS  H11B  943   5.418   3.226  11.197  2.5087 -0.5342  1.0517
    8SAPS     P  944   5.249   3.313  11.010  0.1100 -0.0187  0.0684
    8SAPS   O13  945   5.252   3.167  11.029  0.7976 -0.0090  0.5541
    8SAPS   O14  946   5.166   3.393  11.102 -0.1830  0.3056 -0.2504
    8SAPS   O12  947   5.394   3.367  11.033  0.0587  0.1032  0.2005
    8SAPS   O11  948   5.225   3.359  10.860 -0.3881 -0.0617  0.1703
    8SAPS    C1  949   5.253   3.491  10.814 -0.1683 -0.5636 -0.0277
    8SAPS    HA  950   5.228   3.556  10.901 -3.5784  0.1317 -1.3808
    8SAPS    HB  951   5.361   3.500  10.791  0.5577 -3.6231  1.6264
    8SAPS    C2  952   5.173   3.537  10.692  0.3893  0.3263  0.3196
    8SAPS    HS  953   5.066   3.552  10.717  0.8147 -0.1166  2.6475
    8SAPS   O21  954   5.201   3.443  10.583 -0.4640 -0.3721 -0.2081
    8SAPS   C21  955   5.089   3.402  10.526 -0.0667 -0.5791  0.2029
    8SAPS   O22  956   4.979   3.422  10.565 -0.1447 -0.2160 -0.0379
    8SAPS   C22  957   5.138   3.331  10.401  0.1335 -0.1253  0.4103
    8SAPS   H2R  958   5.246   3.349  10.386  0.3175 -0.7652  0.9303
    8SAPS   H2S  959   5.114   3.224  10.416  0.4015 -0.0002  1.8695
    8SAPS    C3  960   5.219   3.671  10.634  0.4697  0.3502  0.7180
    8SAPS    HX  961   5.319   3.650  10.590  0.7237  0.4005  1.2694
    8SAPS    HY  962   5.223   3.747  10.714 -1.2868 -0.4389  1.6133
    8SAPS   O31  963   5.132   3.702  10.527 -0.2448 -0.4676 -0.5838
    8SAPS   C31  964   5.132   3.833  10.497  0.3020  0.4115  0.2241
    8SAPS   O32  965   5.191   3.925  10.548 -0.7059  0.4917  0.4144
    8SAPS   C32  966   5.043   3.842  10.378 -0.3930  1.6721 -0.8419
    8SAPS   H2X  967   4.935   3.831  10.403 -0.8641  1.0162 -2.9963
    8SAPS   H2Y  968   5.071   3.761  10.308 -1.6475 -0.4011  0.9228
    8SAPS   C23  969   5.070   3.382  10.277  0.1466  0.4836  0.4033
    8SAPS   H3R  970   5.118   3.478  10.247 -0.5142  0.6401 -0.1768
    8SAPS   H3S  971   4.964   3.404  10.302  0.5616  0.2268  2.5798
    8SAPS   C24  972   5.083   3.284  10.157  0.3439  0.2022  0.0415
    8SAPS   H4R  973   5.176   3.224  10.173  0.1061  0.4175  2.6045
    8SAPS   H4S  974   5.111   3.350  10.072  1.1894 -1.4104 -0.9937
    8SAPS   C25  975   4.967   3.191  10.136 -0.1761 -0.3428  0.1008
    8SAPS   H5R  976   4.914   3.159  10.227  0.0165 -2.2630 -0.4280
    8SAPS   C26  977   4.902   3.160  10.023 -0.8871 -0.4910 -0.2114
    8SAPS   H6R  978   4.825   3.081  10.024 -1.5909  0.1466 -1.0880
    8SAPS   C27  979   4.939   3.203   9.883 -0.7411 -0.2602  0.0954
    8SAPS   H7R  980   4.995   3.298   9.892 -2.7138  0.9373  0.1451
    8SAPS   H7S  981   4.843   3.226   9.832 -0.3705 -0.1388 -0.5540
    8SAPS   C28  982   5.015   3.092   9.807 -0.5741 -0.1923 -0.2854
    8SAPS   H8R  983   4.996   2.986   9.830  2.6671 -0.6609  0.7137
    8SAPS   C29  984   5.104   3.122   9.707  0.1720 -0.2979 -0.3655
    8SAPS   H9R  985   5.152   3.038   9.655  0.9530  0.0330 -0.1934
    8SAPS  C210  986   5.117   3.260   9.644  0.3119  0.0960 -0.3229
    8SAPS  H10R  987   5.213   3.267   9.589  0.0070 -0.4494 -0.9356
    8SAPS  H10S  988   5.129   3.331   9.728 -1.5738  0.2675 -0.1520
    8SAPS  C211  989   4.994   3.302   9.564  0.1499  0.8837  0.1284
    8SAPS  H11R  990   4.910   3.342   9.622  1.6271  2.9696  0.9738
    8SAPS  C212  991   4.984   3.309   9.433  1.0983  0.2194  0.3872
    8SAPS  H12R  992   4.884   3.326   9.390  0.8168 -2.6459 -0.2513
    8SAPS  C213  993   5.098   3.279   9.344  0.4950  0.0788  0.2770
    8SAPS  H13R  994   5.198   3.300   9.386  1.3450 -2.5115 -0.3153
    8SAPS  H13S  995   5.086   3.355   9.263  2.0465  1.7400  1.5101
    8SAPS  C214  996   5.101   3.138   9.303  0.0866  0.4200  0.1135
    8SAPS  H14R  997   5.048   3.074   9.376 -1.9585  2.3290  0.3856
    8SAPS  C215  998   5.155   3.096   9.189  0.0789 -0.2809  0.3745
    8SAPS  H15R  999   5.149   2.990   9.161 -0.3738 -0.0434 -0.4425
    8SAPS  C216 1000   5.235   3.172   9.088  0.1030 -0.4431  0.4501
    8SAPS  H16R 1001   5.320   3.119   9.040 -0.2995  0.6518 -1.6173
    8SAPS  H16S 1002   5.272   3.264   9.137 -0.6143 -0.0292  0.2357
    8SAPS  C217 1003   5.133   3.235   8.984  0.0129  0.1934  0.0635
    8SAPS  H17R 1004   5.196   3.313   8.937 -0.0445 -0.2902 -0.8351
    8SAPS  H17S 1005   5.051   3.289   9.036  0.0270  0.4997 -0.2290
    8SAPS  C218 1006   5.077   3.134   8.887  0.1851  0.4143  0.0764
    8SAPS  H18R 1007   5.005   3.186   8.820 -0.2381 -0.4804 -0.1770
    8SAPS  H18S 1008   5.016   3.064   8.948 -4.0137 -0.0082 -4.0695
    8SAPS  C219 1009   5.179   3.048   8.803  0.0527 -0.6066 -0.8263
    8SAPS  H19R 1010   5.110   2.998   8.732  0.7761  0.8116 -2.6141
    8SAPS  H19S 1011   5.232   2.978   8.871 -0.9385 -0.0144  0.6261
    8SAPS  C220 1012   5.270   3.132   8.715 -0.4787  0.3329  0.3928
    8SAPS  H20R 1013   5.338   3.184   8.785 -1.7021  1.9956  0.3939
    8SAPS  H20S 1014   5.222   3.216   8.660 -2.5344 -1.2182 -0.3487
    8SAPS  H20T 1015   5.323   3.057   8.653  2.4633  1.3981  1.4695
    8SAPS   C33 1016   5.061   3.977  10.312  0.0689  0.2876  0.4591
    8SAPS   H3X 1017   5.169   3.987  10.286 -0.3422 -1.7375 -2.5943
    8SAPS   H3Y 1018   5.035   4.053  10.388 -0.2400  0.2094  0.4337
    8SAPS   C34 1019   4.962   3.991  10.193  0.3983  0.4412 -0.0344
    8SAPS   H4X 1020   4.960   4.100  10.174 -0.3597 -0.0263 -3.0697
    8SAPS   H4Y 1021   4.865   3.942  10.214 -0.0463  1.6895  0.8912
    8SAPS   C35 1022   5.009   3.935  10.057 -0.2002  0.3587  0.9787
    8SAPS   H5X 1023   5.012   3.824  10.064 -2.5384  0.0838 -0.9857
    8SAPS   H5Y 1024   5.111   3.975  10.038 -0.4458  0.1225 -1.0732
    8SAPS   C36 1025   4.919   3.978   9.946 -0.2032 -0.8551 -0.0787
    8SAPS   H6X 1026   4.886   4.079   9.979  2.1870 -0.8957  2.9911
    8SAPS   H6Y 1027   4.830   3.912   9.951  0.1101 -1.5453 -2.5106
    8SAPS   C37 1028   4.974   3.963   9.800 -0.1081  0.2053 -0.0595
    8SAPS   H7X 1029   5.009   3.862   9.772  3.5048  1.3484 -0.2627
    8SAPS   H7Y 1030   5.065   4.026   9.786 -0.5542  0.6341 -1.0970
    8SAPS   C38 1031   4.870   4.003   9.694  0.3262  0.2328 -0.0550
    8SAPS   H8X 1032   4.829   4.101   9.728  0.7392  0.3508  0.1122
    8SAPS   H8Y 1033   4.798   3.920   9.686  0.7998 -0.1378 -0.5484
    8SAPS   C39 1034   4.921   4.024   9.552 -0.9834 -0.1731 -0.4167
    8SAPS   H9X 1035   4.982   3.940   9.514  0.8058 -0.8139  3.3598
    8SAPS   H9Y 1036   4.994   4.108   9.558  1.0432 -1.6367 -2.7781
    8SAPS  C310 1037   4.806   4.068   9.450  0.6856 -0.8047 -0.6334
    8SAPS  H10X 1038   4.746   4.136   9.514 -0.8057 -1.3858 -1.3621
    8SAPS  H10Y 1039   4.738   3.986   9.420  2.1451 -3.3320  2.4654
    8SAPS  C311 1040   4.857   4.137   9.322 -0.5353 -0.1438  0.2953
    8SAPS  H11X 1041   4.918   4.061   9.270 -1.7992 -1.2888  0.4146
    8SAPS  H11Y 1042   4.931   4.210   9.360  0.9165 -1.5988  0.3706
    8SAPS  C312 1043   4.755   4.195   9.216 -0.1986 -0.2083 -0.0847
    8SAPS  H12X 1044   4.694   4.278   9.259 -0.8247 -1.4442  1.5064
    8SAPS  H12Y 1045   4.682   4.121   9.178 -1.1034  1.3257 -1.4791
    8SAPS  C313 1046   4.834   4.235   9.091 -0.0660 -0.2004  0.2502
    8SAPS  H13X 1047   4.881   4.144   9.047 -0.6771 -0.1454 -0.5575
    8SAPS  H13Y 1048   4.908   4.305   9.133 -0.9713  1.0386 -0.1615
    8SAPS  C314 1049   4.752   4.297   8.973 -0.2149  0.3765  0.0551
    8SAPS  H14X 1050   4.714   4.396   9.007  1.2374  0.5402  1.3307
    8SAPS  H14Y 1051   4.675   4.217   8.970  1.3876 -1.3329  1.3751
    8SAPS  C315 1052   4.828   4.304   8.838  0.0579  0.2060  0.0462
    8SAPS  H15X 1053   4.815   4.205   8.789  0.3873  0.9532 -1.6296
    8SAPS  H15Y 1054   4.933   4.328   8.864 -0.0059 -1.1041  1.6558
    8SAPS  C316 1055   4.766   4.416   8.751 -0.1154 -0.2151 -0.5468
    8SAPS  H16X 1056   4.754   4.508   8.812 -2.1807 -1.3560  0.8909
    8SAPS  H16Y 1057   4.668   4.374   8.720  1.2387 -2.3745 -2.2132
    8SAPS  C317 1058   4.852   4.451   8.628  0.2878 -0.1931  0.5182
    8SAPS  H17X 1059   4.828   4.411   8.528 -0.2923  1.3595 -0.0063
    8SAPS  H17Y 1060   4.955   4.427   8.661  0.2013  1.1681  1.9312
    8SAPS  C318 1061   4.845   4.601   8.603  0.6020  0.0374 -0.1845
    8SAPS  H18X 1062   4.925   4.629   8.531 -1.7944  2.3507 -2.1686
    8SAPS  H18Y 1063   4.841   4.663   8.695  2.3538  0.2901 -0.2521
    8SAPS  H18Z 1064   4.747   4.621   8.553  0.9094  1.9870 -0.0874
    9SAPS     N 1065   0.277   6.274   5.954  0.2237 -0.0420  0.1367
    9SAPS   HN1 1066   0.214   6.329   6.016 -0.4690 -1.1753  0.4517
    9SAPS   HN2 1067   0.313   6.346   5.887 -1.0997 -0.5095 -1.1153
    9SAPS   HN3 1068   0.227   6.208   5.892  0.2080 -0.4958  0.6237
    9SAPS   C12 1069   0.384   6.208   6.030  0.8909 -0.4398 -0.0597
    9SAPS  H12A 1070   0.349   6.119   6.080  2.7574 -0.9989  0.3391
    9SAPS   C13 1071   0.500   6.157   5.941 -0.1055  0.3855  0.0531
    9SAPS  O13A 1072   0.502   6.164   5.813 -0.3492 -0.4289 -0.2257
    9SAPS  O13B 1073   0.594   6.124   6.013  0.0204  0.0998 -0.1247
    9SAPS   C11 1074   0.443   6.307   6.137  0.1567  0.0200  0.0396
    9SAPS  H11A 1075   0.481   6.399   6.086  0.4162  0.1814  0.5184
    9SAPS  H11B 1076   0.526   6.277   6.206  0.7514  3.0237  0.7547
    9SAPS     P 1077   0.362   6.468   6.323  0.2902  0.1492  0.2880
    9SAPS   O13 1078   0.495   6.528   6.307  0.0388  0.6090 -0.0741
    9SAPS   O14 1079   0.247   6.564   6.312 -0.3544  0.4246  0.6964
    9SAPS   O12 1080   0.338   6.343   6.226 -0.0635 -0.1748 -0.1651
    9SAPS   O11 1081   0.357   6.400   6.460 -0.1522  0.0443 -0.9132
    9SAPS    C1 1082   0.229   6.334   6.497 -0.2047  0.0726  0.1868
    9SAPS    HA 1083   0.145   6.405   6.480  0.5457  1.1343  0.8273
    9SAPS    HB 1084   0.207   6.244   6.435 -1.9347  0.7544 -0.2353
    9SAPS    C2 1085   0.226   6.305   6.651 -0.5596 -0.4438  0.5252
    9SAPS    HS 1086   0.123   6.274   6.677 -1.3631 -0.0277 -1.8945
    9SAPS   O21 1087   0.266   6.420   6.724 -0.0017  0.2467  0.1641
    9SAPS   C21 1088   0.173   6.513   6.732  0.4802  0.9018 -0.0997
    9SAPS   O22 1089   0.058   6.510   6.691 -0.7150  0.4098  0.2579
    9SAPS   C22 1090   0.230   6.622   6.814  1.0812 -0.5117  0.0631
    9SAPS   H2R 1091   0.144   6.686   6.844  0.7429 -0.4071 -1.0946
    9SAPS   H2S 1092   0.281   6.592   6.909 -0.9182 -0.5721  1.1739
    9SAPS    C3 1093   0.317   6.188   6.676  0.2984 -0.7106  0.1542
    9SAPS    HX 1094   0.421   6.219   6.650 -0.5341  2.1563 -0.0818
    9SAPS    HY 1095   0.284   6.103   6.613  0.0129 -1.7691  1.6820
    9SAPS   O31 1096   0.319   6.146   6.812  0.6125  0.4307 -0.8460
    9SAPS   C31 1097   0.411   6.044   6.827  0.2623 -1.0267 -0.1968
    9SAPS   O32 1098   0.485   6.003   6.738 -0.6104  0.0271  0.2952
    9SAPS   C32 1099   0.410   6.006   6.980  0.4309  0.1695  0.3143
    9SAPS   H2X 1100   0.309   6.033   7.018  1.1831  1.1863  1.6915
    9SAPS   H2Y 1101   0.480   6.075   7.032  0.3339 -1.7886  3.2837
    9SAPS   C23 1102   0.325   6.706   6.727 -0.5680  0.1461 -0.1247
    9SAPS   H3R 1103   0.288   6.730   6.625  0.4880 -1.0794 -0.8304
    9SAPS   H3S 1104   0.406   6.635   6.700 -1.2051 -0.4902 -0.3755
    9SAPS   C24 1105   0.379   6.823   6.815  1.0540  0.1566  0.4428
    9SAPS   H4R 1106   0.467   6.866   6.764  1.2048 -2.6516 -1.9303
    9SAPS   H4S 1107   0.414   6.772   6.907 -1.4578 -2.6787  0.0039
    9SAPS   C25 1108   0.277   6.931   6.846  1.0774 -0.2240 -0.6625
    9SAPS   H5R 1109   0.243   6.982   6.754  2.4340  0.7650 -0.6380
    9SAPS   C26 1110   0.213   6.953   6.967 -0.2998 -0.3714  0.3775
    9SAPS   H6R 1111   0.146   7.039   6.978 -0.4870 -0.4394 -0.1890
    9SAPS   C27 1112   0.236   6.880   7.097  0.8608  0.2347 -0.2258
    9SAPS   H7R 1113   0.261   6.950   7.180  0.2337 -0.1448  0.2959
    9SAPS   H7S 1114   0.323   6.812   7.083  2.8244  2.5415  0.1055
    9SAPS   C28 1115   0.114   6.794   7.133 -0.2476  0.2383  0.0601
    9SAPS   H8R 1116   0.101   6.710   7.064 -1.2974  0.2864  0.1896
    9SAPS   C29 1117   0.031   6.784   7.239  0.2286  0.4321 -0.0609
    9SAPS   H9R 1118  -0.042   6.702   7.236  0.6404  0.0819 -2.6743
    9SAPS  C210 1119   0.035   6.879   7.352 -0.1916  0.2164 -0.3840
    9SAPS  H10R 1120  -0.037   6.964   7.340 -0.8060 -0.6021 -3.5472
    9SAPS  H10S 1121   0.137   6.921   7.338  0.5436 -1.9611 -2.1570
    9SAPS  C211 1122   0.013   6.809   7.483  0.6659  0.8547  0.3312
    9SAPS  H11R 1123  -0.086   6.765   7.501  0.9795  0.9630  2.6075
    9SAPS  C212 1124   0.108   6.804   7.579  0.3200  0.5882 -0.3236
    9SAPS  H12R 1125   0.081   6.743   7.666 -0.8391  2.9459  1.0672
    9SAPS  C213 1126   0.252   6.858   7.581  0.4251  0.3039 -0.2332
    9SAPS  H13R 1127   0.249   6.923   7.672 -2.3080 -2.2242  1.6556
    9SAPS  H13S 1128   0.285   6.923   7.497  3.0595 -1.1319 -0.3967
    9SAPS  C214 1129   0.362   6.750   7.587  0.4501 -0.3757 -0.5668
    9SAPS  H14R 1130   0.424   6.746   7.497 -2.2988 -0.1354 -2.6080
    9SAPS  C215 1131   0.394   6.680   7.703 -0.1571 -0.6165  0.0492
    9SAPS  H15R 1132   0.481   6.614   7.696 -0.0979 -0.4252 -1.2562
    9SAPS  C216 1133   0.329   6.681   7.836  0.2812 -0.0378  0.5120
    9SAPS  H16R 1134   0.262   6.593   7.843 -2.3638  1.7770 -0.4609
    9SAPS  H16S 1135   0.255   6.758   7.867 -0.0415 -0.2834  0.3613
    9SAPS  C217 1136   0.429   6.674   7.950 -0.4503  0.6535 -0.8695
    9SAPS  H17R 1137   0.501   6.593   7.928 -0.5813  0.2395  0.1300
    9SAPS  H17S 1138   0.373   6.656   8.045 -1.1740  0.1448 -1.3811
    9SAPS  C218 1139   0.503   6.812   7.967 -0.7081 -0.0920  0.0934
    9SAPS  H18R 1140   0.425   6.884   7.999 -1.1084 -0.0284 -1.0048
    9SAPS  H18S 1141   0.543   6.831   7.865  1.0946 -0.1255  0.7499
    9SAPS  C219 1142   0.609   6.816   8.078  0.3531  0.1700  0.0465
    9SAPS  H19R 1143   0.646   6.921   8.085  3.2665 -0.6722 -1.3735
    9SAPS  H19S 1144   0.689   6.750   8.039 -2.3368 -1.1968 -3.8033
    9SAPS  C220 1145   0.554   6.777   8.216  0.6811  0.4861  0.0984
    9SAPS  H20R 1146   0.636   6.769   8.290  0.0428  1.4461  0.9397
    9SAPS  H20S 1147   0.500   6.680   8.216 -0.8466  1.1588  4.1714
    9SAPS  H20T 1148   0.482   6.855   8.251  1.9214  1.0439  1.5014
    9SAPS   C33 1149   0.449   5.859   7.008  0.4972  0.4161 -0.4987
    9SAPS   H3X 1150   0.549   5.836   6.965  2.1322  3.6284  1.2342
    9SAPS   H3Y 1151   0.375   5.777   6.998 -1.1087  1.6310  1.0206
    9SAPS   C34 1152   0.482   5.853   7.158 -0.6894  0.0263  0.6309
    9SAPS   H4X 1153   0.549   5.940   7.176  2.3011 -2.0173  0.1010
    9SAPS   H4Y 1154   0.539   5.759   7.169 -0.3302  0.1071 -0.3748
    9SAPS   C35 1155   0.358   5.847   7.247  0.2560  0.3911  0.7886
    9SAPS   H5X 1156   0.320   5.743   7.250  0.1132  0.4587  2.2940
    9SAPS   H5Y 1157   0.279   5.915   7.209 -2.2238 -2.9114 -0.3959
    9SAPS   C36 1158   0.392   5.899   7.390  0.2109  0.0602  0.3822
    9SAPS   H6X 1159   0.295   5.896   7.443  0.5926  0.4315  1.1208
    9SAPS   H6Y 1160   0.434   6.002   7.382 -1.1579  0.6625  0.7670
    9SAPS   C37 1161   0.491   5.816   7.467 -1.1673  0.2433 -0.5773
    9SAPS   H7X 1162   0.588   5.805   7.414 -2.4088 -1.7009 -2.6700
    9SAPS   H7Y 1163   0.453   5.711   7.471  1.8364 -0.8815  2.5315
    9SAPS   C38 1164   0.504   5.858   7.611 -0.7709 -0.6124  0.5097
    9SAPS   H8X 1165   0.408   5.852   7.666 -0.6093 -1.5487  0.7036
    9SAPS   H8Y 1166   0.531   5.964   7.632 -0.4475 -0.9560  1.9846
    9SAPS   C39 1167   0.607   5.778   7.693  0.4432 -0.3441 -0.1609
    9SAPS   H9X 1168   0.710   5.791   7.654 -0.3122 -0.6178 -2.3916
    9SAPS   H9Y 1169   0.572   5.673   7.688 -1.5129  0.2065  0.9355
    9SAPS  C310 1170   0.615   5.826   7.839  0.1941 -0.2085  0.5160
    9SAPS  H10X 1171   0.601   5.935   7.854 -0.7291 -0.1529 -0.5628
    9SAPS  H10Y 1172   0.702   5.784   7.893 -0.5898  1.1863  3.0063
    9SAPS  C311 1173   0.504   5.754   7.933 -0.0891  1.0896 -0.1754
    9SAPS  H11X 1174   0.510   5.646   7.906  1.4110  0.6286  1.7596
    9SAPS  H11Y 1175   0.399   5.782   7.910 -0.5520  0.4262  1.0052
    9SAPS  C312 1176   0.529   5.782   8.085  0.3084  0.0877  0.2538
    9SAPS  H12X 1177   0.522   5.892   8.102  0.8399  0.0339  0.8463
    9SAPS  H12Y 1178   0.625   5.741   8.121  0.9760  0.1439 -1.3795
    9SAPS  C313 1179   0.421   5.714   8.171 -0.4408  0.2214  0.4883
    9SAPS  H13X 1180   0.424   5.603   8.158 -1.6911  0.3904 -1.7719
    9SAPS  H13Y 1181   0.320   5.732   8.128 -0.2923 -2.1377 -1.0440
    9SAPS  C314 1182   0.434   5.741   8.327  0.2390 -0.1021  0.4017
    9SAPS  H14X 1183   0.409   5.848   8.341 -2.7664 -0.9619  2.6307
    9SAPS  H14Y 1184   0.537   5.727   8.367  0.0369 -0.7525  0.7112
    9SAPS  C315 1185   0.332   5.654   8.398  0.2575  0.1195  0.6587
    9SAPS  H15X 1186   0.246   5.657   8.328  0.2583 -0.3304  0.6372
    9SAPS  H15Y 1187   0.304   5.699   8.495 -1.3673 -2.4329  1.4574
    9SAPS  C316 1188   0.381   5.512   8.410  0.7112  0.2846 -0.2262
    9SAPS  H16X 1189   0.457   5.510   8.490 -1.1191 -0.8478  1.6057
    9SAPS  H16Y 1190   0.427   5.475   8.315  0.8802  1.6584 -0.7031
    9SAPS  C317 1191   0.260   5.420   8.449  0.2475 -0.2483 -0.3446
    9SAPS  H17X 1192   0.174   5.422   8.379 -0.5105 -1.0940  0.5211
    9SAPS  H17Y 1193   0.211   5.448   8.545  0.6213  1.0117 -0.5043
    9SAPS  C318 1194   0.302   5.271   8.465 -0.1089 -0.7201 -0.4675
    9SAPS  H18X 1195   0.372   5.257   8.550  2.6636 -1.2651 -2.7054
    9SAPS  H18Y 1196   0.346   5.230   8.372 -0.9818  0.1022 -1.2706
    9SAPS  H18Z 1197   0.210   5.211   8.485  0.2882 -0.8107  1.2225
   10SAPS     N 1198   0.016   5.046   6.517  0.2642  0.1634  0.7045
   10SAPS   HN1 1199  -0.022   5.140   6.540 -0.7316  0.0377 -0.3217
   10SAPS   HN2 1200  -0.071   4.991   6.524 -0.1272  0.3932 -1.4761
   10SAPS   HN3 1201   0.081   5.021   6.594  0.6669  2.4820  1.2014
   10SAPS   C12 1202   0.056   5.056   6.373 -0.4854  0.6287 -0.5923
   10SAPS  H12A 1203   0.071   4.953   6.344  0.9211  0.4938  0.4813
   10SAPS   C13 1204  -0.047   5.112   6.274 -0.9000  0.3045  0.3207
   10SAPS  O13A 1205  -0.147   5.176   6.313  0.1689 -0.1743  0.0771
   10SAPS  O13B 1206  -0.009   5.113   6.153 -0.0363 -0.0031 -0.3465
   10SAPS   C11 1207   0.186   5.142   6.363  0.2820  0.3425 -0.0073
   10SAPS  H11A 1208   0.157   5.236   6.415  0.7238  1.0596 -1.0213
   10SAPS  H11B 1209   0.210   5.173   6.259  3.4604 -2.3849 -0.2549
   10SAPS     P 1210   0.392   4.979   6.354 -0.5765  0.2384  0.5036
   10SAPS   O13 1211   0.322   4.850   6.339 -0.5294  0.0009  0.0671
   10SAPS   O14 1212   0.428   5.039   6.225 -0.4533 -1.3637 -0.3632
   10SAPS   O12 1213   0.303   5.086   6.433 -0.0390 -0.3339  0.8927
   10SAPS   O11 1214   0.515   4.953   6.435  0.2348  0.9483  0.0175
   10SAPS    C1 1215   0.599   5.056   6.491 -0.4427  0.4300  0.1272
   10SAPS    HA 1216   0.705   5.025   6.494 -0.6618 -0.5698 -1.4046
   10SAPS    HB 1217   0.590   5.150   6.433 -1.1902  1.0518  1.2039
   10SAPS    C2 1218   0.560   5.083   6.643  0.1145 -0.3302  0.0016
   10SAPS    HS 1219   0.644   5.089   6.716 -1.7990  0.0411  2.2837
   10SAPS   O21 1220   0.465   4.985   6.690  0.2086  0.0078 -0.0082
   10SAPS   C21 1221   0.513   4.862   6.704  0.6433  0.3042  0.1286
   10SAPS   O22 1222   0.633   4.837   6.713  0.2511 -0.6446  0.7820
   10SAPS   C22 1223   0.403   4.757   6.728 -0.5765 -0.5298  0.0538
   10SAPS   H2R 1224   0.346   4.769   6.823 -2.9565 -1.8662 -1.1269
   10SAPS   H2S 1225   0.341   4.759   6.636  0.2752 -1.1006 -0.5421
   10SAPS    C3 1226   0.494   5.222   6.649 -0.0347 -0.3305 -0.5435
   10SAPS    HX 1227   0.399   5.220   6.591  1.7462  1.1886 -3.7572
   10SAPS    HY 1228   0.555   5.302   6.601 -0.0060  0.7413  1.2035
   10SAPS   O31 1229   0.452   5.262   6.785  0.1919 -0.3657 -0.1195
   10SAPS   C31 1230   0.534   5.323   6.859  0.0860 -0.2742 -0.4639
   10SAPS   O32 1231   0.641   5.371   6.826  0.6656  0.3450  1.1421
   10SAPS   C32 1232   0.474   5.331   7.001  0.2359  0.0002 -0.1701
   10SAPS   H2X 1233   0.399   5.251   7.017 -0.9139  1.2492  1.0194
   10SAPS   H2Y 1234   0.413   5.422   7.023 -0.5282  0.0322 -2.2106
   10SAPS   C23 1235   0.454   4.608   6.739 -0.1934 -0.4091  0.6808
   10SAPS   H3R 1236   0.525   4.581   6.658 -0.3597  0.0326  0.3820
   10SAPS   H3S 1237   0.368   4.541   6.721  0.7759 -1.5105  0.0237
   10SAPS   C24 1238   0.523   4.584   6.875 -0.8639  0.4055  0.1105
   10SAPS   H4R 1239   0.450   4.605   6.956 -1.9077  0.6929 -0.8796
   10SAPS   H4S 1240   0.598   4.665   6.885 -1.9524  1.5355 -0.6662
   10SAPS   C25 1241   0.585   4.446   6.896  1.0051  0.6931 -0.3819
   10SAPS   H5R 1242   0.526   4.371   6.841 -2.0548  2.7209 -0.1433
   10SAPS   C26 1243   0.694   4.409   6.967 -0.2539 -0.1395 -0.2945
   10SAPS   H6R 1244   0.726   4.304   6.973 -0.0918  0.0016  2.8609
   10SAPS   C27 1245   0.783   4.508   7.042 -0.4044  0.4389 -0.2827
   10SAPS   H7R 1246   0.729   4.596   7.082 -1.5069  0.3503 -1.5096
   10SAPS   H7S 1247   0.853   4.558   6.971  1.1547  2.1359  2.2984
   10SAPS   C28 1248   0.868   4.433   7.141  0.2261 -0.0587 -0.1569
   10SAPS   H8R 1249   0.952   4.383   7.091  0.3379 -0.5563  0.5197
   10SAPS   C29 1250   0.860   4.404   7.269 -0.6709 -0.2098  0.1151
   10SAPS   H9R 1251   0.938   4.350   7.325 -0.5956 -0.1070  0.1107
   10SAPS  C210 1252   0.751   4.450   7.354  0.2020 -0.4141 -0.0204
   10SAPS  H10R 1253   0.707   4.365   7.410  1.2100 -1.2491 -0.4625
   10SAPS  H10S 1254   0.662   4.475   7.292  0.2504 -0.5034 -0.1276
   10SAPS  C211 1255   0.796   4.570   7.439  0.5753 -0.0548  0.5025
   10SAPS  H11R 1256   0.863   4.634   7.380  0.7423 -1.3320 -0.7327
   10SAPS  C212 1257   0.763   4.598   7.564  0.5098  0.5039 -0.4620
   10SAPS  H12R 1258   0.811   4.692   7.595  4.4839 -0.3440 -3.2894
   10SAPS  C213 1259   0.678   4.521   7.657 -0.6048  0.4476 -0.0099
   10SAPS  H13R 1260   0.647   4.423   7.614  0.1345  0.5317 -0.7567
   10SAPS  H13S 1261   0.580   4.573   7.664 -1.3557 -1.1570  2.9126
   10SAPS  C214 1262   0.726   4.514   7.795  0.1945  0.3652 -0.0096
   10SAPS  H14R 1263   0.785   4.603   7.822  0.3911  0.0230  0.7347
   10SAPS  C215 1264   0.691   4.425   7.889  0.4768  0.2511  0.4950
   10SAPS  H15R 1265   0.726   4.442   7.992 -0.9836 -0.3308  1.1207
   10SAPS  C216 1266   0.593   4.306   7.880 -0.4726  0.0182  0.1871
   10SAPS  H16R 1267   0.644   4.208   7.890 -0.7727 -0.0325  1.3983
   10SAPS  H16S 1268   0.546   4.322   7.781  2.0731  0.7910 -0.9924
   10SAPS  C217 1269   0.488   4.307   7.994  0.3062 -0.1237  0.2299
   10SAPS  H17R 1270   0.415   4.230   7.962 -0.1934  0.8411 -1.0266
   10SAPS  H17S 1271   0.429   4.400   7.985  0.5455  0.0911  0.8508
   10SAPS  C218 1272   0.529   4.288   8.137 -0.4753 -0.3301 -0.2012
   10SAPS  H18R 1273   0.587   4.371   8.182 -2.6336  0.1718  1.8114
   10SAPS  H18S 1274   0.584   4.194   8.159  0.2769  0.8553  3.5587
   10SAPS  C219 1275   0.403   4.262   8.226 -0.2774 -1.1129  0.7033
   10SAPS  H19R 1276   0.427   4.209   8.320  0.5623 -0.7045  0.7277
   10SAPS  H19S 1277   0.339   4.197   8.162  1.2598 -1.8388 -0.1528
   10SAPS  C220 1278   0.332   4.397   8.270 -0.0104  0.6094 -0.1571
   10SAPS  H20R 1279   0.409   4.477   8.276 -0.1616  0.6888  0.9515
   10SAPS  H20S 1280   0.291   4.395   8.373  0.5779  0.7083  0.0848
   10SAPS  H20T 1281   0.241   4.418   8.210  0.6012  2.9775 -0.3779
   10SAPS   C33 1282   0.586   5.335   7.104 -0.2888 -0.3161  0.3453
   10SAPS   H3X 1283   0.664   5.407   7.071 -0.7843 -0.5499 -1.4983
   10SAPS   H3Y 1284   0.641   5.239   7.106  1.3112  0.5365 -0.5169
   10SAPS   C34 1285   0.524   5.369   7.245  0.1884  0.0917 -0.0965
   10SAPS   H4X 1286   0.440   5.300   7.265 -0.5406  1.2675  1.0281
   10SAPS   H4Y 1287   0.469   5.465   7.248  1.2651  0.7115  2.9666
   10SAPS   C35 1288   0.630   5.368   7.353  0.1872 -0.5016 -0.9388
   10SAPS   H5X 1289   0.721   5.428   7.329 -1.9753  2.7549 -1.7667
   10SAPS   H5Y 1290   0.666   5.263   7.354  0.0641 -0.5468 -1.1488
   10SAPS   C36 1291   0.576   5.411   7.486  0.4312 -0.1908 -0.0507
   10SAPS   H6X 1292   0.482   5.356   7.505  1.8720 -2.2553  1.5846
   10SAPS   H6Y 1293   0.560   5.521   7.482  0.0224 -0.2854 -1.7860
   10SAPS   C37 1294   0.670   5.375   7.609  0.0407  0.0694  0.1862
   10SAPS   H7X 1295   0.755   5.446   7.620  0.5306 -0.5417  0.3718
   10SAPS   H7Y 1296   0.710   5.273   7.592  1.7361  0.8976 -1.0999
   10SAPS   C38 1297   0.594   5.380   7.744  0.1431 -0.0511 -0.2593
   10SAPS   H8X 1298   0.524   5.293   7.742  0.5340 -0.3623 -0.9294
   10SAPS   H8Y 1299   0.530   5.467   7.767 -0.2030 -0.5999  0.9257
   10SAPS   C39 1300   0.692   5.346   7.853  0.1162  0.4532 -0.2479
   10SAPS   H9X 1301   0.761   5.432   7.871 -1.8897  2.0639  0.0209
   10SAPS   H9Y 1302   0.757   5.262   7.820  0.2476  0.9807 -1.3457
   10SAPS  C310 1303   0.616   5.313   7.988 -0.1740 -0.5234 -0.2073
   10SAPS  H10X 1304   0.536   5.237   7.974 -1.0419  0.6102 -1.7466
   10SAPS  H10Y 1305   0.569   5.407   8.024 -0.6740 -0.4511 -1.0242
   10SAPS  C311 1306   0.713   5.255   8.092  0.5371 -0.4031  0.3455
   10SAPS  H11X 1307   0.771   5.171   8.049  0.9617 -0.8060  1.6633
   10SAPS  H11Y 1308   0.646   5.221   8.174 -0.2941 -0.5737 -0.3844
   10SAPS  C312 1309   0.811   5.356   8.167  0.2646  0.0900  0.7459
   10SAPS  H12X 1310   0.757   5.453   8.165 -2.4576 -1.3372 -0.1344
   10SAPS  H12Y 1311   0.899   5.351   8.099  0.0078  1.8389  0.2371
   10SAPS  C313 1312   0.833   5.323   8.313  0.6000 -0.2289 -0.5029
   10SAPS  H13X 1313   0.732   5.313   8.360  0.4465  1.0411 -0.5175
   10SAPS  H13Y 1314   0.861   5.417   8.366 -1.2745  0.0441  0.0841
   10SAPS  C314 1315   0.933   5.209   8.338  0.7501  0.2095  0.6580
   10SAPS  H14X 1316   1.037   5.247   8.351  0.4574  1.0386  0.6231
   10SAPS  H14Y 1317   0.930   5.127   8.263 -1.8520  0.3914  0.4598
   10SAPS  C315 1318   0.905   5.142   8.475 -0.5905 -0.3518 -0.6618
   10SAPS  H15X 1319   0.805   5.096   8.462 -1.3852  1.6953 -2.2353
   10SAPS  H15Y 1320   0.906   5.217   8.557 -2.4402 -0.0157 -0.9003
   10SAPS  C316 1321   1.014   5.039   8.512  0.2270  0.6255  0.8732
   10SAPS  H16X 1322   1.105   5.102   8.518  0.5420  0.1173  1.5016
   10SAPS  H16Y 1323   1.020   4.975   8.421  0.1147  3.2003 -1.0708
   10SAPS  C317 1324   1.001   4.961   8.648  0.5503 -0.5177  0.7312
   10SAPS  H17X 1325   0.972   5.029   8.731 -1.7694  1.6017 -1.6528
   10SAPS  H17Y 1326   1.101   4.919   8.673  0.1429 -1.3327  1.0334
   10SAPS  C318 1327   0.891   4.852   8.646 -0.4909 -0.1574 -0.4202
   10SAPS  H18X 1328   0.798   4.905   8.679 -0.3248 -0.6025  0.8270
   10SAPS  H18Y 1329   0.919   4.770   8.715  0.4874  0.3996 -0.1446
   10SAPS  H18Z 1330   0.884   4.811   8.543  1.9291  2.9596 -1.9849
   11SAPS     N 1331   2.615   2.135   5.944 -0.7457  0.1986 -0.3204
   11SAPS   HN1 1332   2.691   2.203   5.923  1.5917 -2.6100 -1.7531
   11SAPS   HN2 1333   2.641   2.035   5.926 -0.2723  0.5860 -1.9219
   11SAPS   HN3 1334   2.527   2.165   5.898 -0.5300  2.4100  0.5883
   11SAPS   C12 1335   2.582   2.149   6.092  0.3600 -0.1603 -0.1917
   11SAPS  H12A 1336   2.680   2.142   6.139  0.2193  1.8043  0.4997
   11SAPS   C13 1337   2.510   2.280   6.139  0.4471  0.6050  0.0423
   11SAPS  O13A 1338   2.475   2.366   6.054  0.3092  0.6747 -0.1372
   11SAPS  O13B 1339   2.489   2.283   6.261  0.3774 -0.0047 -0.4379
   11SAPS   C11 1340   2.509   2.023   6.131  0.1817  0.5809 -0.2354
   11SAPS  H11A 1341   2.503   2.015   6.241 -1.7684 -0.5083 -0.3874
   11SAPS  H11B 1342   2.566   1.933   6.099  1.2489  0.6750  1.2584
   11SAPS     P 1343   2.274   1.903   6.084  0.2877  0.0300  0.3337
   11SAPS   O13 1344   2.143   1.918   6.011 -0.1992 -0.3321  0.0649
   11SAPS   O14 1345   2.350   1.777   6.049  0.4860 -0.2179 -0.0657
   11SAPS   O12 1346   2.380   2.021   6.069 -0.2936 -0.2920  0.1037
   11SAPS   O11 1347   2.255   1.907   6.241  0.7508 -0.5601 -0.5622
   11SAPS    C1 1348   2.231   1.790   6.326 -0.5833 -0.9468  0.1738
   11SAPS    HA 1349   2.135   1.802   6.382 -2.3058 -1.0376 -2.5612
   11SAPS    HB 1350   2.215   1.697   6.268  0.7027  0.0528 -1.9012
   11SAPS    C2 1351   2.349   1.766   6.430 -0.1262 -0.2153 -0.1690
   11SAPS    HS 1352   2.323   1.677   6.491 -0.3092  0.1158  0.2351
   11SAPS   O21 1353   2.379   1.875   6.516 -0.4067 -0.6343 -0.2634
   11SAPS   C21 1354   2.283   1.917   6.600  0.6619  0.1841  0.8130
   11SAPS   O22 1355   2.176   1.858   6.614 -0.9123 -0.2090 -0.2146
   11SAPS   C22 1356   2.314   2.053   6.658  0.2262 -0.7494  0.2218
   11SAPS   H2R 1357   2.406   2.095   6.612 -0.3692  1.4284  0.8931
   11SAPS   H2S 1358   2.231   2.113   6.613  1.1905 -0.2509 -0.9579
   11SAPS    C3 1359   2.478   1.724   6.356  0.3693  0.3010 -0.2086
   11SAPS    HX 1360   2.527   1.808   6.303 -0.0984  0.9661  0.4007
   11SAPS    HY 1361   2.460   1.643   6.281  0.7405  1.2117 -1.3136
   11SAPS   O31 1362   2.577   1.688   6.455 -0.0849  0.5044 -0.6141
   11SAPS   C31 1363   2.580   1.558   6.496 -0.1251 -0.4370  0.8511
   11SAPS   O32 1364   2.508   1.473   6.452  0.4914  0.6766 -0.2278
   11SAPS   C32 1365   2.654   1.524   6.631  0.1337 -0.0090 -0.6166
   11SAPS   H2X 1366   2.763   1.525   6.609  0.3355  2.1945  0.2350
   11SAPS   H2Y 1367   2.627   1.424   6.672  2.2854  1.1033  4.2555
   11SAPS   C23 1368   2.320   2.048   6.813  0.0958  0.7869 -0.0704
   11SAPS   H3R 1369   2.246   1.975   6.853  2.4097 -1.2105  0.8095
   11SAPS   H3S 1370   2.293   2.146   6.857 -1.4841  0.6317 -0.5963
   11SAPS   C24 1371   2.465   2.017   6.870  1.0344 -0.0644 -0.1057
   11SAPS   H4R 1372   2.485   1.908   6.867  0.5857 -0.1529  0.0479
   11SAPS   H4S 1373   2.452   2.050   6.976 -0.0757  0.4337 -0.3839
   11SAPS   C25 1374   2.574   2.099   6.803  0.0791 -0.7568  0.2441
   11SAPS   H5R 1375   2.589   2.074   6.696 -1.0211 -0.9931  0.1233
   11SAPS   C26 1376   2.660   2.186   6.862  0.3597  0.3130  0.2642
   11SAPS   H6R 1377   2.722   2.249   6.796 -0.0655  2.4276  1.7712
   11SAPS   C27 1378   2.655   2.227   7.006  0.1833  0.4145 -0.0323
   11SAPS   H7R 1379   2.750   2.183   7.043  0.3338 -0.9958 -1.9650
   11SAPS   H7S 1380   2.571   2.190   7.069  0.2193 -0.8596 -0.7031
   11SAPS   C28 1381   2.656   2.381   7.003  0.5064 -0.1436 -0.3163
   11SAPS   H8R 1382   2.723   2.412   6.922  0.2986 -2.8041 -1.6280
   11SAPS   C29 1383   2.600   2.466   7.091 -0.4274 -0.1639  0.3522
   11SAPS   H9R 1384   2.610   2.572   7.064  1.0357 -0.4725 -0.4391
   11SAPS  C210 1385   2.517   2.434   7.214 -0.3003  0.9464 -0.1333
   11SAPS  H10R 1386   2.581   2.462   7.300 -0.0650  0.7203 -0.2350
   11SAPS  H10S 1387   2.500   2.326   7.232 -2.0339  1.4569  1.6522
   11SAPS  C211 1388   2.392   2.519   7.217  0.6193  0.0987 -0.0384
   11SAPS  H11R 1389   2.329   2.520   7.126  0.6054 -0.9110 -0.0495
   11SAPS  C212 1390   2.352   2.604   7.317 -0.3396  0.3212 -0.6353
   11SAPS  H12R 1391   2.258   2.661   7.314  0.3066  1.4676  0.1065
   11SAPS  C213 1392   2.427   2.623   7.454 -0.3200  0.3813  0.0332
   11SAPS  H13R 1393   2.457   2.529   7.504 -0.7709  0.8820  1.2919
   11SAPS  H13S 1394   2.369   2.671   7.536 -0.2283  0.8254 -0.1605
   11SAPS  C214 1395   2.559   2.694   7.445 -0.3160  0.2019 -0.1096
   11SAPS  H14R 1396   2.660   2.649   7.441 -0.7085 -1.0834  2.4789
   11SAPS  C215 1397   2.559   2.830   7.439  0.4756 -0.4036 -0.8212
   11SAPS  H15R 1398   2.659   2.874   7.451  1.3680 -2.5164  0.1590
   11SAPS  C216 1399   2.445   2.927   7.443  0.2983 -0.0079  0.5731
   11SAPS  H16R 1400   2.341   2.889   7.437 -0.1129  1.1186  0.3343
   11SAPS  H16S 1401   2.454   2.997   7.357 -1.9299 -0.1840  0.1328
   11SAPS  C217 1402   2.456   3.001   7.581 -0.9173 -0.1033 -0.4729
   11SAPS  H17R 1403   2.404   3.098   7.567  1.2191  0.9648 -1.4739
   11SAPS  H17S 1404   2.559   3.037   7.601 -1.0285  1.0783 -1.8853
   11SAPS  C218 1405   2.405   2.915   7.699 -0.3267 -0.5292  1.0654
   11SAPS  H18R 1406   2.445   2.811   7.708 -2.2025 -1.2302  1.6340
   11SAPS  H18S 1407   2.295   2.908   7.691 -0.4119 -0.4446  2.0313
   11SAPS  C219 1408   2.438   2.990   7.828 -0.1174  0.3252 -0.3459
   11SAPS  H19R 1409   2.418   3.098   7.809  2.7477  0.6576 -1.8908
   11SAPS  H19S 1410   2.546   2.985   7.853  0.3192 -1.0308 -2.2954
   11SAPS  C220 1411   2.345   2.936   7.936  0.1478 -0.8032 -0.2330
   11SAPS  H20R 1412   2.355   2.992   8.032 -1.9052 -0.6959 -0.0200
   11SAPS  H20S 1413   2.353   2.826   7.947 -1.0119 -0.7538  1.6399
   11SAPS  H20T 1414   2.240   2.948   7.900  0.1595  3.4045  0.6304
   11SAPS   C33 1415   2.612   1.630   6.734  0.3689  0.3001  0.4373
   11SAPS   H3X 1416   2.501   1.634   6.743  0.3791 -0.3861  0.9032
   11SAPS   H3Y 1417   2.641   1.726   6.686  0.1896  0.1746  0.0702
   11SAPS   C34 1418   2.671   1.611   6.872  0.3746  0.0290 -0.2347
   11SAPS   H4X 1419   2.782   1.604   6.869  0.6192 -0.0123  3.4504
   11SAPS   H4Y 1420   2.647   1.516   6.924  3.0142 -0.2338  0.6982
   11SAPS   C35 1421   2.653   1.742   6.954 -0.0606  0.1652  0.3623
   11SAPS   H5X 1422   2.543   1.756   6.967 -0.1984 -0.3442 -0.1963
   11SAPS   H5Y 1423   2.686   1.829   6.894 -0.4729  0.5185  0.6357
   11SAPS   C36 1424   2.736   1.735   7.080  0.2111 -0.1393  0.1107
   11SAPS   H6X 1425   2.845   1.721   7.062 -0.6273 -1.8482 -5.4235
   11SAPS   H6Y 1426   2.707   1.653   7.149  0.5521 -0.4820 -0.1471
   11SAPS   C37 1427   2.747   1.870   7.161 -0.3093  0.5043  0.0056
   11SAPS   H7X 1428   2.647   1.916   7.177 -0.7955  0.2152 -1.9624
   11SAPS   H7Y 1429   2.809   1.937   7.098  0.2578  0.6702  0.7219
   11SAPS   C38 1430   2.820   1.850   7.292  0.2609  1.0642  0.2273
   11SAPS   H8X 1431   2.920   1.811   7.262 -1.7635 -4.3313 -0.4390
   11SAPS   H8Y 1432   2.764   1.781   7.359  0.0042  0.9901 -0.0630
   11SAPS   C39 1433   2.840   1.978   7.371  0.3370 -0.1698 -0.4396
   11SAPS   H9X 1434   2.741   2.010   7.411  0.5311  2.2356 -1.6950
   11SAPS   H9Y 1435   2.876   2.067   7.314 -1.1755 -0.2431 -1.5645
   11SAPS  C310 1436   2.941   1.968   7.493 -0.0077 -0.5524  0.4193
   11SAPS  H10X 1437   2.970   2.073   7.513 -1.3588 -0.2902  1.1271
   11SAPS  H10Y 1438   3.036   1.919   7.463 -0.4225 -0.3601 -1.3084
   11SAPS  C311 1439   2.884   1.892   7.618 -0.1146  0.0991 -0.1964
   11SAPS  H11X 1440   2.865   1.796   7.564 -0.1763 -0.5798  0.9909
   11SAPS  H11Y 1441   2.786   1.934   7.649 -0.9176 -1.3109 -0.6875
   11SAPS  C312 1442   2.979   1.844   7.720 -0.7793 -0.0686  0.1468
   11SAPS  H12X 1443   3.074   1.811   7.673  0.3245  3.0309 -0.0220
   11SAPS  H12Y 1444   2.934   1.758   7.773 -2.6686  0.5603 -0.3579
   11SAPS  C313 1445   3.016   1.963   7.812 -0.4011  0.8821  0.3159
   11SAPS  H13X 1446   2.925   2.020   7.841 -1.4500 -0.9077  0.7264
   11SAPS  H13Y 1447   3.085   2.035   7.764 -1.2900  0.3589 -1.8815
   11SAPS  C314 1448   3.081   1.905   7.943  0.3850 -0.3846  0.5531
   11SAPS  H14X 1449   3.138   1.812   7.925 -0.4340 -0.9344  0.7436
   11SAPS  H14Y 1450   2.995   1.877   8.007 -1.1216  0.7255 -0.9106
   11SAPS  C315 1451   3.164   2.012   8.009 -0.4649 -0.9593 -0.7711
   11SAPS  H15X 1452   3.242   2.046   7.937  1.8994 -2.1886  1.0807
   11SAPS  H15Y 1453   3.211   1.957   8.093 -0.6167 -2.5120 -1.6751
   11SAPS  C316 1454   3.095   2.144   8.054 -0.4516 -0.1338 -0.2436
   11SAPS  H16X 1455   3.081   2.209   7.965  0.2893  0.2672 -0.0803
   11SAPS  H16Y 1456   3.160   2.201   8.124 -0.8205  1.5875 -1.2325
   11SAPS  C317 1457   2.970   2.133   8.123  0.4587 -0.6090 -0.5269
   11SAPS  H17X 1458   2.983   2.079   8.219 -0.2398 -0.7807 -0.5189
   11SAPS  H17Y 1459   2.894   2.082   8.059 -0.2924 -0.0702 -0.0877
   11SAPS  C318 1460   2.911   2.275   8.161 -0.0543 -0.6881 -0.2117
   11SAPS  H18X 1461   2.821   2.261   8.225 -0.6528  1.5180 -0.5000
   11SAPS  H18Y 1462   2.873   2.328   8.071 -0.3024 -1.2426 -0.4353
   11SAPS  H18Z 1463   2.980   2.337   8.223  0.6574 -2.0950  0.4563
   12SAPS     N 1464   4.720   2.670   5.892 -0.2367  0.4929 -0.2070
   12SAPS   HN1 1465   4.721   2.599   5.817 -2.6880  0.5564 -0.3842
   12SAPS   HN2 1466   4.787   2.749   5.878 -1.2084  1.9579  2.5623
   12SAPS   HN3 1467   4.759   2.619   5.974  1.3609  1.5856 -0.2432
   12SAPS   C12 1468   4.581   2.725   5.903  0.3273 -0.4171 -0.1072
   12SAPS  H12A 1469   4.586   2.817   5.960 -1.3327 -0.7741  0.6509
   12SAPS   C13 1470   4.515   2.758   5.772 -0.4296  0.2321 -0.6513
   12SAPS  O13A 1471   4.591   2.758   5.669 -0.1597 -0.2172 -0.0655
   12SAPS  O13B 1472   4.407   2.817   5.765  0.1642 -0.6999  0.3616
   12SAPS   C11 1473   4.481   2.623   5.973  0.7531 -0.3828  0.9918
   12SAPS  H11A 1474   4.456   2.552   5.892  2.5024 -1.1252  1.0710
   12SAPS  H11B 1475   4.389   2.675   6.009  0.3669 -0.8216  0.6554
   12SAPS     P 1476   4.489   2.425   6.135 -0.1055 -0.1740  0.0498
   12SAPS   O13 1477   4.450   2.343   6.022  0.7136 -0.0498 -0.3100
   12SAPS   O14 1478   4.591   2.362   6.221  0.6716 -0.0675 -0.1458
   12SAPS   O12 1479   4.550   2.558   6.078  0.4203  0.9737  0.2275
   12SAPS   O11 1480   4.365   2.465   6.221 -0.4805 -0.3259  0.0185
   12SAPS    C1 1481   4.363   2.580   6.301  0.2927 -0.9165 -0.0767
   12SAPS    HA 1482   4.394   2.678   6.259 -0.7884  0.1680  1.5545
   12SAPS    HB 1483   4.254   2.585   6.321 -0.4449 -1.5404 -3.2624
   12SAPS    C2 1484   4.436   2.561   6.440 -0.1847 -1.0128  0.5419
   12SAPS    HS 1485   4.540   2.538   6.410  0.0261  1.7647 -1.1865
   12SAPS   O21 1486   4.361   2.460   6.514 -0.4605  0.0330  0.2712
   12SAPS   C21 1487   4.434   2.412   6.619 -0.1759  0.2123 -0.2656
   12SAPS   O22 1488   4.554   2.408   6.624  0.5071  0.8999  0.2896
   12SAPS   C22 1489   4.349   2.354   6.736 -0.5463 -0.1997 -0.5683
   12SAPS   H2R 1490   4.386   2.395   6.832  0.0226 -0.1801 -0.7901
   12SAPS   H2S 1491   4.245   2.394   6.729 -1.4406 -1.8281  2.1801
   12SAPS    C3 1492   4.453   2.704   6.514  0.1684  0.8602 -0.0126
   12SAPS    HX 1493   4.354   2.748   6.537  0.0158  0.3520  0.3153
   12SAPS    HY 1494   4.506   2.772   6.444  1.7841  1.0814  1.3666
   12SAPS   O31 1495   4.525   2.701   6.635  0.3346 -0.1003  0.2480
   12SAPS   C31 1496   4.664   2.715   6.613 -0.1118 -0.0223 -0.2277
   12SAPS   O32 1497   4.716   2.748   6.509  0.5520  0.0154  0.6948
   12SAPS   C32 1498   4.735   2.654   6.738  0.3385  0.5538  0.2786
   12SAPS   H2X 1499   4.825   2.709   6.773  0.7241  0.3509 -0.3974
   12SAPS   H2Y 1500   4.769   2.555   6.702 -0.1016  0.9149 -1.1881
   12SAPS   C23 1501   4.355   2.196   6.728 -0.5447 -0.8379 -0.2883
   12SAPS   H3R 1502   4.457   2.152   6.737 -0.6124 -1.0749 -0.6672
   12SAPS   H3S 1503   4.309   2.161   6.634 -2.7077 -1.0487  0.7881
   12SAPS   C24 1504   4.287   2.132   6.856  0.3171 -0.4292 -0.4079
   12SAPS   H4R 1505   4.354   2.144   6.944 -1.3122  0.4305  0.7586
   12SAPS   H4S 1506   4.270   2.024   6.834  0.8488 -0.1819 -2.1812
   12SAPS   C25 1507   4.158   2.202   6.899 -0.1470  0.1636  0.9634
   12SAPS   H5R 1508   4.082   2.190   6.820  1.0947 -1.6959 -0.0307
   12SAPS   C26 1509   4.125   2.273   7.006 -0.2983 -0.0950  0.1950
   12SAPS   H6R 1510   4.024   2.317   7.014  0.8504  2.5279  1.4716
   12SAPS   C27 1511   4.205   2.301   7.128 -0.1155  0.3472 -0.1966
   12SAPS   H7R 1512   4.314   2.281   7.113  0.0756  0.5675  0.8056
   12SAPS   H7S 1513   4.176   2.221   7.199 -1.0197  1.8612  1.2039
   12SAPS   C28 1514   4.189   2.441   7.183 -0.4190 -0.1011  0.3071
   12SAPS   H8R 1515   4.165   2.523   7.113 -0.9223  0.8285  1.5293
   12SAPS   C29 1516   4.216   2.474   7.308 -0.0716  0.4066  0.0708
   12SAPS   H9R 1517   4.212   2.583   7.325 -0.2993  0.5452 -0.7835
   12SAPS  C210 1518   4.257   2.393   7.426 -0.2100 -0.5766 -0.6829
   12SAPS  H10R 1519   4.358   2.432   7.452 -0.9678  1.1846 -0.2749
   12SAPS  H10S 1520   4.262   2.283   7.410 -2.5569 -0.8406  0.0583
   12SAPS  C211 1521   4.158   2.410   7.540 -0.1600 -0.1684 -0.5351
   12SAPS  H11R 1522   4.050   2.417   7.519 -0.3089  2.4031  0.6865
   12SAPS  C212 1523   4.187   2.430   7.667  0.1197 -0.3616 -0.0296
   12SAPS  H12R 1524   4.101   2.436   7.736 -0.4646 -0.9573 -0.6769
   12SAPS  C213 1525   4.321   2.432   7.734  0.6143  0.5436 -0.4308
   12SAPS  H13R 1526   4.341   2.533   7.776  1.4721  0.5648 -0.8813
   12SAPS  H13S 1527   4.413   2.416   7.675  3.0122  1.2329  2.8388
   12SAPS  C214 1528   4.332   2.327   7.845 -0.8126  0.0658 -0.3589
   12SAPS  H14R 1529   4.381   2.231   7.824 -1.9462 -0.2106 -1.9024
   12SAPS  C215 1530   4.291   2.339   7.975 -0.6988 -0.3647  0.0936
   12SAPS  H15R 1531   4.313   2.248   8.032 -0.0392  0.0526  0.5231
   12SAPS  C216 1532   4.224   2.455   8.044  0.0448  0.2494 -0.0090
   12SAPS  H16R 1533   4.192   2.532   7.971 -2.1469  1.2867  1.9186
   12SAPS  H16S 1534   4.291   2.504   8.119 -1.2521  1.6070  0.3009
   12SAPS  C217 1535   4.099   2.416   8.116 -0.0187  0.5953  0.0400
   12SAPS  H17R 1536   4.050   2.330   8.065 -0.4429  1.7351 -1.5474
   12SAPS  H17S 1537   4.026   2.499   8.127  0.1952  1.2318 -2.6115
   12SAPS  C218 1538   4.122   2.360   8.259  0.2368 -0.2286  0.3409
   12SAPS  H18R 1539   4.110   2.434   8.341  1.6221  1.0854 -0.5813
   12SAPS  H18S 1540   4.231   2.335   8.260  0.6468  1.3389 -0.9498
   12SAPS  C219 1541   4.040   2.236   8.291  0.4080 -0.8562 -0.5705
   12SAPS  H19R 1542   4.105   2.174   8.357 -1.6984  0.4480  3.0027
   12SAPS  H19S 1543   4.018   2.175   8.201  0.6154 -0.8353 -0.6360
   12SAPS  C220 1544   3.916   2.259   8.377 -0.2333 -0.8234 -0.1072
   12SAPS  H20R 1545   3.945   2.320   8.465  1.6778 -0.1126 -1.1513
   12SAPS  H20S 1546   3.861   2.166   8.402 -2.0872 -0.4110 -2.2965
   12SAPS  H20T 1547   3.845   2.316   8.313 -1.6730 -0.3758  1.8019
   12SAPS   C33 1548   4.652   2.657   6.868  0.1670  0.2638 -0.5418
   12SAPS   H3X 1549   4.571   2.581   6.856 -1.7714  1.9080  1.3657
   12SAPS   H3Y 1550   4.602   2.755   6.880 -2.8331 -1.3243  1.2668
   12SAPS   C34 1551   4.733   2.632   7.000 -1.2294 -0.6497 -0.0292
   12SAPS   H4X 1552   4.802   2.717   7.020 -0.6640 -0.3195 -2.9676
   12SAPS   H4Y 1553   4.803   2.546   6.992  2.0171  1.7264  0.4873
   12SAPS   C35 1554   4.645   2.601   7.119 -0.4431 -0.4602 -0.5062
   12SAPS   H5X 1555   4.596   2.503   7.101 -0.2591 -0.8898  1.1795
   12SAPS   H5Y 1556   4.573   2.686   7.124  1.6412  1.4889 -1.8003
   12SAPS   C36 1557   4.733   2.575   7.238  0.3876  0.1516  0.0175
   12SAPS   H6X 1558   4.797   2.667   7.246  1.2851 -0.5335  1.0712
   12SAPS   H6Y 1559   4.791   2.482   7.218  2.0609  1.4945 -1.8390
   12SAPS   C37 1560   4.656   2.559   7.369  0.2597  0.1631  0.2511
   12SAPS   H7X 1561   4.589   2.470   7.373  1.7236 -0.9365  1.6235
   12SAPS   H7Y 1562   4.591   2.647   7.387  0.8776  1.4471 -3.0919
   12SAPS   C38 1563   4.754   2.550   7.486  0.5133 -0.1365 -0.8891
   12SAPS   H8X 1564   4.826   2.635   7.490  0.0443  0.2383 -0.3021
   12SAPS   H8Y 1565   4.815   2.458   7.481  0.5131 -0.2652  0.9580
   12SAPS   C39 1566   4.674   2.565   7.623 -0.4111 -0.0026  0.3317
   12SAPS   H9X 1567   4.631   2.463   7.632  1.2230 -1.0223 -2.2147
   12SAPS   H9Y 1568   4.587   2.633   7.610 -1.6191 -1.1212  2.2118
   12SAPS  C310 1569   4.764   2.600   7.736  0.4972  0.4482 -0.8477
   12SAPS  H10X 1570   4.833   2.681   7.705  1.5047 -1.1473 -3.0208
   12SAPS  H10Y 1571   4.832   2.516   7.763 -0.9875 -0.8396 -0.9690
   12SAPS  C311 1572   4.683   2.627   7.862 -0.3438  0.8775 -0.4527
   12SAPS  H11X 1573   4.622   2.535   7.877  2.3042 -0.9243 -0.0205
   12SAPS  H11Y 1574   4.629   2.724   7.857 -2.7490 -0.4334 -1.9973
   12SAPS  C312 1575   4.764   2.634   7.991  0.2840  1.0616  1.1056
   12SAPS  H12X 1576   4.850   2.704   7.981  0.8824  0.2305  0.2756
   12SAPS  H12Y 1577   4.813   2.534   7.998  0.5308  0.8774 -1.9321
   12SAPS  C313 1578   4.695   2.686   8.117  0.5115  0.3519 -0.1401
   12SAPS  H13X 1579   4.585   2.689   8.103  0.1223  0.6369  2.5644
   12SAPS  H13Y 1580   4.729   2.789   8.143 -1.3400  0.9793 -0.0943
   12SAPS  C314 1581   4.723   2.601   8.233  0.0548  0.4971  0.4421
   12SAPS  H14X 1582   4.703   2.498   8.197 -3.0897  0.5608  1.6852
   12SAPS  H14Y 1583   4.634   2.602   8.299 -1.6888 -2.4221 -1.6241
   12SAPS  C315 1584   4.859   2.610   8.301  0.4640 -0.6498 -0.2156
   12SAPS  H15X 1585   4.892   2.716   8.308  1.9357 -0.7503 -3.4922
   12SAPS  H15Y 1586   4.940   2.566   8.238 -0.0687  0.1744 -1.5160
   12SAPS  C316 1587   4.855   2.544   8.438 -0.5062 -0.6302  0.2710
   12SAPS  H16X 1588   4.812   2.442   8.436 -0.3234 -0.7223  0.8646
   12SAPS  H16Y 1589   4.790   2.603   8.506 -1.5771  1.5903 -2.4809
   12SAPS  C317 1590   4.986   2.553   8.506 -0.6282  0.9209 -0.3278
   12SAPS  H17X 1591   5.056   2.509   8.431  1.6845  0.8424  1.7448
   12SAPS  H17Y 1592   4.990   2.480   8.590  1.3801  0.1614 -1.0040
   12SAPS  C318 1593   5.043   2.689   8.549 -0.0379  0.5139  0.0600
   12SAPS  H18X 1594   5.145   2.672   8.589 -0.1922 -0.0864  0.2070
   12SAPS  H18Y 1595   4.976   2.723   8.630 -0.7040 -4.1363  1.7803
   12SAPS  H18Z 1596   5.051   2.758   8.462 -0.4495  1.2901  0.6348
   13SAPS     N 1597   3.916   0.678   5.910 -0.0235 -0.3337  0.0779
   13SAPS   HN1 1598   3.880   0.775   5.916 -0.6005 -0.5068 -0.5026
   13SAPS   HN2 1599   3.954   0.681   5.813  0.0075 -0.6875  0.0768
   13SAPS   HN3 1600   3.837   0.610   5.906 -0.0603 -0.3590  0.9563
   13SAPS   C12 1601   4.006   0.643   6.015 -0.4449  0.8835 -0.0910
   13SAPS  H12A 1602   4.037   0.542   5.994 -0.9668  0.6578  0.2048
   13SAPS   C13 1603   4.138   0.727   6.024  0.1271 -0.1169  0.2341
   13SAPS  O13A 1604   4.161   0.810   5.925  0.4806  0.2272  0.0672
   13SAPS  O13B 1605   4.235   0.677   6.087 -0.1012 -0.5040  0.9350
   13SAPS   C11 1606   3.943   0.652   6.154 -0.0422  0.0076  0.1721
   13SAPS  H11A 1607   3.916   0.757   6.180 -0.7386 -0.6614  2.3711
   13SAPS  H11B 1608   4.009   0.617   6.236  1.1793  3.1117  0.6538
   13SAPS     P 1609   3.852   0.408   6.201  0.2185 -0.2050  0.0247
   13SAPS   O13 1610   3.829   0.314   6.097  0.1797  0.0790  0.4295
   13SAPS   O14 1611   3.978   0.390   6.272  0.1170 -0.0259 -0.0748
   13SAPS   O12 1612   3.826   0.558   6.157  0.5788 -0.5160  0.5073
   13SAPS   O11 1613   3.740   0.385   6.308 -0.8318 -0.0092 -0.3302
   13SAPS    C1 1614   3.660   0.488   6.376 -0.8955  0.6222 -0.0267
   13SAPS    HA 1615   3.652   0.581   6.316  1.7167  1.8892  1.4018
   13SAPS    HB 1616   3.561   0.447   6.404 -0.3287 -0.9820 -0.2569
   13SAPS    C2 1617   3.723   0.522   6.516  0.5945 -0.0850  0.2072
   13SAPS    HS 1618   3.651   0.582   6.576  1.6656  1.3695  0.0922
   13SAPS   O21 1619   3.852   0.591   6.509 -0.1759  0.2210 -0.3479
   13SAPS   C21 1620   3.887   0.664   6.611  0.2087  0.0946 -0.3335
   13SAPS   O22 1621   3.817   0.688   6.707  0.3808  0.4569 -0.3656
   13SAPS   C22 1622   4.030   0.716   6.602  0.0453 -0.5420 -0.0963
   13SAPS   H2R 1623   4.064   0.697   6.498  0.3416  0.9141 -0.2944
   13SAPS   H2S 1624   4.018   0.826   6.610  0.5772 -0.5126  0.3292
   13SAPS    C3 1625   3.741   0.389   6.593 -0.3455  0.0063  0.2564
   13SAPS    HX 1626   3.837   0.342   6.561  0.0071  1.8905 -1.6664
   13SAPS    HY 1627   3.661   0.321   6.555  1.5621 -1.8225 -0.7150
   13SAPS   O31 1628   3.744   0.406   6.735 -0.6294 -0.5091 -0.2340
   13SAPS   C31 1629   3.630   0.413   6.802 -0.3474  0.4149 -0.4845
   13SAPS   O32 1630   3.518   0.396   6.761  0.3441 -0.2660  0.0842
   13SAPS   C32 1631   3.671   0.406   6.961  0.3771  0.2847  0.5276
   13SAPS   H2X 1632   3.629   0.491   7.018  1.5831  0.3069  1.4328
   13SAPS   H2Y 1633   3.780   0.426   6.968  0.1909  1.8410 -0.4534
   13SAPS   C23 1634   4.116   0.664   6.721  0.1005 -0.4210 -0.3459
   13SAPS   H3R 1635   4.124   0.554   6.728  2.4169 -0.2267  0.7398
   13SAPS   H3S 1636   4.073   0.715   6.810 -0.5687  0.4923 -1.1703
   13SAPS   C24 1637   4.264   0.706   6.708  0.6092 -0.0220  0.4869
   13SAPS   H4R 1638   4.303   0.681   6.607 -1.4894  1.6112 -0.8345
   13SAPS   H4S 1639   4.329   0.647   6.776  1.1244 -0.6615 -0.5336
   13SAPS   C25 1640   4.273   0.851   6.735  0.0034  0.1683  0.0584
   13SAPS   H5R 1641   4.234   0.913   6.653 -1.2208 -0.1623  0.3575
   13SAPS   C26 1642   4.293   0.916   6.855 -0.4927  0.8817  0.0172
   13SAPS   H6R 1643   4.301   1.026   6.857 -1.1214  0.9330 -0.1326
   13SAPS   C27 1644   4.312   0.851   6.986 -0.6388 -0.1631 -0.4230
   13SAPS   H7R 1645   4.402   0.787   6.974 -1.8397 -1.9575 -0.2061
   13SAPS   H7S 1646   4.235   0.775   7.009  1.2760 -1.9914  0.3719
   13SAPS   C28 1647   4.341   0.952   7.102 -0.2386  0.0779  0.2293
   13SAPS   H8R 1648   4.349   1.060   7.086 -0.5107  0.3890  1.9519
   13SAPS   C29 1649   4.382   0.911   7.228  0.3798  0.1285 -0.0244
   13SAPS   H9R 1650   4.389   0.986   7.308  0.2766  2.8564 -2.3955
   13SAPS  C210 1651   4.372   0.765   7.266  0.0250  0.7203 -0.2588
   13SAPS  H10R 1652   4.341   0.708   7.176  1.5166  0.7905 -0.8483
   13SAPS  H10S 1653   4.290   0.757   7.340  0.5958  1.5183  0.4816
   13SAPS  C211 1654   4.509   0.713   7.316 -0.5031 -0.1396  0.7072
   13SAPS  H11R 1655   4.577   0.705   7.230  0.1869  2.7969  0.8817
   13SAPS  C212 1656   4.542   0.699   7.445  0.1991  0.0323  0.0932
   13SAPS  H12R 1657   4.643   0.660   7.465  1.3639  2.7160 -0.0735
   13SAPS  C213 1658   4.459   0.725   7.563  0.2367 -0.1894 -0.5253
   13SAPS  H13R 1659   4.364   0.667   7.558  0.5309 -0.6829 -0.4543
   13SAPS  H13S 1660   4.436   0.834   7.566  3.3611  0.5414  0.8981
   13SAPS  C214 1661   4.525   0.692   7.691 -0.7865 -0.2990 -0.1787
   13SAPS  H14R 1662   4.623   0.740   7.704 -1.1908  0.7544 -0.8445
   13SAPS  C215 1663   4.474   0.628   7.798  0.2205 -0.2672  0.0777
   13SAPS  H15R 1664   4.540   0.624   7.885 -0.6884 -0.9039  0.7626
   13SAPS  C216 1665   4.330   0.572   7.812  0.6785  0.2139  1.0061
   13SAPS  H16R 1666   4.336   0.470   7.854  0.5296  0.7401  2.3508
   13SAPS  H16S 1667   4.286   0.548   7.713 -1.1303  1.5789  1.4193
   13SAPS  C217 1668   4.231   0.663   7.894  0.6794  0.0059  0.2744
   13SAPS  H17R 1669   4.271   0.671   7.997 -0.0973 -1.3080  0.6990
   13SAPS  H17S 1670   4.133   0.612   7.904  0.3415  0.7749  1.0147
   13SAPS  C218 1671   4.213   0.802   7.840  0.0094  0.0296  0.4212
   13SAPS  H18R 1672   4.173   0.785   7.738 -0.5299 -1.5874  0.8714
   13SAPS  H18S 1673   4.315   0.846   7.835 -0.1623  0.2971 -0.9581
   13SAPS  C219 1674   4.106   0.881   7.916 -0.7188  0.1540  0.7002
   13SAPS  H19R 1675   4.012   0.826   7.892  0.5436 -1.6371 -0.4246
   13SAPS  H19S 1676   4.105   0.985   7.876 -2.1375  0.1853  0.7535
   13SAPS  C220 1677   4.107   0.888   8.066 -0.3910 -0.2233 -0.1898
   13SAPS  H20R 1678   4.044   0.975   8.097 -0.1039 -0.1833  0.2890
   13SAPS  H20S 1679   4.209   0.907   8.106 -0.1876  0.6835 -1.0858
   13SAPS  H20T 1680   4.069   0.794   8.112 -0.5520  0.7490  1.8031
   13SAPS   C33 1681   3.623   0.279   7.025  0.3414 -0.1962  0.5226
   13SAPS   H3X 1682   3.625   0.193   6.954 -2.4705 -1.0544  1.3417
   13SAPS   H3Y 1683   3.515   0.297   7.044 -0.1060 -1.7437 -0.4065
   13SAPS   C34 1684   3.695   0.237   7.150 -0.0678  0.1157 -0.1141
   13SAPS   H4X 1685   3.802   0.229   7.120 -1.0542  0.3314 -4.2163
   13SAPS   H4Y 1686   3.664   0.137   7.186  2.9505 -0.8881  0.0436
   13SAPS   C35 1687   3.677   0.334   7.268 -0.6012  0.0973 -0.5865
   13SAPS   H5X 1688   3.573   0.345   7.307 -0.3113 -1.2151  0.6404
   13SAPS   H5Y 1689   3.712   0.436   7.243 -3.0171  1.5437  1.4293
   13SAPS   C36 1690   3.768   0.285   7.389 -0.2916  0.3609  0.5239
   13SAPS   H6X 1691   3.749   0.367   7.461 -3.2179 -0.6318  1.0128
   13SAPS   H6Y 1692   3.872   0.288   7.350 -0.3453  0.0538  0.3532
   13SAPS   C37 1693   3.717   0.151   7.448 -0.6385 -0.2619 -0.0950
   13SAPS   H7X 1694   3.610   0.144   7.420 -0.0809 -1.3475 -2.1212
   13SAPS   H7Y 1695   3.720   0.164   7.559 -3.1064 -1.5936  0.2087
   13SAPS   C38 1696   3.804   0.028   7.406 -0.3256 -0.5837  0.7434
   13SAPS   H8X 1697   3.909   0.046   7.438 -0.2767  1.0117 -0.1878
   13SAPS   H8Y 1698   3.806   0.027   7.294 -0.4541  1.3664  0.6843
   13SAPS   C39 1699   3.747  -0.103   7.458  0.1796  0.8302  0.6084
   13SAPS   H9X 1700   3.802  -0.183   7.405  1.3922  1.5164  0.7860
   13SAPS   H9Y 1701   3.636  -0.104   7.445  0.2642 -1.8320 -0.5131
   13SAPS  C310 1702   3.760  -0.132   7.607 -0.0589 -0.0357  0.1723
   13SAPS  H10X 1703   3.735  -0.240   7.623  2.3477 -0.7936 -0.7524
   13SAPS  H10Y 1704   3.689  -0.078   7.672  0.5053  1.5260 -0.4713
   13SAPS  C311 1705   3.897  -0.118   7.671  0.6042 -0.2979 -0.0117
   13SAPS  H11X 1706   3.926  -0.012   7.655 -1.6127  0.2926 -0.4408
   13SAPS  H11Y 1707   3.971  -0.187   7.624 -0.0722 -1.1753  0.1905
   13SAPS  C312 1708   3.901  -0.155   7.818 -0.4740 -0.6851 -0.1080
   13SAPS  H12X 1709   3.853  -0.255   7.829 -2.2048  0.2623  1.4869
   13SAPS  H12Y 1710   3.834  -0.084   7.871 -0.5077 -0.1654 -0.8261
   13SAPS  C313 1711   4.040  -0.164   7.875  0.8750  0.3516  0.2067
   13SAPS  H13X 1712   4.100  -0.238   7.816  0.0156  0.5573 -0.9469
   13SAPS  H13Y 1713   4.036  -0.207   7.978  1.1541 -0.1391  0.0166
   13SAPS  C314 1714   4.095  -0.025   7.882 -0.1362 -0.0140  0.8870
   13SAPS  H14X 1715   4.028   0.054   7.844  0.5300 -0.2487 -0.8820
   13SAPS  H14Y 1716   4.190  -0.019   7.825 -0.2304 -2.2623  0.3837
   13SAPS  C315 1717   4.113   0.021   8.028  0.2947  0.6928  0.0944
   13SAPS  H15X 1718   4.175   0.113   8.041  1.2512  0.0612  0.0973
   13SAPS  H15Y 1719   4.156  -0.062   8.089 -1.6861  0.3038  1.0433
   13SAPS  C316 1720   3.980   0.058   8.104 -0.3192 -0.5394 -0.3372
   13SAPS  H16X 1721   3.917  -0.030   8.080 -0.9879  0.3156 -1.8553
   13SAPS  H16Y 1722   3.935   0.149   8.057 -1.1876 -1.5104 -1.4530
   13SAPS  C317 1723   4.002   0.082   8.258 -0.6869  0.1028 -0.2979
   13SAPS  H17X 1724   4.024   0.188   8.283 -0.7621  0.5121 -1.8737
   13SAPS  H17Y 1725   4.089   0.021   8.290 -1.1421 -0.2224  0.3428
   13SAPS  C318 1726   3.884   0.039   8.344  0.0157  0.0687  0.3725
   13SAPS  H18X 1727   3.893  -0.072   8.344  1.6966  0.1707 -0.3834
   13SAPS  H18Y 1728   3.788   0.066   8.296 -0.9205 -1.2463  1.4100
   13SAPS  H18Z 1729   3.876   0.072   8.450 -2.0280  0.4700  0.1307
   14SAPS     N 1730   3.706   0.117   5.940  0.6081 -0.4351  0.2631
   14SAPS   HN1 1731   3.639   0.186   5.901 -0.9458 -2.2155 -0.3719
   14SAPS   HN2 1732   3.655   0.036   5.979 -1.1677  0.3491 -0.3239
   14SAPS   HN3 1733   3.767   0.158   6.014  1.4126 -1.3934  0.1472
   14SAPS   C12 1734   3.790   0.062   5.827  0.5866 -0.6599 -0.6094
   14SAPS  H12A 1735   3.748  -0.027   5.782 -2.5747 -0.2972  1.3691
   14SAPS   C13 1736   3.830   0.161   5.719 -0.4104 -0.7111 -0.4761
   14SAPS  O13A 1737   3.805   0.284   5.733 -0.2690 -0.1648  0.0154
   14SAPS  O13B 1738   3.891   0.113   5.623 -0.4556  0.0326  0.6823
   14SAPS   C11 1739   3.928   0.026   5.899  0.0956 -0.2156  0.3485
   14SAPS  H11A 1740   3.982   0.116   5.933  0.6059 -0.0754 -0.7933
   14SAPS  H11B 1741   3.993  -0.020   5.821 -0.2306 -0.1031  0.0065
   14SAPS     P 1742   4.026  -0.134   6.074  0.1450 -0.1107 -0.2445
   14SAPS   O13 1743   3.993  -0.277   6.059  0.2692 -0.4834  0.0969
   14SAPS   O14 1744   4.156  -0.080   6.019  0.2462  0.6802  0.4455
   14SAPS   O12 1745   3.904  -0.057   6.014 -0.3022 -0.7703 -0.1964
   14SAPS   O11 1746   4.017  -0.096   6.225 -0.1786  0.1302  0.5551
   14SAPS    C1 1747   4.017   0.044   6.254 -0.2558  0.8033 -0.9166
   14SAPS    HA 1748   4.122   0.081   6.263 -0.1320  0.7004 -1.8098
   14SAPS    HB 1749   3.977   0.112   6.176 -1.7054  0.1869 -0.7433
   14SAPS    C2 1750   3.936   0.071   6.394  0.0122 -0.2381  0.6151
   14SAPS    HS 1751   3.944   0.181   6.398  2.2361 -0.3235  0.0209
   14SAPS   O21 1752   3.980   0.008   6.508 -0.0954  0.8725 -0.2912
   14SAPS   C21 1753   4.106   0.025   6.544  0.5646  0.5237 -0.3439
   14SAPS   O22 1754   4.181   0.103   6.487 -0.0132  0.1802 -0.4379
   14SAPS   C22 1755   4.141  -0.061   6.662  0.4804 -0.1159  0.5685
   14SAPS   H2R 1756   4.160  -0.157   6.609  1.4613 -0.1901  1.0425
   14SAPS   H2S 1757   4.236  -0.029   6.711  1.0455 -1.5870  0.5031
   14SAPS    C3 1758   3.786   0.043   6.377  0.3193 -0.5051 -0.7893
   14SAPS    HX 1759   3.776  -0.063   6.345  0.0447  0.3344 -3.7428
   14SAPS    HY 1760   3.747   0.116   6.303 -1.0623  0.2184  0.5998
   14SAPS   O31 1761   3.720   0.072   6.502 -0.6735 -0.0269 -0.0518
   14SAPS   C31 1762   3.656  -0.017   6.575 -1.0069  0.1022 -0.1226
   14SAPS   O32 1763   3.656  -0.136   6.554 -0.3079  0.6210 -0.2153
   14SAPS   C32 1764   3.572   0.050   6.683  0.6712 -0.1357  0.4863
   14SAPS   H2X 1765   3.479   0.085   6.635  1.0311 -0.3087 -0.3589
   14SAPS   H2Y 1766   3.630   0.141   6.711  0.9221 -0.4612  1.0610
   14SAPS   C23 1767   4.029  -0.091   6.769 -0.1822 -0.0410  0.1051
   14SAPS   H3R 1768   4.045  -0.191   6.816  3.5846 -0.1994 -1.2037
   14SAPS   H3S 1769   3.931  -0.103   6.718  0.3745 -2.1630 -0.5657
   14SAPS   C24 1770   4.013   0.022   6.882  0.2456  0.5766  0.7608
   14SAPS   H4R 1771   4.115   0.032   6.925  2.4598  0.7224 -3.9407
   14SAPS   H4S 1772   3.938  -0.008   6.959 -0.8846 -1.0401 -0.8772
   14SAPS   C25 1773   3.979   0.156   6.827 -0.2311 -0.2162 -0.3005
   14SAPS   H5R 1774   3.898   0.160   6.752  0.3846 -2.0803 -1.1249
   14SAPS   C26 1775   4.042   0.271   6.842  0.6171  0.0803 -0.3539
   14SAPS   H6R 1776   3.997   0.367   6.812  1.0581  1.1166  2.0202
   14SAPS   C27 1777   4.165   0.287   6.931 -0.3280 -0.2307 -0.1761
   14SAPS   H7R 1778   4.256   0.285   6.867  0.0436 -2.1239  0.3450
   14SAPS   H7S 1779   4.178   0.196   6.994 -2.1126 -0.1489  0.3560
   14SAPS   C28 1780   4.159   0.415   7.006 -0.0042 -0.5940 -0.1647
   14SAPS   H8R 1781   4.133   0.503   6.944 -0.3943 -0.3255  0.3656
   14SAPS   C29 1782   4.156   0.434   7.134 -0.9491  0.0327 -0.3419
   14SAPS   H9R 1783   4.145   0.535   7.176 -2.3722 -0.7339  1.2255
   14SAPS  C210 1784   4.186   0.330   7.238  0.0959  0.3207 -0.7074
   14SAPS  H10R 1785   4.240   0.242   7.196 -0.5634 -0.3839 -0.1176
   14SAPS  H10S 1786   4.092   0.280   7.272 -0.6592  1.5490 -0.9230
   14SAPS  C211 1787   4.260   0.388   7.353 -0.5809 -0.1641 -0.2405
   14SAPS  H11R 1788   4.352   0.442   7.327  0.6877 -1.9893  0.2657
   14SAPS  C212 1789   4.241   0.371   7.483 -0.0521  0.4439  0.5308
   14SAPS  H12R 1790   4.314   0.422   7.547  1.5104  0.8782 -1.5100
   14SAPS  C213 1791   4.128   0.295   7.549  0.2311 -0.3024 -0.7696
   14SAPS  H13R 1792   4.121   0.193   7.507 -2.8143 -0.6748  0.4259
   14SAPS  H13S 1793   4.030   0.331   7.511 -0.3290 -1.5355 -0.5314
   14SAPS  C214 1794   4.138   0.288   7.699  0.1903  0.5583  0.8364
   14SAPS  H14R 1795   4.232   0.258   7.748  0.2371  1.9222  1.6009
   14SAPS  C215 1796   4.035   0.309   7.778 -0.7811  0.4297  0.0125
   14SAPS  H15R 1797   4.065   0.299   7.884  3.6352  0.1932 -1.0914
   14SAPS  C216 1798   3.896   0.357   7.745 -0.3992 -0.0940 -0.0367
   14SAPS  H16R 1799   3.826   0.277   7.778  0.1195 -1.1050 -1.2899
   14SAPS  H16S 1800   3.879   0.364   7.635 -0.0989  2.0931  0.0104
   14SAPS  C217 1801   3.856   0.484   7.815  0.6055 -0.1644 -0.2388
   14SAPS  H17R 1802   3.750   0.506   7.792  1.2875  2.7443 -0.9588
   14SAPS  H17S 1803   3.917   0.569   7.778  1.7733 -0.1615  1.5646
   14SAPS  C218 1804   3.858   0.485   7.972  0.6703 -0.1282 -0.7889
   14SAPS  H18R 1805   3.962   0.462   8.004  0.3157 -0.6122  0.0430
   14SAPS  H18S 1806   3.807   0.390   7.997  2.2112 -0.3444  1.9586
   14SAPS  C219 1807   3.799   0.617   8.035 -0.3758  0.3191  0.1402
   14SAPS  H19R 1808   3.699   0.642   7.994 -0.4405 -2.8514 -2.0202
   14SAPS  H19S 1809   3.867   0.699   8.007  0.0920  0.8104  2.5259
   14SAPS  C220 1810   3.783   0.615   8.184  0.2957 -0.2473 -0.5992
   14SAPS  H20R 1811   3.715   0.535   8.219 -2.1586  2.1935  0.6786
   14SAPS  H20S 1812   3.739   0.712   8.218  1.9048  0.4593 -0.4693
   14SAPS  H20T 1813   3.873   0.608   8.247 -1.5701 -0.7748  2.1765
   14SAPS   C33 1814   3.527  -0.024   6.806 -0.2837  0.4222  0.2077
   14SAPS   H3X 1815   3.452  -0.101   6.779  0.4100 -0.0185 -0.5228
   14SAPS   H3Y 1816   3.472   0.045   6.873 -0.2183  0.6311  0.0447
   14SAPS   C34 1817   3.648  -0.091   6.880 -0.4704  0.1907 -0.7334
   14SAPS   H4X 1818   3.733  -0.021   6.892  0.7252 -1.4116  0.6525
   14SAPS   H4Y 1819   3.691  -0.175   6.821 -1.2416 -1.3740  0.8578
   14SAPS   C35 1820   3.605  -0.145   7.012 -0.1984 -0.8368  0.0251
   14SAPS   H5X 1821   3.550  -0.074   7.078  0.0611 -1.3580  0.8199
   14SAPS   H5Y 1822   3.691  -0.177   7.075  0.4934  1.6134  0.4254
   14SAPS   C36 1823   3.496  -0.254   7.007  0.0724 -1.0643 -0.3906
   14SAPS   H6X 1824   3.529  -0.336   6.939 -0.7652 -1.2091 -0.6372
   14SAPS   H6Y 1825   3.401  -0.226   6.956  0.0764 -1.2864 -0.5221
   14SAPS   C37 1826   3.471  -0.311   7.141 -0.3100  0.1721  0.2324
   14SAPS   H7X 1827   3.417  -0.239   7.207  0.4745 -1.3502  2.6866
   14SAPS   H7Y 1828   3.562  -0.328   7.202 -0.0668 -0.8881 -0.4002
   14SAPS   C38 1829   3.402  -0.446   7.112  0.3088  0.0030 -0.0093
   14SAPS   H8X 1830   3.485  -0.515   7.084 -1.1426 -1.1534 -1.7231
   14SAPS   H8Y 1831   3.326  -0.441   7.031  1.2952  0.4202 -0.9342
   14SAPS   C39 1832   3.336  -0.509   7.236 -0.5496  0.2962  0.1448
   14SAPS   H9X 1833   3.232  -0.471   7.236 -0.4818  0.4998 -0.5977
   14SAPS   H9Y 1834   3.395  -0.462   7.318  1.2942 -3.3443  1.1299
   14SAPS  C310 1835   3.334  -0.663   7.242 -0.6287  0.2331  0.1917
   14SAPS  H10X 1836   3.433  -0.705   7.272 -0.1237  0.5646 -0.9491
   14SAPS  H10Y 1837   3.324  -0.703   7.139  4.8665 -0.4343 -0.3753
   14SAPS  C311 1838   3.238  -0.714   7.347  0.0680  1.3195 -0.1468
   14SAPS  H11X 1839   3.137  -0.673   7.327 -0.9305  0.1047  2.0201
   14SAPS  H11Y 1840   3.276  -0.667   7.441  1.7720  4.0153 -2.0570
   14SAPS  C312 1841   3.236  -0.862   7.380 -0.0520  0.1849  0.2476
   14SAPS  H12X 1842   3.327  -0.910   7.421 -2.3395 -1.6617  3.6541
   14SAPS  H12Y 1843   3.230  -0.922   7.287 -1.2276 -0.8978  0.9987
   14SAPS  C313 1844   3.129  -0.910   7.482  0.2873 -0.1145  0.3878
   14SAPS  H13X 1845   3.036  -0.870   7.436  1.2213  0.6721 -0.8636
   14SAPS  H13Y 1846   3.137  -0.868   7.585 -0.0660 -0.5750  0.6046
   14SAPS  C314 1847   3.125  -1.063   7.497 -0.0470 -1.1003 -0.2102
   14SAPS  H14X 1848   3.218  -1.089   7.553  0.0975 -1.4934 -0.6284
   14SAPS  H14Y 1849   3.127  -1.108   7.395 -0.0629 -1.6921  0.0475
   14SAPS  C315 1850   3.007  -1.118   7.573 -0.3899  0.4546 -0.2796
   14SAPS  H15X 1851   2.997  -1.223   7.539 -0.0903 -0.4527  2.1722
   14SAPS  H15Y 1852   2.913  -1.064   7.551  0.7175  2.1130 -1.2253
   14SAPS  C316 1853   3.015  -1.122   7.727  0.2684 -0.4912  1.0644
   14SAPS  H16X 1854   3.093  -1.196   7.756 -1.3514 -1.0859  4.4637
   14SAPS  H16Y 1855   2.920  -1.158   7.773  0.8004 -1.0444  1.7639
   14SAPS  C317 1856   3.043  -0.990   7.793  0.4510 -0.4125 -0.1964
   14SAPS  H17X 1857   2.983  -0.905   7.754  1.4976  0.3705 -0.1626
   14SAPS  H17Y 1858   3.146  -0.963   7.760  1.4540 -1.7548  1.6959
   14SAPS  C318 1859   3.045  -0.992   7.945  0.0221  0.0134 -0.0282
   14SAPS  H18X 1860   3.069  -0.893   7.990 -1.5196  0.3042  0.2212
   14SAPS  H18Y 1861   3.113  -1.064   7.994 -0.4590 -0.4001  0.0370
   14SAPS  H18Z 1862   2.946  -1.027   7.980 -1.3061  1.7202 -1.8239
   15SAPS     N 1863   4.412   0.731   5.851 -0.4051  0.3563 -0.1244
   15SAPS   HN1 1864   4.424   0.634   5.815 -0.7137 -0.6314  2.2544
   15SAPS   HN2 1865   4.327   0.756   5.905 -0.6365 -1.3424  0.3530
   15SAPS   HN3 1866   4.416   0.792   5.766  2.2729  0.8403  0.2745
   15SAPS   C12 1867   4.524   0.766   5.947 -0.2621  0.0412 -0.2526
   15SAPS  H12A 1868   4.475   0.781   6.041 -2.1447  0.8644 -1.3221
   15SAPS   C13 1869   4.633   0.658   5.948 -0.1179  0.5171 -0.7898
   15SAPS  O13A 1870   4.615   0.544   5.899 -0.0088 -0.1041  0.3752
   15SAPS  O13B 1871   4.745   0.696   5.997 -0.4882  0.5808  0.2785
   15SAPS   C11 1872   4.578   0.915   5.920 -0.2705  0.1465  0.7013
   15SAPS  H11A 1873   4.643   0.922   5.829 -1.7482  1.1942 -0.3077
   15SAPS  H11B 1874   4.645   0.938   6.005 -2.3032 -0.7816  2.6452
   15SAPS     P 1875   4.480   1.144   5.852 -0.2917  0.0030 -0.0990
   15SAPS   O13 1876   4.618   1.161   5.807  0.7231  0.5142  0.1064
   15SAPS   O14 1877   4.376   1.162   5.751  0.3006 -0.2587  0.0879
   15SAPS   O12 1878   4.461   0.998   5.913  0.3292 -0.7370  0.1565
   15SAPS   O11 1879   4.453   1.241   5.975  0.1507  0.2223 -0.1642
   15SAPS    C1 1880   4.553   1.258   6.077 -0.3780 -0.4614 -0.2331
   15SAPS    HA 1881   4.654   1.232   6.038 -0.2259  0.0624 -0.1946
   15SAPS    HB 1882   4.562   1.366   6.100  2.5697 -1.1285  2.3673
   15SAPS    C2 1883   4.525   1.174   6.209  0.2401  0.0839  0.0718
   15SAPS    HS 1884   4.513   1.068   6.177 -2.2675  0.2405  0.3197
   15SAPS   O21 1885   4.413   1.233   6.277  0.3022 -0.4151 -0.2496
   15SAPS   C21 1886   4.348   1.152   6.354  0.4480 -0.0690 -0.6081
   15SAPS   O22 1887   4.353   1.028   6.346  0.2649 -0.3889 -0.1913
   15SAPS   C22 1888   4.250   1.232   6.446  0.0166  0.5243 -0.7207
   15SAPS   H2R 1889   4.195   1.304   6.381 -0.6184  0.2095 -0.5387
   15SAPS   H2S 1890   4.174   1.166   6.493  0.7716 -0.5109 -0.9018
   15SAPS    C3 1891   4.655   1.187   6.300 -0.2926  0.5385  0.6529
   15SAPS    HX 1892   4.671   1.294   6.326 -1.7190  1.2942 -1.3536
   15SAPS    HY 1893   4.740   1.149   6.240 -0.5182 -0.8272  1.1540
   15SAPS   O31 1894   4.637   1.117   6.426 -0.0849  0.6277  0.5277
   15SAPS   C31 1895   4.753   1.070   6.479  0.0316  0.2549  0.6311
   15SAPS   O32 1896   4.865   1.095   6.429  1.4727  0.6308  0.0241
   15SAPS   C32 1897   4.721   0.992   6.603  0.0911 -0.4228  0.6060
   15SAPS   H2X 1898   4.819   0.960   6.646  1.4329  0.1815 -1.8413
   15SAPS   H2Y 1899   4.681   0.892   6.577 -1.6360  0.7895 -1.6661
   15SAPS   C23 1900   4.336   1.309   6.551 -0.1710  0.2445  0.1119
   15SAPS   H3R 1901   4.435   1.342   6.512 -1.0726  2.3577 -0.5072
   15SAPS   H3S 1902   4.363   1.236   6.631  1.0233 -2.5383 -2.5979
   15SAPS   C24 1903   4.268   1.438   6.598  0.0274 -0.3360 -0.1638
   15SAPS   H4R 1904   4.251   1.506   6.512 -0.2403 -0.0000  0.1497
   15SAPS   H4S 1905   4.330   1.481   6.680  0.1217 -0.7936  0.0091
   15SAPS   C25 1906   4.128   1.409   6.656 -0.2721  0.1479  0.8625
   15SAPS   H5R 1907   4.048   1.397   6.582  0.0396 -2.7633  0.8736
   15SAPS   C26 1908   4.092   1.397   6.778 -0.7611  1.3024 -0.5345
   15SAPS   H6R 1909   3.991   1.361   6.801  1.0574 -2.9377  1.9095
   15SAPS   C27 1910   4.179   1.405   6.905 -0.1736  0.8762 -0.1778
   15SAPS   H7R 1911   4.148   1.501   6.952  0.0180  0.0025  1.8659
   15SAPS   H7S 1912   4.285   1.398   6.874  0.2485 -2.3852  1.4837
   15SAPS   C28 1913   4.161   1.290   7.006 -0.4550  0.0893  0.1017
   15SAPS   H8R 1914   4.149   1.191   6.958  1.0432 -0.5164  0.9074
   15SAPS   C29 1915   4.168   1.301   7.139  0.3943  0.4543  0.2797
   15SAPS   H9R 1916   4.158   1.207   7.196  0.3463  1.5117  2.0825
   15SAPS  C210 1917   4.195   1.425   7.220  0.7292 -0.2000 -0.6648
   15SAPS  H10R 1918   4.273   1.491   7.175 -2.3135  3.0418 -1.6260
   15SAPS  H10S 1919   4.232   1.406   7.323  1.2566  0.2473 -0.7712
   15SAPS  C211 1920   4.066   1.514   7.230 -0.2610 -0.5534 -0.1332
   15SAPS  H11R 1921   4.024   1.544   7.133  0.5421 -1.3021 -0.7337
   15SAPS  C212 1922   4.014   1.565   7.341  0.3912  0.8373 -0.8080
   15SAPS  H12R 1923   3.938   1.643   7.326  1.2935  1.4693 -2.2987
   15SAPS  C213 1924   4.066   1.550   7.482  0.3455  0.5770  1.0289
   15SAPS  H13R 1925   4.175   1.568   7.496  0.2878  2.0027 -0.0817
   15SAPS  H13S 1926   4.056   1.442   7.507  0.3644  0.3174 -0.0253
   15SAPS  C214 1927   3.998   1.643   7.579  0.1910  0.6130 -0.5289
   15SAPS  H14R 1928   4.036   1.746   7.573 -1.0835  1.0115 -2.9025
   15SAPS  C215 1929   3.908   1.604   7.670 -1.0733  0.1394  0.1232
   15SAPS  H15R 1930   3.854   1.672   7.737 -0.9906 -1.7463  2.2120
   15SAPS  C216 1931   3.856   1.461   7.701  0.0934  0.1590  1.0639
   15SAPS  H16R 1932   3.902   1.381   7.640 -0.4799  1.4016 -1.1218
   15SAPS  H16S 1933   3.749   1.436   7.682  0.9961 -3.1161 -0.4373
   15SAPS  C217 1934   3.875   1.418   7.848 -0.0013  0.3743  0.2339
   15SAPS  H17R 1935   3.977   1.447   7.880 -0.3683  1.0116  0.8462
   15SAPS  H17S 1936   3.873   1.307   7.854  1.5664  0.3231  0.1325
   15SAPS  C218 1937   3.771   1.494   7.939 -0.4465 -0.3285 -0.1095
   15SAPS  H18R 1938   3.671   1.457   7.907  0.0291 -0.0900 -1.9815
   15SAPS  H18S 1939   3.775   1.599   7.902  0.8458 -0.3663 -0.1072
   15SAPS  C219 1940   3.794   1.481   8.091  0.5363  0.2798  1.0572
   15SAPS  H19R 1941   3.836   1.581   8.115 -1.1881  1.8529 -1.9038
   15SAPS  H19S 1942   3.862   1.394   8.102 -0.4006 -0.7828 -1.0108
   15SAPS  C220 1943   3.667   1.464   8.174 -0.8787  0.6032  0.7534
   15SAPS  H20R 1944   3.693   1.447   8.280 -0.7771  1.1000  0.8116
   15SAPS  H20S 1945   3.607   1.382   8.129 -0.2817  0.3323  0.4264
   15SAPS  H20T 1946   3.597   1.549   8.170 -0.4383  0.9390 -2.0961
   15SAPS   C33 1947   4.635   1.066   6.700  0.4836 -0.4378 -0.2678
   15SAPS   H3X 1948   4.594   0.982   6.760  0.9030  0.9708  2.1180
   15SAPS   H3Y 1949   4.553   1.125   6.655 -0.6993  0.0710  2.3489
   15SAPS   C34 1950   4.713   1.154   6.796  0.0412 -0.2032  0.8791
   15SAPS   H4X 1951   4.772   1.225   6.734  0.7242 -0.0122  1.7436
   15SAPS   H4Y 1952   4.795   1.107   6.854  0.7831 -0.8228 -0.6134
   15SAPS   C35 1953   4.617   1.226   6.891 -0.4776 -0.3689  0.0631
   15SAPS   H5X 1954   4.553   1.153   6.944 -0.7688  0.9291  1.5424
   15SAPS   H5Y 1955   4.537   1.278   6.835 -0.2247 -1.4954 -1.4191
   15SAPS   C36 1956   4.687   1.319   6.996  0.6017  0.6535  0.4495
   15SAPS   H6X 1957   4.740   1.391   6.930 -0.7871  0.6906 -0.6778
   15SAPS   H6Y 1958   4.761   1.263   7.058  1.6429 -0.5265 -1.7609
   15SAPS   C37 1959   4.580   1.384   7.093 -0.5549  0.1491  0.3114
   15SAPS   H7X 1960   4.522   1.307   7.147 -2.3508  0.7864 -0.6237
   15SAPS   H7Y 1961   4.513   1.459   7.045 -0.2113  0.1870 -0.1179
   15SAPS   C38 1962   4.652   1.467   7.199 -0.4964 -0.3027 -0.1842
   15SAPS   H8X 1963   4.710   1.545   7.146  1.7460 -1.0675  0.9992
   15SAPS   H8Y 1964   4.733   1.406   7.244 -0.4904 -0.0922  0.1000
   15SAPS   C39 1965   4.561   1.517   7.306  0.0994 -0.2356  0.3432
   15SAPS   H9X 1966   4.499   1.433   7.346  0.7140 -0.9439 -0.1655
   15SAPS   H9Y 1967   4.485   1.588   7.266  1.3036  1.7564  1.4404
   15SAPS  C310 1968   4.627   1.599   7.421 -0.7391  0.0819  0.3333
   15SAPS  H10X 1969   4.664   1.695   7.378  1.1758 -1.0130 -0.5662
   15SAPS  H10Y 1970   4.725   1.552   7.442 -0.7638 -0.9131 -1.5399
   15SAPS  C311 1971   4.538   1.634   7.537  0.3243  0.0143 -0.3327
   15SAPS  H11X 1972   4.434   1.648   7.499 -0.2045 -1.4167  0.5004
   15SAPS  H11Y 1973   4.584   1.726   7.577 -0.7004 -0.3909  1.9311
   15SAPS  C312 1974   4.538   1.531   7.646  0.1740  0.5004 -0.2692
   15SAPS  H12X 1975   4.637   1.513   7.692 -0.0649 -2.9138 -0.8238
   15SAPS  H12Y 1976   4.508   1.432   7.605 -3.6594  0.6846  1.6053
   15SAPS  C313 1977   4.430   1.556   7.749 -0.3660 -0.0643 -0.6403
   15SAPS  H13X 1978   4.344   1.602   7.695 -1.4535 -2.2621 -0.8992
   15SAPS  H13Y 1979   4.468   1.633   7.819  1.8762 -2.1972  0.6298
   15SAPS  C314 1980   4.389   1.430   7.827 -0.2677  0.8509  0.3782
   15SAPS  H14X 1981   4.473   1.380   7.881 -0.1153  1.5199  0.7746
   15SAPS  H14Y 1982   4.341   1.358   7.758  0.5097  1.5366 -0.9072
   15SAPS  C315 1983   4.282   1.469   7.936 -0.0559 -0.3803 -0.2870
   15SAPS  H15X 1984   4.185   1.488   7.887 -0.8433 -2.0000  0.5762
   15SAPS  H15Y 1985   4.320   1.567   7.974  1.9428 -0.5807 -1.5753
   15SAPS  C316 1986   4.273   1.373   8.052  0.7889 -0.3937  0.8382
   15SAPS  H16X 1987   4.369   1.325   8.080  1.2607 -1.5053 -2.2405
   15SAPS  H16Y 1988   4.222   1.278   8.024  1.5459 -0.3409 -0.8589
   15SAPS  C317 1989   4.199   1.430   8.176  0.3585 -0.4125  0.3684
   15SAPS  H17X 1990   4.118   1.494   8.137 -1.2061 -2.6315 -0.2596
   15SAPS  H17Y 1991   4.273   1.491   8.232 -0.8156  1.2323  0.1963
   15SAPS  C318 1992   4.133   1.330   8.264 -0.1970 -0.5543 -0.4260
   15SAPS  H18X 1993   4.072   1.384   8.339  0.3110 -0.7506  0.1379
   15SAPS  H18Y 1994   4.205   1.264   8.318 -0.9062 -1.7154 -0.8533
   15SAPS  H18Z 1995   4.058   1.269   8.209  0.2106 -0.7797 -0.7433
   16SAPS     N 1996   0.698   3.442   6.405 -0.3161 -0.0022  0.0146
   16SAPS   HN1 1997   0.756   3.402   6.481  1.4847  0.6819 -0.9378
   16SAPS   HN2 1998   0.602   3.464   6.436  0.2344 -1.8860  3.6896
   16SAPS   HN3 1999   0.695   3.372   6.328  1.4802  2.5766 -2.5884
   16SAPS   C12 2000   0.779   3.558   6.353  0.3339 -0.0985 -0.4344
   16SAPS  H12A 2001   0.851   3.533   6.276  0.6332  0.1617 -0.2450
   16SAPS   C13 2002   0.688   3.668   6.292  0.2671  0.4430  0.2314
   16SAPS  O13A 2003   0.563   3.640   6.278 -0.1756 -0.2179 -0.2915
   16SAPS  O13B 2004   0.729   3.780   6.253  0.0265  0.4937  0.5362
   16SAPS   C11 2005   0.878   3.627   6.456  0.4103  0.2434  0.0429
   16SAPS  H11A 2006   0.819   3.660   6.545 -0.5225 -0.1652 -0.4030
   16SAPS  H11B 2007   0.922   3.721   6.417  2.1410 -0.3791  0.4075
   16SAPS     P 2008   0.978   3.437   6.611 -0.2770  0.1579 -0.0705
   16SAPS   O13 2009   0.837   3.390   6.632  0.6621 -0.0549  0.4344
   16SAPS   O14 2010   1.074   3.328   6.601  0.7527 -0.0652 -0.3747
   16SAPS   O12 2011   0.980   3.540   6.486 -0.1365  0.3731 -0.0372
   16SAPS   O11 2012   1.018   3.531   6.728  0.3192 -0.1345 -0.1614
   16SAPS    C1 2013   0.935   3.622   6.802  0.1852 -0.0153 -0.8278
   16SAPS    HA 2014   0.977   3.725   6.796 -1.0611  0.8807  2.9311
   16SAPS    HB 2015   0.834   3.625   6.756 -0.5676 -3.7427  0.2012
   16SAPS    C2 2016   0.923   3.589   6.949 -0.6165 -0.1381  0.7230
   16SAPS    HS 2017   0.865   3.671   6.996 -1.3059  0.3587 -0.9371
   16SAPS   O21 2018   1.051   3.550   7.004  0.0551 -0.3885 -0.0318
   16SAPS   C21 2019   1.122   3.654   7.057  0.0389 -0.0805 -0.4417
   16SAPS   O22 2020   1.088   3.767   7.046  0.2798  0.2209  0.2456
   16SAPS   C22 2021   1.238   3.599   7.141  0.0414 -0.5336  0.5589
   16SAPS   H2R 2022   1.209   3.512   7.203  1.3838 -2.2048 -1.0576
   16SAPS   H2S 2023   1.318   3.553   7.078  1.7739 -0.5797  2.6659
   16SAPS    C3 2024   0.819   3.475   6.962  0.1382 -0.4127 -0.1112
   16SAPS    HX 2025   0.861   3.386   6.911  2.2042  0.3905  0.0736
   16SAPS    HY 2026   0.735   3.511   6.899 -0.6703 -1.0125  0.5954
   16SAPS   O31 2027   0.783   3.464   7.104 -0.1758  0.4842  0.3494
   16SAPS   C31 2028   0.659   3.493   7.138  0.3345  0.8509  0.2324
   16SAPS   O32 2029   0.575   3.523   7.055  0.2338  0.4500 -0.3550
   16SAPS   C32 2030   0.636   3.478   7.289  0.0374  0.0882 -0.5277
   16SAPS   H2X 2031   0.704   3.406   7.340 -0.3182 -0.0017 -0.1734
   16SAPS   H2Y 2032   0.535   3.433   7.293  0.3306 -0.5337  0.3107
   16SAPS   C23 2033   1.299   3.704   7.238 -0.0120 -0.4948 -0.3361
   16SAPS   H3R 2034   1.292   3.802   7.185 -3.3542  0.1717  1.0553
   16SAPS   H3S 2035   1.404   3.685   7.269  0.3128  0.8844 -0.5232
   16SAPS   C24 2036   1.237   3.704   7.375 -0.2544  0.0971  0.4578
   16SAPS   H4R 2037   1.288   3.782   7.435 -0.5440 -1.1703  2.4453
   16SAPS   H4S 2038   1.265   3.608   7.422 -2.3246 -0.6151  0.3536
   16SAPS   C25 2039   1.089   3.714   7.383 -0.0312 -0.6748 -0.2662
   16SAPS   H5R 2040   1.036   3.674   7.295 -0.8970 -0.5544  0.1891
   16SAPS   C26 2041   1.017   3.751   7.491  0.1008  0.3404  0.3802
   16SAPS   H6R 2042   0.910   3.772   7.477  0.4061  1.3237 -0.6523
   16SAPS   C27 2043   1.075   3.780   7.627  0.7194  0.5275  0.3925
   16SAPS   H7R 2044   1.082   3.890   7.641  0.0366  0.5544  0.5539
   16SAPS   H7S 2045   1.176   3.733   7.625  0.0282 -1.0019  0.3513
   16SAPS   C28 2046   0.977   3.726   7.736  0.1479  0.1939 -0.3521
   16SAPS   H8R 2047   0.872   3.755   7.722  0.3815  0.8066 -0.8843
   16SAPS   C29 2048   1.011   3.660   7.852  0.9065 -0.2353  0.9631
   16SAPS   H9R 2049   0.931   3.647   7.927 -2.6552 -0.3195 -2.5182
   16SAPS  C210 2050   1.146   3.613   7.893 -0.0228  0.4284 -0.3778
   16SAPS  H10R 2051   1.207   3.583   7.805 -0.6973 -1.2655 -0.3058
   16SAPS  H10S 2052   1.133   3.517   7.947  2.4781  1.3195  2.0486
   16SAPS  C211 2053   1.219   3.715   7.977 -0.0503  0.0566  0.3667
   16SAPS  H11R 2054   1.210   3.818   7.937  1.8118  0.3810  0.6772
   16SAPS  C212 2055   1.288   3.697   8.090  0.2415  0.0803  0.1954
   16SAPS  H12R 2056   1.341   3.784   8.132  1.7622 -0.7464  0.0397
   16SAPS  C213 2057   1.302   3.561   8.172  0.0772 -0.2497 -0.1682
   16SAPS  H13R 2058   1.413   3.552   8.181  0.2490  1.1689 -0.5830
   16SAPS  H13S 2059   1.273   3.478   8.104  0.5204 -0.5937  0.0614
   16SAPS  C214 2060   1.232   3.546   8.304  0.0585 -0.0305 -0.4689
   16SAPS  H14R 2061   1.123   3.559   8.295 -0.5454 -2.9039  1.2622
   16SAPS  C215 2062   1.278   3.534   8.428 -0.2839 -0.2205  1.0604
   16SAPS  H15R 2063   1.200   3.545   8.506  1.3101  1.0064  2.5558
   16SAPS  C216 2064   1.416   3.508   8.479  0.2410 -0.0510  0.0037
   16SAPS  H16R 2065   1.491   3.513   8.397 -0.7223  0.0906 -0.8975
   16SAPS  H16S 2066   1.407   3.406   8.522 -1.4490 -0.4272 -1.1308
   16SAPS  C217 2067   1.444   3.631   8.571  0.0882  0.2409  0.2937
   16SAPS  H17R 2068   1.548   3.607   8.602  0.7505  2.1128 -0.3572
   16SAPS  H17S 2069   1.382   3.646   8.663  0.9927  1.0679  0.7822
   16SAPS  C218 2070   1.464   3.773   8.501  0.0712 -0.0967  0.0334
   16SAPS  H18R 2071   1.481   3.860   8.568 -0.7171  0.5595 -0.5945
   16SAPS  H18S 2072   1.371   3.798   8.445  0.2043 -0.2862 -0.2721
   16SAPS  C219 2073   1.574   3.773   8.392  0.6245  0.1227  0.0293
   16SAPS  H19R 2074   1.552   3.711   8.303 -3.3274  1.9088 -0.4450
   16SAPS  H19S 2075   1.663   3.743   8.451  1.1430  1.0770 -0.2346
   16SAPS  C220 2076   1.604   3.915   8.342  0.6738  0.1868 -0.3618
   16SAPS  H20R 2077   1.625   3.969   8.437  0.7562 -0.1262 -0.2012
   16SAPS  H20S 2078   1.527   3.966   8.280 -2.0827 -2.0147  1.0352
   16SAPS  H20T 2079   1.691   3.908   8.274  0.0356 -2.5088 -1.0195
   16SAPS   C33 2080   0.636   3.615   7.362 -1.1716 -0.4507  0.9133
   16SAPS   H3X 2081   0.628   3.706   7.299  0.1383 -0.0918  1.2302
   16SAPS   H3Y 2082   0.735   3.621   7.413  0.0454 -1.0039 -1.2559
   16SAPS   C34 2083   0.520   3.621   7.459 -0.2220  0.0276 -0.3263
   16SAPS   H4X 2084   0.426   3.617   7.401 -1.8837  2.4172  1.9362
   16SAPS   H4Y 2085   0.518   3.720   7.510 -0.7430 -0.4205  0.5512
   16SAPS   C35 2086   0.512   3.506   7.563  0.1027 -0.6270  0.3720
   16SAPS   H5X 2087   0.598   3.522   7.632 -0.2089 -0.0226  0.6303
   16SAPS   H5Y 2088   0.513   3.401   7.525 -2.2626 -0.3193 -0.7096
   16SAPS   C36 2089   0.386   3.498   7.649  0.9011  0.0468  0.4592
   16SAPS   H6X 2090   0.297   3.495   7.584  1.2620 -0.5068 -0.0235
   16SAPS   H6Y 2091   0.382   3.593   7.707 -2.1514 -0.5057  1.2917
   16SAPS   C37 2092   0.391   3.388   7.745 -0.2057  0.2556 -0.1017
   16SAPS   H7X 2093   0.477   3.392   7.814 -1.8710 -0.3816  2.1249
   16SAPS   H7Y 2094   0.419   3.296   7.690  1.4922 -0.7912  2.3486
   16SAPS   C38 2095   0.256   3.368   7.817  0.2626 -0.3324 -0.3449
   16SAPS   H8X 2096   0.177   3.366   7.738  1.3353  0.1772 -1.4631
   16SAPS   H8Y 2097   0.238   3.451   7.888  1.8987 -0.9441  0.8287
   16SAPS   C39 2098   0.246   3.235   7.890  0.2943  0.0108 -0.0126
   16SAPS   H9X 2099   0.321   3.222   7.971  0.7528  0.3095 -0.3891
   16SAPS   H9Y 2100   0.258   3.155   7.814 -0.7679  1.5248 -1.8668
   16SAPS  C310 2101   0.102   3.199   7.951 -0.2889 -0.4270  0.0231
   16SAPS  H10X 2102   0.110   3.089   7.967  0.9053 -0.2071  1.0158
   16SAPS  H10Y 2103   0.018   3.229   7.885 -0.3821 -0.0333  0.3208
   16SAPS  C311 2104   0.081   3.271   8.086 -0.6000 -0.0766 -0.3217
   16SAPS  H11X 2105   0.081   3.381   8.073  0.5903 -0.1630 -1.1858
   16SAPS  H11Y 2106   0.165   3.234   8.148 -1.0848 -1.4501 -0.4368
   16SAPS  C312 2107  -0.054   3.228   8.148  0.7824 -0.0793 -0.3070
   16SAPS  H12X 2108  -0.053   3.117   8.153  3.0017 -0.0486  1.9029
   16SAPS  H12Y 2109  -0.136   3.267   8.084  1.1124  1.3413  0.0868
   16SAPS  C313 2110  -0.074   3.273   8.303  0.2138  0.2946  0.1890
   16SAPS  H13X 2111  -0.000   3.230   8.374  0.5839  0.7090  0.0606
   16SAPS  H13Y 2112  -0.173   3.238   8.338  0.3428 -0.3026 -0.0355
   16SAPS  C314 2113  -0.051   3.426   8.323 -0.5773  0.0005 -0.3694
   16SAPS  H14X 2114  -0.119   3.487   8.259 -0.1027  0.8055 -0.1257
   16SAPS  H14Y 2115   0.050   3.462   8.292 -0.2859  1.8169  2.3450
   16SAPS  C315 2116  -0.086   3.475   8.464  0.0112 -0.0297 -0.4642
   16SAPS  H15X 2117  -0.048   3.406   8.542 -0.4032 -0.9211 -1.0371
   16SAPS  H15Y 2118  -0.196   3.463   8.463 -0.4442  3.3019 -1.3026
   16SAPS  C316 2119  -0.040   3.611   8.511  0.1564 -0.1723 -0.0674
   16SAPS  H16X 2120  -0.077   3.622   8.615 -1.9523 -3.2782 -0.3397
   16SAPS  H16Y 2121  -0.094   3.692   8.457  2.1452 -0.6588 -3.0326
   16SAPS  C317 2122   0.112   3.642   8.493 -0.1584 -0.1650  0.7469
   16SAPS  H17X 2123   0.136   3.691   8.396  1.7372 -2.8678 -0.2846
   16SAPS  H17Y 2124   0.177   3.553   8.478 -0.2144 -0.1454  0.3799
   16SAPS  C318 2125   0.165   3.716   8.610  0.0405 -0.2961 -0.3598
   16SAPS  H18X 2126   0.122   3.818   8.615 -0.1780 -0.3547 -0.9007
   16SAPS  H18Y 2127   0.276   3.721   8.606  0.0714 -0.2449  0.4423
   16SAPS  H18Z 2128   0.140   3.669   8.707 -0.0574  1.8224  0.6931
   17SAPC     N 2129   4.357   1.029  10.807  0.0327 -0.3492  0.1054
   17SAPC   C12 2130   4.250   1.084  10.721  0.9285  0.4326  0.3795
   17SAPC  H12A 2131   4.272   1.189  10.708 -0.2824  0.7388  0.6268
   17SAPC  H12B 2132   4.160   1.091  10.781  1.6002  3.6303  1.1864
   17SAPC   C13 2133   4.497   1.044  10.744  0.1959  0.6303  1.0642
   17SAPC  H13A 2134   4.569   1.033  10.824 -0.4492 -1.0792  1.4563
   17SAPC  H13B 2135   4.506   0.964  10.672 -0.5123  2.0712 -0.6924
   17SAPC  H13C 2136   4.520   1.129  10.682 -0.2492 -0.0127 -0.0071
   17SAPC   C14 2137   4.356   1.110  10.931  0.0572  0.3997  0.7739
   17SAPC  H14A 2138   4.272   1.097  10.999  0.5784  0.5585  1.4592
   17SAPC  H14B 2139   4.442   1.085  10.991  1.1738 -0.0884 -0.9647
   17SAPC  H14C 2140   4.365   1.214  10.904  0.5568  0.1913  0.1216
   17SAPC   C15 2141   4.325   0.885  10.838  0.9542  0.3067 -0.3881
   17SAPC  H15A 2142   4.314   0.820  10.752 -0.2943  0.9444 -0.7334
   17SAPC  H15B 2143   4.389   0.854  10.919 -1.5700  1.9374  2.4559
   17SAPC  H15C 2144   4.233   0.895  10.895  0.4039  0.8885 -1.3432
   17SAPC   C11 2145   4.238   1.029  10.580 -0.3699 -0.1872 -0.0772
   17SAPC  H11A 2146   4.338   1.000  10.540 -0.4658 -1.0806  0.3196
   17SAPC  H11B 2147   4.200   1.102  10.505 -0.8567 -0.3723 -0.0087
   17SAPC     P 2148   4.000   0.914  10.573  0.0711  0.2597  0.0068
   17SAPC   O13 2149   3.941   0.791  10.511  0.1974  0.0861 -0.4690
   17SAPC   O14 2150   3.949   0.947  10.708 -0.1089  0.7891 -0.1386
   17SAPC   O12 2151   4.160   0.905  10.583 -0.8324  0.6652  0.3756
   17SAPC   O11 2152   3.988   1.030  10.473 -0.3330 -0.2946 -0.5456
   17SAPC    C1 2153   3.896   1.044  10.368 -0.8383  0.2201  0.3912
   17SAPC    HA 2154   3.799   0.993  10.385 -0.2352 -1.1167 -0.0607
   17SAPC    HB 2155   3.879   1.153  10.356  1.0462  0.3171 -2.6965
   17SAPC    C2 2156   3.962   0.995  10.238  0.1424  0.4746  0.4441
   17SAPC    HS 2157   3.904   1.039  10.155  2.9675  1.6749 -1.0123
   17SAPC   O21 2158   3.957   0.852  10.226  0.3146 -0.2046  0.0527
   17SAPC   C21 2159   3.841   0.788  10.225  0.3728  0.2735 -0.2685
   17SAPC   O22 2160   3.731   0.842  10.228  1.0577  0.4347 -0.0449
   17SAPC   C22 2161   3.868   0.633  10.226  0.1055 -0.5680 -0.3465
   17SAPC   H2R 2162   3.970   0.596  10.251 -0.4239 -2.0957 -0.3507
   17SAPC   H2S 2163   3.800   0.598  10.307  1.2483  1.3683  1.5708
   17SAPC    C3 2164   4.106   1.054  10.214  0.6478 -0.1740 -0.5168
   17SAPC    HX 2165   4.174   0.996  10.280  1.2473 -0.2041 -1.1473
   17SAPC    HY 2166   4.116   1.161  10.243 -1.3717 -0.4590  1.4435
   17SAPC   O31 2167   4.147   1.021  10.084 -0.2093 -0.7314  0.6112
   17SAPC   C31 2168   4.263   1.076  10.045 -0.5293 -0.6477  0.8114
   17SAPC   O32 2169   4.337   1.138  10.113 -0.1227 -0.3660 -0.0286
   17SAPC   C32 2170   4.301   1.021   9.904 -0.2961 -1.1183  0.3614
   17SAPC   H2X 2171   4.207   0.996   9.850 -0.1027 -0.8006 -0.1335
   17SAPC   H2Y 2172   4.353   0.923   9.900 -0.4357 -1.1690 -0.4595
   17SAPC   C23 2173   3.815   0.581  10.093  0.3039  0.2114  0.1417
   17SAPC   H3R 2174   3.710   0.613  10.075  0.7121  0.5482 -1.9721
   17SAPC   H3S 2175   3.810   0.470  10.099 -2.3180  0.2619  0.1187
   17SAPC   C24 2176   3.902   0.624   9.968  0.7645  0.2237 -0.1240
   17SAPC   H4R 2177   4.007   0.588   9.978  0.6606 -0.6494 -1.7234
   17SAPC   H4S 2178   3.904   0.735   9.974 -2.4761  0.2972  1.5509
   17SAPC   C25 2179   3.839   0.597   9.832 -0.2250  0.2980  0.4457
   17SAPC   H5R 2180   3.755   0.526   9.832  0.7749 -0.9289  0.8380
   17SAPC   C26 2181   3.879   0.637   9.710 -0.3198 -0.7857 -0.2778
   17SAPC   H6R 2182   3.825   0.596   9.623 -0.8406  0.8338 -0.7503
   17SAPC   C27 2183   3.995   0.726   9.681 -0.8253  0.2045 -0.7984
   17SAPC   H7R 2184   3.982   0.819   9.740 -2.5352 -1.4687  1.6157
   17SAPC   H7S 2185   4.002   0.763   9.576  0.4335  0.2160 -0.7219
   17SAPC   C28 2186   4.137   0.668   9.708  0.4530  0.0500  0.6197
   17SAPC   H8R 2187   4.144   0.639   9.813  1.8623  1.2708  0.8999
   17SAPC   C29 2188   4.238   0.644   9.619  0.1521 -0.2530 -0.3859
   17SAPC   H9R 2189   4.329   0.603   9.666 -0.4373  0.3554  1.3412
   17SAPC  C210 2190   4.238   0.678   9.465  0.2742 -0.4633 -0.5552
   17SAPC  H10R 2191   4.135   0.681   9.424 -0.6142  3.0352  1.4886
   17SAPC  H10S 2192   4.300   0.606   9.408  0.0206 -1.5283  0.4933
   17SAPC  C211 2193   4.291   0.820   9.441  0.2440  0.2855  0.3302
   17SAPC  H11R 2194   4.291   0.903   9.513 -3.0830  0.5362  0.1922
   17SAPC  C212 2195   4.327   0.855   9.317 -0.0318 -0.2456  0.1330
   17SAPC  H12R 2196   4.350   0.962   9.304  0.5057 -0.2746  0.8063
   17SAPC  C213 2197   4.321   0.777   9.185 -0.6201  0.1478  0.0568
   17SAPC  H13R 2198   4.234   0.809   9.124 -0.8581 -0.4258  0.0932
   17SAPC  H13S 2199   4.316   0.667   9.192  0.5817 -0.1087 -2.3529
   17SAPC  C214 2200   4.450   0.799   9.114 -0.3524  0.6373  0.0864
   17SAPC  H14R 2201   4.524   0.722   9.140  1.5103  2.2988 -0.0864
   17SAPC  C215 2202   4.478   0.893   9.020 -0.2254 -0.3100  0.6228
   17SAPC  H15R 2203   4.581   0.887   8.981  0.2930  2.7284  1.2604
   17SAPC  C216 2204   4.386   1.002   8.958 -0.7584  0.2270 -0.0294
   17SAPC  H16R 2205   4.453   1.071   8.903 -0.4429 -1.5484 -1.9712
   17SAPC  H16S 2206   4.330   1.055   9.038 -0.0440 -0.7573  1.1662
   17SAPC  C217 2207   4.286   0.951   8.860 -0.5844  0.5429 -0.3712
   17SAPC  H17R 2208   4.208   0.899   8.920  0.1714  1.5837  1.6331
   17SAPC  H17S 2209   4.334   0.879   8.790  0.2014  1.9017 -1.2768
   17SAPC  C218 2210   4.225   1.062   8.777  0.1256 -0.0950 -0.3343
   17SAPC  H18R 2211   4.303   1.109   8.713  0.7448 -0.4503  0.1508
   17SAPC  H18S 2212   4.183   1.138   8.847  0.0887 -0.1998 -0.2430
   17SAPC  C219 2213   4.106   1.004   8.692 -0.2241 -0.1324 -0.2998
   17SAPC  H19R 2214   4.144   0.946   8.606  2.4747 -1.8945  1.9059
   17SAPC  H19S 2215   4.063   1.098   8.652 -0.7367  0.9972  2.6258
   17SAPC  C220 2216   3.992   0.913   8.740  0.4162 -1.1582  0.4425
   17SAPC  H20R 2217   3.942   0.963   8.826  1.8325 -0.0427  0.6628
   17SAPC  H20S 2218   4.025   0.812   8.772  3.5551  0.1835  1.8431
   17SAPC  H20T 2219   3.917   0.889   8.662 -3.0793  0.4391  3.0238
   17SAPC   C33 2220   4.384   1.123   9.817  0.0959  0.0644  0.5914
   17SAPC   H3X 2221   4.407   1.219   9.868 -1.1509  0.5583  0.2638
   17SAPC   H3Y 2222   4.320   1.140   9.727  2.3817  0.0439 -1.1217
   17SAPC   C34 2223   4.517   1.060   9.769 -0.3575  0.6816  0.4761
   17SAPC   H4X 2224   4.490   0.957   9.737  0.6008 -0.4956  3.1732
   17SAPC   H4Y 2225   4.580   1.040   9.858  1.0657  0.7661 -0.4904
   17SAPC   C35 2226   4.588   1.127   9.653 -0.1277 -0.1065  0.1619
   17SAPC   H5X 2227   4.675   1.068   9.616 -1.0179 -0.4451 -1.4918
   17SAPC   H5Y 2228   4.643   1.216   9.692 -0.9549 -0.0701  1.3032
   17SAPC   C36 2229   4.495   1.157   9.531 -0.3468 -0.1161 -0.7014
   17SAPC   H6X 2230   4.428   1.242   9.555  2.9101  2.1335  1.2764
   17SAPC   H6Y 2231   4.431   1.070   9.503  1.5388 -2.3399  1.3809
   17SAPC   C37 2232   4.584   1.201   9.413 -0.7865  1.3617 -0.9292
   17SAPC   H7X 2233   4.644   1.117   9.371 -0.5339  0.9079  0.2993
   17SAPC   H7Y 2234   4.658   1.280   9.437 -0.4310  0.3999  1.3654
   17SAPC   C38 2235   4.499   1.252   9.298  0.3646  0.1978 -0.0467
   17SAPC   H8X 2236   4.442   1.339   9.337  2.1787  1.8601 -0.9095
   17SAPC   H8Y 2237   4.421   1.178   9.272 -1.3472  0.9287  2.5854
   17SAPC   C39 2238   4.590   1.304   9.194  0.4636  0.1172  0.4869
   17SAPC   H9X 2239   4.672   1.233   9.169  1.0805  1.5488 -1.8576
   17SAPC   H9Y 2240   4.649   1.393   9.227  2.1081 -0.7987  0.1537
   17SAPC  C310 2241   4.504   1.343   9.071 -0.4123  0.0355 -0.1724
   17SAPC  H10X 2242   4.448   1.430   9.112  2.6178  1.0050  2.3118
   17SAPC  H10Y 2243   4.434   1.270   9.026  1.1964 -1.0837 -0.9649
   17SAPC  C311 2244   4.593   1.391   8.949  0.8403  0.2750  0.1470
   17SAPC  H11X 2245   4.650   1.305   8.907  1.3244 -0.3413  1.9660
   17SAPC  H11Y 2246   4.662   1.464   8.996 -0.5182  1.6927  0.0285
   17SAPC  C312 2247   4.510   1.462   8.839  0.3483 -0.4250  0.0134
   17SAPC  H12X 2248   4.572   1.498   8.755  0.4680  1.3197  0.8084
   17SAPC  H12Y 2249   4.470   1.559   8.876 -0.0016  0.9720 -3.5782
   17SAPC  C313 2250   4.391   1.385   8.774 -0.7603 -0.1006  0.6492
   17SAPC  H13X 2251   4.328   1.341   8.854  0.8165 -2.6538  0.6203
   17SAPC  H13Y 2252   4.434   1.310   8.704  0.3123  0.9384  0.1618
   17SAPC  C314 2253   4.299   1.488   8.697 -0.0904  0.2352 -0.0281
   17SAPC  H14X 2254   4.364   1.541   8.624  0.7310 -0.1646  0.3956
   17SAPC  H14Y 2255   4.266   1.568   8.766 -0.5560 -0.6473  0.7830
   17SAPC  C315 2256   4.180   1.418   8.634  0.2065  0.4935  0.2646
   17SAPC  H15X 2257   4.134   1.362   8.719 -0.5371 -1.3794 -1.2770
   17SAPC  H15Y 2258   4.215   1.344   8.559  0.0771 -1.0767  1.6926
   17SAPC  C316 2259   4.067   1.511   8.578 -0.2031  0.0410 -0.4242
   17SAPC  H16X 2260   3.991   1.455   8.520  0.7511 -2.0270  0.2280
   17SAPC  H16Y 2261   4.125   1.589   8.524  0.0911  0.4503  0.4733
   17SAPC  C317 2262   4.002   1.570   8.701 -0.3942  0.1568 -0.3378
   17SAPC  H17X 2263   3.957   1.666   8.669 -0.7981 -0.3277 -1.2640
   17SAPC  H17Y 2264   4.071   1.588   8.786  0.4367 -0.1187 -0.9436
   17SAPC  C318 2265   3.881   1.488   8.751  0.2197 -0.1224  0.4516
   17SAPC  H18X 2266   3.881   1.500   8.862  0.7525  0.7138  0.3694
   17SAPC  H18Y 2267   3.789   1.528   8.703  1.8682  1.2373 -1.7275
   17SAPC  H18Z 2268   3.898   1.380   8.730 -0.6917 -0.1385 -0.2602
   18SAPC     N 2269   4.968   0.477  10.684  0.0404 -0.0427 -0.2634
   18SAPC   C12 2270   5.015   0.355  10.756 -0.7089 -0.1235  0.2115
   18SAPC  H12A 2271   4.933   0.314  10.813 -0.9450  1.2838  0.9100
   18SAPC  H12B 2272   5.084   0.385  10.833 -0.6855 -0.6807  0.4133
   18SAPC   C13 2273   4.914   0.581  10.785  0.1321 -0.0771 -0.2787
   18SAPC  H13A 2274   4.992   0.635  10.837  0.2432  0.5056 -1.0352
   18SAPC  H13B 2275   4.856   0.661  10.742  2.0503  1.4029 -0.2527
   18SAPC  H13C 2276   4.863   0.544  10.872  1.5257  0.4571  0.8020
   18SAPC   C14 2277   5.069   0.546  10.597 -0.3026  0.0187  0.0238
   18SAPC  H14A 2278   5.162   0.544  10.651 -0.1021 -1.2906 -0.3174
   18SAPC  H14B 2279   5.089   0.483  10.511 -0.8091 -2.2057  1.4520
   18SAPC  H14C 2280   5.030   0.639  10.560  0.0842  0.0765 -0.2460
   18SAPC   C15 2281   4.861   0.437  10.594 -0.1411  0.2229 -0.2366
   18SAPC  H15A 2282   4.782   0.395  10.654 -0.0702 -0.5855 -0.6868
   18SAPC  H15B 2283   4.823   0.517  10.532 -1.1313  0.3847  0.5492
   18SAPC  H15C 2284   4.889   0.355  10.530  0.2919 -0.6019  0.9781
   18SAPC   C11 2285   5.079   0.235  10.680 -0.1697 -0.1720 -0.0013
   18SAPC  H11A 2286   5.134   0.174  10.755  2.5871  1.6029 -0.4294
   18SAPC  H11B 2287   5.157   0.280  10.615  0.8360 -0.0420  1.2540
   18SAPC     P 2288   5.021   0.088  10.474  0.1978  0.0624 -0.0428
   18SAPC   O13 2289   5.129  -0.012  10.497 -0.4366  1.2418  0.1469
   18SAPC   O14 2290   4.894   0.031  10.426 -0.2341  0.0790 -0.3768
   18SAPC   O12 2291   4.983   0.171  10.606 -0.3160 -0.1192 -0.2525
   18SAPC   O11 2292   5.070   0.199  10.370 -0.0169 -0.4893 -0.3421
   18SAPC    C1 2293   5.207   0.220  10.336  0.1967 -0.0524 -0.4841
   18SAPC    HA 2294   5.213   0.331  10.341  0.5732  0.0004 -1.7834
   18SAPC    HB 2295   5.278   0.181  10.412  2.0655  2.1301 -1.0037
   18SAPC    C2 2296   5.241   0.171  10.195 -0.2601  0.4887 -0.1929
   18SAPC    HS 2297   5.329   0.221  10.149 -0.0360  0.2931  0.0283
   18SAPC   O21 2298   5.128   0.187  10.107  0.5323 -0.9298  0.3371
   18SAPC   C21 2299   5.112   0.302  10.050 -0.7372  0.0441  0.9123
   18SAPC   O22 2300   5.179   0.405  10.065 -0.6486 -0.0777  0.2783
   18SAPC   C22 2301   4.991   0.294   9.952  0.6983 -0.5389 -0.0683
   18SAPC   H2R 2302   4.963   0.189   9.932  0.9355 -1.0094  1.8897
   18SAPC   H2S 2303   4.913   0.353  10.004  0.6447  0.4010 -1.1643
   18SAPC    C3 2304   5.274   0.018  10.186  0.0767  0.5759 -0.4249
   18SAPC    HX 2305   5.181  -0.029  10.224 -0.3248  1.6854  0.0058
   18SAPC    HY 2306   5.348  -0.001  10.268 -2.1167  0.8547  1.7373
   18SAPC   O31 2307   5.313  -0.027  10.051 -0.4430 -0.4418 -0.0082
   18SAPC   C31 2308   5.445  -0.017  10.023 -0.5060 -0.3847 -0.3583
   18SAPC   O32 2309   5.534   0.014  10.103  0.0665  0.1840 -0.9493
   18SAPC   C32 2310   5.468  -0.053   9.876  0.3791 -0.1430 -0.0502
   18SAPC   H2X 2311   5.473  -0.164   9.869  1.0008 -0.0494 -1.3757
   18SAPC   H2Y 2312   5.555   0.005   9.840  0.2303 -0.8118 -1.5799
   18SAPC   C23 2313   5.029   0.374   9.827  0.1731 -0.4485  0.8513
   18SAPC   H3R 2314   5.059   0.477   9.854  0.7005  0.2120 -1.9392
   18SAPC   H3S 2315   4.933   0.373   9.771 -0.3128 -1.1570  1.6658
   18SAPC   C24 2316   5.138   0.311   9.747 -0.1724  0.1872  1.0714
   18SAPC   H4R 2317   5.109   0.204   9.736 -1.3978  0.4775  1.3712
   18SAPC   H4S 2318   5.232   0.312   9.807  3.4532  0.4036 -3.9361
   18SAPC   C25 2319   5.169   0.391   9.626  0.2342  0.8821 -0.3940
   18SAPC   H5R 2320   5.266   0.439   9.643  0.5368  0.2056 -0.1764
   18SAPC   C26 2321   5.119   0.390   9.503 -0.2162 -0.5375 -0.6884
   18SAPC   H6R 2322   5.148   0.469   9.432  0.6483  0.0384  0.2809
   18SAPC   C27 2323   5.012   0.296   9.456  0.5138 -0.5439 -0.0898
   18SAPC   H7R 2324   4.959   0.249   9.542  0.8212  1.0545  1.0317
   18SAPC   H7S 2325   5.060   0.214   9.399  1.4335  1.6921 -2.7155
   18SAPC   C28 2326   4.917   0.371   9.360  0.3838 -0.0318  0.1527
   18SAPC   H8R 2327   4.825   0.405   9.410  0.1100 -2.5384  1.5394
   18SAPC   C29 2328   4.939   0.398   9.227 -0.6407  0.5492  0.0837
   18SAPC   H9R 2329   4.863   0.456   9.171 -0.2105  1.4220  0.3845
   18SAPC  C210 2330   5.060   0.360   9.145  0.2101  0.1902  0.8673
   18SAPC  H10R 2331   5.156   0.340   9.196  1.5775  0.4117 -1.4543
   18SAPC  H10S 2332   5.086   0.450   9.085 -1.3221 -0.1299 -0.3614
   18SAPC  C211 2333   5.025   0.242   9.050  0.4662  0.4860  1.0682
   18SAPC  H11R 2334   4.950   0.167   9.079  3.5573 -3.3394  0.1812
   18SAPC  C212 2335   5.100   0.211   8.943  0.1511  0.0878  0.0027
   18SAPC  H12R 2336   5.071   0.134   8.870 -0.7845 -0.0912  0.5407
   18SAPC  C213 2337   5.220   0.291   8.894  0.2213  0.6933  0.5485
   18SAPC  H13R 2338   5.269   0.366   8.960  3.6053  0.6980 -1.7002
   18SAPC  H13S 2339   5.186   0.345   8.804 -2.2124  0.8257  1.4673
   18SAPC  C214 2340   5.334   0.200   8.858 -1.1846  0.7197  0.2939
   18SAPC  H14R 2341   5.344   0.104   8.911 -0.7856  0.0406 -0.9520
   18SAPC  C215 2342   5.422   0.231   8.762 -0.1496 -0.2740 -0.0747
   18SAPC  H15R 2343   5.510   0.169   8.736  2.1259  2.4821  0.5552
   18SAPC  C216 2344   5.425   0.366   8.692 -0.3189 -0.9358  0.4764
   18SAPC  H16R 2345   5.530   0.403   8.697 -0.4776 -0.5529  1.2532
   18SAPC  H16S 2346   5.365   0.452   8.730  3.6040  2.7071 -0.7284
   18SAPC  C217 2347   5.377   0.352   8.546  0.7173 -0.1833  0.2974
   18SAPC  H17R 2348   5.274   0.310   8.545  0.5145  0.3112 -0.5262
   18SAPC  H17S 2349   5.443   0.276   8.499 -1.7529 -3.0874  1.1766
   18SAPC  C218 2350   5.387   0.489   8.471  0.6395 -1.2551  0.0439
   18SAPC  H18R 2351   5.490   0.509   8.433 -0.2380 -0.7310 -2.2335
   18SAPC  H18S 2352   5.349   0.579   8.523 -2.6480 -0.6997 -2.9068
   18SAPC  C219 2353   5.315   0.485   8.334  0.2834 -0.0614  0.5065
   18SAPC  H19R 2354   5.205   0.480   8.347  0.3834 -0.2685  1.3615
   18SAPC  H19S 2355   5.361   0.402   8.278 -0.3380 -0.0686 -0.0063
   18SAPC  C220 2356   5.334   0.622   8.273  0.2052 -0.3605  0.1302
   18SAPC  H20R 2357   5.266   0.699   8.315 -0.3662 -0.6254 -0.3113
   18SAPC  H20S 2358   5.298   0.616   8.168  0.3657 -0.2632  0.0682
   18SAPC  H20T 2359   5.438   0.663   8.269  1.0541 -2.5132 -2.2386
   18SAPC   C33 2360   5.353  -0.017   9.777 -0.2031  0.1200 -0.5818
   18SAPC   H3X 2361   5.341   0.093   9.782  0.9426  0.2306  0.0627
   18SAPC   H3Y 2362   5.255  -0.061   9.806 -0.9401  0.8354 -1.9111
   18SAPC   C34 2363   5.382  -0.061   9.638  0.9211 -0.2225  0.0368
   18SAPC   H4X 2364   5.402  -0.170   9.638 -0.2331 -0.4495 -0.4748
   18SAPC   H4Y 2365   5.476  -0.014   9.603  0.9715 -0.7770 -0.5879
   18SAPC   C35 2366   5.277  -0.041   9.532 -0.0671 -0.6615 -0.7977
   18SAPC   H5X 2367   5.239   0.063   9.524 -0.6833 -1.0493 -4.0436
   18SAPC   H5Y 2368   5.186  -0.104   9.544 -0.0457 -0.5996 -0.2729
   18SAPC   C36 2369   5.341  -0.070   9.399  0.7338  0.2325 -0.5231
   18SAPC   H6X 2370   5.363  -0.179   9.404  1.4421  0.4269  2.1388
   18SAPC   H6Y 2371   5.431  -0.009   9.376  0.6965 -0.1916 -1.8830
   18SAPC   C37 2372   5.239  -0.037   9.290 -0.6531  0.0956 -0.1749
   18SAPC   H7X 2373   5.218   0.072   9.290  1.3931  0.5292 -0.1177
   18SAPC   H7Y 2374   5.147  -0.098   9.305  0.0500 -0.5341  1.9643
   18SAPC   C38 2375   5.286  -0.078   9.143 -0.3203 -0.1589  0.0913
   18SAPC   H8X 2376   5.381  -0.022   9.133  0.2602 -0.6235  2.3101
   18SAPC   H8Y 2377   5.207  -0.037   9.077  1.3698  0.6459 -1.5124
   18SAPC   C39 2378   5.313  -0.226   9.118  1.2045 -0.0362  0.1386
   18SAPC   H9X 2379   5.335  -0.280   9.213 -0.7483 -1.7768 -0.3426
   18SAPC   H9Y 2380   5.404  -0.220   9.055  0.1935 -1.4231 -1.5223
   18SAPC  C310 2381   5.205  -0.304   9.030  0.1729  0.1917 -0.4371
   18SAPC  H10X 2382   5.117  -0.311   9.097  1.2526 -0.2261  1.0095
   18SAPC  H10Y 2383   5.248  -0.407   9.036  0.6191  0.4220  0.5191
   18SAPC  C311 2384   5.177  -0.251   8.890 -0.0193 -0.3756 -0.1260
   18SAPC  H11X 2385   5.136  -0.149   8.903  1.8129  0.2816  0.8279
   18SAPC  H11Y 2386   5.094  -0.310   8.845  0.6558 -1.1474 -0.3890
   18SAPC  C312 2387   5.297  -0.263   8.798 -0.1061 -0.2506 -0.1824
   18SAPC  H12X 2388   5.317  -0.370   8.774 -0.4585 -0.8534  2.0562
   18SAPC  H12Y 2389   5.384  -0.228   8.858  0.0780  0.4331 -0.8255
   18SAPC  C313 2390   5.306  -0.185   8.665 -0.1549 -0.4622  0.1566
   18SAPC  H13X 2391   5.340  -0.081   8.679 -1.8806  0.0752  0.6250
   18SAPC  H13Y 2392   5.207  -0.177   8.616  0.7686  1.1156 -1.5518
   18SAPC  C314 2393   5.401  -0.255   8.560  0.0589 -0.8606  0.5822
   18SAPC  H14X 2394   5.377  -0.362   8.548  2.4012 -1.2576 -1.2908
   18SAPC  H14Y 2395   5.504  -0.252   8.603  0.1480 -2.0989  0.4737
   18SAPC  C315 2396   5.394  -0.185   8.419  0.5308 -0.0916  0.0932
   18SAPC  H15X 2397   5.289  -0.181   8.384  0.4901 -2.5379 -0.2583
   18SAPC  H15Y 2398   5.444  -0.254   8.348  0.6542 -0.7585  0.8094
   18SAPC  C316 2399   5.459  -0.041   8.412  0.1645  0.3872  0.4000
   18SAPC  H16X 2400   5.543  -0.046   8.484 -0.2589 -0.8583  0.8394
   18SAPC  H16Y 2401   5.388   0.034   8.452 -0.1982 -0.2304  0.9322
   18SAPC  C317 2402   5.493   0.010   8.272 -0.3182 -0.4884 -0.2450
   18SAPC  H17X 2403   5.536  -0.068   8.205  1.2692  1.2242 -1.3400
   18SAPC  H17Y 2404   5.564   0.095   8.284 -1.6448  0.2439  3.7752
   18SAPC  C318 2405   5.370   0.062   8.197  0.2459 -0.1014  0.6530
   18SAPC  H18X 2406   5.320   0.142   8.255  0.7413 -0.1186  1.1101
   18SAPC  H18Y 2407   5.287  -0.008   8.175  0.7858 -0.6469  0.3080
   18SAPC  H18Z 2408   5.400   0.102   8.097  0.8493 -2.5442 -0.2050
   19SAPC     N 2409   2.194   1.586  10.768 -0.1843  0.4545  0.0293
   19SAPC   C12 2410   2.168   1.595  10.620 -0.3244  0.3777 -0.1591
   19SAPC  H12A 2411   2.258   1.621  10.567  0.8432 -1.0560  1.0397
   19SAPC  H12B 2412   2.114   1.686  10.595  0.3633 -0.1935 -4.6243
   19SAPC   C13 2413   2.236   1.723  10.811 -0.1991 -0.3546 -0.9318
   19SAPC  H13A 2414   2.159   1.796  10.788  1.0502  1.0787 -0.7090
   19SAPC  H13B 2415   2.247   1.735  10.918 -1.6700  0.4178 -0.8422
   19SAPC  H13C 2416   2.331   1.758  10.774 -0.0719  0.2216 -0.0930
   19SAPC   C14 2417   2.071   1.550  10.853 -0.3810 -0.2039 -0.7647
   19SAPC  H14A 2418   2.043   1.447  10.838 -0.0188 -0.1284 -2.0771
   19SAPC  H14B 2419   2.088   1.571  10.958 -0.7965  0.5449 -0.8357
   19SAPC  H14C 2420   1.991   1.619  10.828 -3.7213 -2.6491  2.1610
   19SAPC   C15 2421   2.310   1.490  10.792 -0.2206 -0.0894 -0.3291
   19SAPC  H15A 2422   2.304   1.393  10.745  2.1306 -1.1323  1.3148
   19SAPC  H15B 2423   2.400   1.546  10.768 -0.5852 -0.5562 -3.1498
   19SAPC  H15C 2424   2.317   1.462  10.896 -0.1062  0.1722 -0.2641
   19SAPC   C11 2425   2.101   1.469  10.557 -0.2100  0.4368  0.4031
   19SAPC  H11A 2426   2.075   1.484  10.450 -1.4015 -0.0136  0.6132
   19SAPC  H11B 2427   2.001   1.457  10.604 -0.4295  1.2666  0.1637
   19SAPC     P 2428   2.272   1.293  10.460 -0.4591 -0.1453  0.0640
   19SAPC   O13 2429   2.368   1.402  10.414  0.6219  0.1224  0.0799
   19SAPC   O14 2430   2.348   1.175  10.502 -0.2555  0.3595 -0.2182
   19SAPC   O12 2431   2.185   1.352  10.572  0.2187  0.2689 -0.4247
   19SAPC   O11 2432   2.172   1.255  10.346 -0.0687 -0.2280 -0.5004
   19SAPC    C1 2433   2.054   1.181  10.354  0.0155  0.1903 -0.5230
   19SAPC    HA 2434   1.999   1.201  10.448  1.3078  3.7019 -0.3666
   19SAPC    HB 2435   1.988   1.206  10.268 -0.0032 -0.4761 -0.7125
   19SAPC    C2 2436   2.072   1.029  10.338 -0.0501  0.2574  0.1211
   19SAPC    HS 2437   2.131   1.002  10.428 -0.4848  0.3977  0.4526
   19SAPC   O21 2438   2.125   1.016  10.211 -0.1481  0.5939  0.8231
   19SAPC   C21 2439   2.247   0.968  10.203 -0.3741  0.1563 -0.2576
   19SAPC   O22 2440   2.309   0.922  10.296 -0.4691 -0.4365  0.0746
   19SAPC   C22 2441   2.293   0.986  10.055  0.7684 -0.3871 -0.2248
   19SAPC   H2R 2442   2.292   1.092  10.023 -1.9573  0.0135  0.9429
   19SAPC   H2S 2443   2.393   0.941  10.034  1.2854  0.8170 -0.4355
   19SAPC    C3 2444   1.931   0.960  10.332  0.3607 -0.9709 -0.2830
   19SAPC    HX 2445   1.886   0.972  10.433  0.8228 -0.4764 -0.1304
   19SAPC    HY 2446   1.942   0.849  10.324 -0.4253 -1.0586 -0.2288
   19SAPC   O31 2447   1.839   1.004  10.230  0.5345  0.0221 -0.0806
   19SAPC   C31 2448   1.833   0.934  10.117 -0.8829 -0.5987  0.0017
   19SAPC   O32 2449   1.876   0.824  10.100  0.1707  0.2055 -0.1611
   19SAPC   C32 2450   1.770   1.026  10.012 -0.0545  0.7362 -0.1465
   19SAPC   H2X 2451   1.853   1.089   9.972  0.2013  0.8444  0.5346
   19SAPC   H2Y 2452   1.691   1.084  10.065 -0.0637 -0.0132  0.6918
   19SAPC   C23 2453   2.194   0.919   9.954  0.0223 -0.6500  0.6489
   19SAPC   H3R 2454   2.204   0.963   9.853 -0.7804 -1.5145  0.1712
   19SAPC   H3S 2455   2.088   0.935   9.980 -0.1216 -0.8934  0.2206
   19SAPC   C24 2456   2.228   0.773   9.951 -0.1994  0.7647 -0.1366
   19SAPC   H4R 2457   2.228   0.734  10.055  0.6467  0.0405 -0.4013
   19SAPC   H4S 2458   2.333   0.773   9.915  0.6364 -1.7328  2.0011
   19SAPC   C25 2459   2.135   0.695   9.861 -0.5166  0.3191 -0.1100
   19SAPC   H5R 2460   2.029   0.694   9.889 -0.7960  0.9710 -1.0835
   19SAPC   C26 2461   2.149   0.659   9.731 -0.4260 -0.2592  0.4395
   19SAPC   H6R 2462   2.072   0.590   9.696 -2.0794  0.6336  2.1342
   19SAPC   C27 2463   2.273   0.674   9.645 -0.2080 -0.7694 -0.7656
   19SAPC   H7R 2464   2.280   0.595   9.567 -0.3817  1.0039 -2.6482
   19SAPC   H7S 2465   2.360   0.643   9.707  0.2852  3.8898  1.2673
   19SAPC   C28 2466   2.309   0.813   9.598  0.4016  0.1403  0.7558
   19SAPC   H8R 2467   2.243   0.897   9.625  4.1420  2.6271  3.1407
   19SAPC   C29 2468   2.404   0.836   9.501  0.3224  0.6438 -0.1678
   19SAPC   H9R 2469   2.438   0.940   9.487  0.4648  0.5691 -0.3726
   19SAPC  C210 2470   2.486   0.728   9.440 -0.9296 -0.1866 -0.1129
   19SAPC  H10R 2471   2.497   0.633   9.497  1.9256  0.3494  0.4197
   19SAPC  H10S 2472   2.591   0.764   9.431 -1.9275  2.8483 -0.9283
   19SAPC  C211 2473   2.438   0.702   9.308  0.1589 -0.2965  0.3612
   19SAPC  H11R 2474   2.391   0.603   9.295  0.7756 -0.5705  0.1587
   19SAPC  C212 2475   2.472   0.764   9.199  0.0865 -0.5109  0.0956
   19SAPC  H12R 2476   2.422   0.733   9.106  0.2345  0.0574 -0.1780
   19SAPC  C213 2477   2.558   0.887   9.194  0.3220 -0.5599  0.2863
   19SAPC  H13R 2478   2.583   0.919   9.297 -1.0745  1.8251 -0.0345
   19SAPC  H13S 2479   2.492   0.963   9.147  0.1789 -0.1272  1.1643
   19SAPC  C214 2480   2.680   0.881   9.119 -0.4291 -0.3437  0.8291
   19SAPC  H14R 2481   2.777   0.893   9.169  2.1659 -1.9387 -3.3162
   19SAPC  C215 2482   2.694   0.861   8.983  0.6640 -0.7068  0.1942
   19SAPC  H15R 2483   2.792   0.850   8.934 -0.0268  1.4937 -1.9027
   19SAPC  C216 2484   2.591   0.853   8.873 -0.0329  0.1620  0.3551
   19SAPC  H16R 2485   2.486   0.862   8.907 -0.4755 -0.7319 -0.7245
   19SAPC  H16S 2486   2.596   0.752   8.826 -0.7966  0.1902  0.2097
   19SAPC  C217 2487   2.595   0.968   8.767 -0.3623  0.4517  0.0190
   19SAPC  H17R 2488   2.591   1.069   8.814  0.7204  0.2489  0.5840
   19SAPC  H17S 2489   2.502   0.954   8.709 -0.7677 -1.3970  1.0492
   19SAPC  C218 2490   2.713   0.964   8.660 -0.3597  0.6280 -0.0248
   19SAPC  H18R 2491   2.711   0.869   8.602 -0.0379 -0.4490  1.6722
   19SAPC  H18S 2492   2.810   0.977   8.712  0.9275 -0.2397 -2.0796
   19SAPC  C219 2493   2.709   1.077   8.557  0.1392 -1.4117  0.4019
   19SAPC  H19R 2494   2.621   1.061   8.490  1.1319  0.5887 -1.5047
   19SAPC  H19S 2495   2.804   1.070   8.500  0.9145  2.7518  0.9024
   19SAPC  C220 2496   2.707   1.217   8.615 -0.8351 -0.2067  0.8718
   19SAPC  H20R 2497   2.604   1.234   8.655 -1.0283  1.6857 -0.3282
   19SAPC  H20S 2498   2.731   1.282   8.528  1.7999 -1.3361  0.6672
   19SAPC  H20T 2499   2.780   1.234   8.698 -0.3210  0.2121  0.3404
   19SAPC   C33 2500   1.727   0.938   9.889 -0.7085 -0.3873 -0.7303
   19SAPC   H3X 2501   1.643   0.875   9.924 -0.4148 -0.2914  0.1784
   19SAPC   H3Y 2502   1.803   0.869   9.846  0.4231  0.6487 -0.4520
   19SAPC   C34 2503   1.684   1.028   9.769 -0.4193 -1.0923  0.9761
   19SAPC   H4X 2504   1.756   1.112   9.765 -2.0517  0.3814  1.1000
   19SAPC   H4Y 2505   1.589   1.079   9.795 -0.0207 -0.2558  0.8272
   19SAPC   C35 2506   1.677   0.956   9.635 -0.0526  0.5030  0.4212
   19SAPC   H5X 2507   1.594   0.884   9.620 -0.3547  1.1458 -1.2420
   19SAPC   H5Y 2508   1.772   0.900   9.624 -0.4244  0.1476 -1.2736
   19SAPC   C36 2509   1.676   1.049   9.516 -0.3486 -0.5584 -0.4333
   19SAPC   H6X 2510   1.770   1.109   9.514 -0.2218 -0.6686  0.8454
   19SAPC   H6Y 2511   1.585   1.113   9.521  0.4895  0.6344  0.0710
   19SAPC   C37 2512   1.673   0.969   9.392 -0.0470  0.2092  0.9680
   19SAPC   H7X 2513   1.574   0.921   9.374  0.7133 -0.7068 -1.1409
   19SAPC   H7Y 2514   1.755   0.894   9.394  1.2599  1.4486 -1.2165
   19SAPC   C38 2515   1.695   1.049   9.265  0.1380  0.3202  0.0600
   19SAPC   H8X 2516   1.799   1.088   9.269  0.4244 -0.3557 -0.5501
   19SAPC   H8Y 2517   1.609   1.119   9.258  0.4363  0.9328  1.9780
   19SAPC   C39 2518   1.671   0.969   9.138 -0.7574 -0.0137 -0.4081
   19SAPC   H9X 2519   1.567   0.933   9.123 -0.5340 -0.7012 -0.3172
   19SAPC   H9Y 2520   1.731   0.879   9.160 -0.0673  0.3338 -0.8505
   19SAPC  C310 2521   1.717   1.030   9.004 -0.3637 -0.3365  0.2144
   19SAPC  H10X 2522   1.827   1.037   9.021 -0.5851  0.1422  1.5719
   19SAPC  H10Y 2523   1.678   1.134   9.005  0.7060  0.0809  0.4896
   19SAPC  C311 2524   1.680   0.951   8.875 -0.7301 -0.2774 -0.0767
   19SAPC  H11X 2525   1.748   0.863   8.875  3.2915  2.5359  1.8918
   19SAPC  H11Y 2526   1.704   1.023   8.795 -2.1824  1.3688  0.8990
   19SAPC  C312 2527   1.534   0.910   8.861  0.1834  0.3861  0.4870
   19SAPC  H12X 2528   1.476   0.996   8.899 -0.1962  0.1963  0.3446
   19SAPC  H12Y 2529   1.515   0.832   8.937  1.7418  1.9684  2.6378
   19SAPC  C313 2530   1.486   0.885   8.718  0.4707  0.2215 -0.0452
   19SAPC  H13X 2531   1.557   0.809   8.677 -1.2261 -0.4948 -1.7850
   19SAPC  H13Y 2532   1.506   0.984   8.671 -1.1422  1.0231  0.8963
   19SAPC  C314 2533   1.345   0.840   8.707  0.1390 -0.2516  0.3735
   19SAPC  H14X 2534   1.280   0.904   8.770  0.1403 -0.8759  1.0319
   19SAPC  H14Y 2535   1.336   0.737   8.748  1.3462 -0.3117  0.5283
   19SAPC  C315 2536   1.294   0.821   8.560 -0.2020 -0.5335  0.5071
   19SAPC  H15X 2537   1.276   0.914   8.502 -1.8974  0.4507  2.4889
   19SAPC  H15Y 2538   1.197   0.768   8.566  0.2069 -1.7269 -1.9605
   19SAPC  C316 2539   1.387   0.737   8.468  0.0097 -0.0944  0.3612
   19SAPC  H16X 2540   1.442   0.667   8.534  0.6961 -0.8629 -0.9921
   19SAPC  H16Y 2541   1.465   0.806   8.429  0.5333 -0.3982  0.8612
   19SAPC  C317 2542   1.323   0.668   8.347 -0.4340 -0.2701  0.9456
   19SAPC  H17X 2543   1.401   0.615   8.288  0.3311  0.1332  1.5797
   19SAPC  H17Y 2544   1.267   0.738   8.281  1.0944 -1.1723 -1.4511
   19SAPC  C318 2545   1.226   0.557   8.385 -0.1322  0.3859  0.2046
   19SAPC  H18X 2546   1.140   0.589   8.447  0.7065  0.1433  1.5153
   19SAPC  H18Y 2547   1.275   0.473   8.438 -0.1400 -0.0266 -0.4252
   19SAPC  H18Z 2548   1.184   0.521   8.288  1.1507  2.7015 -1.3086
   20SAPC     N 2549   4.423   5.342  11.024 -0.7240 -0.7251  0.3360
   20SAPC   C12 2550   4.345   5.453  10.957  0.1194  0.0079  1.0634
   20SAPC  H12A 2551   4.384   5.546  10.994  2.1847 -0.2934 -0.2188
   20SAPC  H12B 2552   4.240   5.444  10.982  0.1191 -0.1881  0.9968
   20SAPC   C13 2553   4.376   5.341  11.166 -0.2782  0.4190 -0.0070
   20SAPC  H13A 2554   4.379   5.434  11.220 -2.1366  0.4025  0.1856
   20SAPC  H13B 2555   4.271   5.313  11.161  0.2232 -1.4304 -0.8311
   20SAPC  H13C 2556   4.434   5.274  11.228  0.5716  2.0349  0.9978
   20SAPC   C14 2557   4.399   5.201  10.975 -0.0367  0.2404 -0.6780
   20SAPC  H14A 2558   4.446   5.184  10.879  2.1387  1.0114  0.1889
   20SAPC  H14B 2559   4.430   5.127  11.046  0.8829  0.3679 -0.9332
   20SAPC  H14C 2560   4.291   5.194  10.967 -0.1811 -1.0365  1.7298
   20SAPC   C15 2561   4.573   5.363  11.019 -0.0351 -0.2356  0.2952
   20SAPC  H15A 2562   4.612   5.447  11.074 -1.3810 -0.7640  2.1533
   20SAPC  H15B 2563   4.630   5.275  11.044  0.4694  0.5082  1.8585
   20SAPC  H15C 2564   4.591   5.377  10.913  1.9673 -2.3160  0.2721
   20SAPC   C11 2565   4.359   5.459  10.808 -0.2617 -0.3506  1.5096
   20SAPC  H11A 2566   4.282   5.531  10.772 -0.7813 -0.0457  3.1445
   20SAPC  H11B 2567   4.327   5.365  10.757 -2.1290 -0.2453  2.4042
   20SAPC     P 2568   4.537   5.644  10.747 -0.3970  0.0384  0.2365
   20SAPC   O13 2569   4.466   5.739  10.829 -0.2480 -0.1683 -0.0869
   20SAPC   O14 2570   4.689   5.645  10.756  0.9813  0.3030  0.1691
   20SAPC   O12 2571   4.492   5.495  10.771 -0.0060  0.0561 -0.0871
   20SAPC   O11 2572   4.492   5.669  10.597  0.3550 -0.5954 -0.2493
   20SAPC    C1 2573   4.525   5.572  10.498 -0.6357  0.2938 -0.2505
   20SAPC    HA 2574   4.627   5.529  10.504 -0.5102  0.3782 -1.4545
   20SAPC    HB 2575   4.460   5.482  10.504 -0.7541  0.3792 -0.2505
   20SAPC    C2 2576   4.515   5.624  10.353  0.5115 -0.0346  0.4074
   20SAPC    HS 2577   4.580   5.712  10.336  0.9076 -0.0924  1.5631
   20SAPC   O21 2578   4.375   5.658  10.325 -0.0859  0.1071  0.3083
   20SAPC   C21 2579   4.346   5.765  10.247 -0.1029 -0.5078 -0.0160
   20SAPC   O22 2580   4.422   5.863  10.228 -0.7468  0.5645 -0.0255
   20SAPC   C22 2581   4.209   5.749  10.184  0.6556  0.2599  0.0447
   20SAPC   H2R 2582   4.189   5.642  10.162  2.3874 -0.4892  1.8437
   20SAPC   H2S 2583   4.130   5.760  10.261 -0.4952 -0.2476 -1.0230
   20SAPC    C3 2584   4.547   5.510  10.254 -0.6817 -0.2416  0.0948
   20SAPC    HX 2585   4.466   5.434  10.255  0.0102 -0.9938 -0.3887
   20SAPC    HY 2586   4.625   5.447  10.302 -1.6391 -1.7638 -0.2934
   20SAPC   O31 2587   4.602   5.559  10.123  0.5780 -0.3893 -0.2559
   20SAPC   C31 2588   4.531   5.520  10.016  0.9616 -0.6618 -0.1539
   20SAPC   O32 2589   4.425   5.462  10.020 -0.3660  0.3252  0.2036
   20SAPC   C32 2590   4.599   5.558   9.885  0.3276  0.5834 -0.2317
   20SAPC   H2X 2591   4.521   5.529   9.812  1.0922 -0.5234 -0.6419
   20SAPC   H2Y 2592   4.692   5.501   9.867 -0.1606  0.1994 -1.6293
   20SAPC   C23 2593   4.170   5.849  10.074  0.4285  0.2032  0.1754
   20SAPC   H3R 2594   4.189   5.954  10.103 -1.4014  0.6777 -0.2069
   20SAPC   H3S 2595   4.060   5.844  10.057  0.6984  0.8214 -2.1525
   20SAPC   C24 2596   4.228   5.829   9.930  0.3110 -0.2454 -0.6262
   20SAPC   H4R 2597   4.337   5.849   9.938  0.4102 -1.3524  1.9842
   20SAPC   H4S 2598   4.178   5.905   9.866  2.0942  0.5604 -1.1180
   20SAPC   C25 2599   4.199   5.692   9.885  0.3365  0.4659 -0.2930
   20SAPC   H5R 2600   4.243   5.610   9.944  0.8919  0.1276 -1.1514
   20SAPC   C26 2601   4.130   5.658   9.777  0.1673 -0.6056 -0.1257
   20SAPC   H6R 2602   4.111   5.552   9.756  3.0720 -1.4086  0.8268
   20SAPC   C27 2603   4.065   5.754   9.675 -0.5009 -0.5466  0.4553
   20SAPC   H7R 2604   4.017   5.836   9.732  1.8937  2.4350 -1.5192
   20SAPC   H7S 2605   3.988   5.690   9.627 -0.8597  0.0852  0.1934
   20SAPC   C28 2606   4.152   5.833   9.572 -0.2405 -1.2998  0.0552
   20SAPC   H8R 2607   4.228   5.908   9.597 -1.4866  0.2093 -0.5328
   20SAPC   C29 2608   4.158   5.798   9.438  0.6642 -0.3064 -0.0011
   20SAPC   H9R 2609   4.210   5.870   9.373  0.0142  0.2127  0.0510
   20SAPC  C210 2610   4.088   5.685   9.371  0.1094  0.3111  0.0504
   20SAPC  H10R 2611   4.020   5.631   9.441 -0.4038 -0.1379 -0.7818
   20SAPC  H10S 2612   4.165   5.613   9.337  1.8829  0.6591  2.9964
   20SAPC  C211 2613   4.010   5.747   9.254  0.7092  0.1761 -0.2966
   20SAPC  H11R 2614   3.975   5.850   9.272  2.3501  0.3324  2.7516
   20SAPC  C212 2615   3.981   5.680   9.141 -0.0012  0.1368  0.2193
   20SAPC  H12R 2616   3.939   5.733   9.055  2.6610  0.7267 -0.7853
   20SAPC  C213 2617   4.013   5.526   9.108  0.5261 -0.3603 -0.2637
   20SAPC  H13R 2618   3.928   5.483   9.051  1.2201  0.0305 -1.6215
   20SAPC  H13S 2619   4.012   5.479   9.209 -0.7319  0.8178  0.3135
   20SAPC  C214 2620   4.147   5.501   9.050  0.9339 -0.0352  0.1625
   20SAPC  H14R 2621   4.233   5.537   9.108  1.4185 -0.9861  0.0533
   20SAPC  C215 2622   4.162   5.448   8.930 -0.7100  0.0373  0.3256
   20SAPC  H15R 2623   4.265   5.443   8.890 -0.1480 -1.6875  1.8545
   20SAPC  C216 2624   4.051   5.405   8.837 -0.9371 -0.1912 -0.3217
   20SAPC  H16R 2625   3.962   5.470   8.851  0.2200  1.3645  0.1027
   20SAPC  H16S 2626   4.020   5.302   8.865  3.3030 -1.1467  1.6963
   20SAPC  C217 2627   4.085   5.408   8.686 -1.0889  0.5885 -0.3412
   20SAPC  H17R 2628   4.116   5.511   8.659 -1.7591  1.1468  0.9187
   20SAPC  H17S 2629   3.989   5.394   8.633 -0.5911 -1.3867 -0.8069
   20SAPC  C218 2630   4.185   5.305   8.639 -0.1830  0.6238 -0.1255
   20SAPC  H18R 2631   4.157   5.199   8.661  2.0684 -0.1780 -0.7934
   20SAPC  H18S 2632   4.274   5.321   8.703  1.4522  0.6321 -2.2755
   20SAPC  C219 2633   4.235   5.294   8.487 -0.6058  0.4796 -0.1486
   20SAPC  H19R 2634   4.311   5.213   8.489  1.2834  1.9467 -3.7633
   20SAPC  H19S 2635   4.296   5.384   8.465  0.2500 -0.7871 -3.5441
   20SAPC  C220 2636   4.125   5.270   8.387 -0.1107 -0.0522 -0.4155
   20SAPC  H20R 2637   4.166   5.248   8.286  0.0003  3.1715 -1.1848
   20SAPC  H20S 2638   4.071   5.367   8.387  0.9700  0.5615 -0.3648
   20SAPC  H20T 2639   4.060   5.184   8.415 -1.1575  0.9977  0.4535
   20SAPC   C33 2640   4.631   5.711   9.867 -0.1991  0.6285 -0.4667
   20SAPC   H3X 2641   4.713   5.736   9.938  0.1578 -1.6663  0.0163
   20SAPC   H3Y 2642   4.544   5.779   9.875 -0.7904 -0.0243 -1.2290
   20SAPC   C34 2643   4.698   5.737   9.736  0.1385  0.6427  0.0897
   20SAPC   H4X 2644   4.783   5.667   9.721  0.9671  1.4626  0.8309
   20SAPC   H4Y 2645   4.762   5.828   9.732 -0.6020  1.1453 -1.4322
   20SAPC   C35 2646   4.610   5.728   9.607 -0.0475  0.1130 -0.1987
   20SAPC   H5X 2647   4.537   5.812   9.618 -1.3295 -0.8047 -1.4534
   20SAPC   H5Y 2648   4.551   5.635   9.617 -0.7992  0.8134  3.0799
   20SAPC   C36 2649   4.680   5.736   9.480 -0.1083  0.1389 -0.5727
   20SAPC   H6X 2650   4.747   5.650   9.459 -2.1158 -1.2575 -1.6483
   20SAPC   H6Y 2651   4.743   5.827   9.479 -2.3031  1.8509 -4.0324
   20SAPC   C37 2652   4.583   5.757   9.365 -0.0415  1.0466  0.1706
   20SAPC   H7X 2653   4.544   5.861   9.376  0.1594  1.3141 -1.3576
   20SAPC   H7Y 2654   4.494   5.693   9.379 -0.4246  1.6412  0.5205
   20SAPC   C38 2655   4.627   5.744   9.219  0.2826  0.9083 -0.2577
   20SAPC   H8X 2656   4.629   5.635   9.195  1.9090  0.6962  0.6175
   20SAPC   H8Y 2657   4.734   5.775   9.211  0.8089 -0.6368  0.2767
   20SAPC   C39 2658   4.536   5.807   9.115 -0.1121  0.7864  0.3224
   20SAPC   H9X 2659   4.544   5.918   9.123  1.4395  0.6991  0.3259
   20SAPC   H9Y 2660   4.433   5.776   9.141  1.1958 -2.5477  2.1574
   20SAPC  C310 2661   4.563   5.765   8.969  0.7708 -0.5434 -0.5040
   20SAPC  H10X 2662   4.663   5.802   8.937 -0.5648  0.7204 -3.5971
   20SAPC  H10Y 2663   4.478   5.794   8.903 -0.2214  0.7926  1.2932
   20SAPC  C311 2664   4.583   5.614   8.946  0.4011  0.0265  0.4135
   20SAPC  H11X 2665   4.498   5.560   8.991  0.9180 -0.5274  0.7317
   20SAPC  H11Y 2666   4.669   5.584   9.009 -0.7277  1.1209  2.5797
   20SAPC  C312 2667   4.587   5.571   8.796  0.9022 -0.0483 -0.8174
   20SAPC  H12X 2668   4.669   5.630   8.750  1.5718 -0.4317 -0.1481
   20SAPC  H12Y 2669   4.490   5.598   8.750  0.2501  0.7618  0.9377
   20SAPC  C313 2670   4.598   5.420   8.767  0.1307 -0.2347 -0.3431
   20SAPC  H13X 2671   4.564   5.407   8.662 -3.0313 -2.1566  0.7625
   20SAPC  H13Y 2672   4.531   5.356   8.829  0.0569 -0.2943 -0.4826
   20SAPC  C314 2673   4.743   5.362   8.769 -0.5887  0.7445 -0.2516
   20SAPC  H14X 2674   4.790   5.353   8.869  0.9650  1.2123 -0.9212
   20SAPC  H14Y 2675   4.802   5.430   8.704 -0.6271  0.0072 -1.0754
   20SAPC  C315 2676   4.740   5.235   8.686  0.7232  0.5714  0.3791
   20SAPC  H15X 2677   4.710   5.245   8.579 -0.4127 -1.1426  0.4888
   20SAPC  H15Y 2678   4.654   5.173   8.722  0.1372  0.6221 -0.8734
   20SAPC  C316 2679   4.866   5.146   8.703  0.0778  0.3465 -0.3100
   20SAPC  H16X 2680   4.949   5.219   8.708  0.6264  0.0333 -3.1818
   20SAPC  H16Y 2681   4.870   5.072   8.620 -2.0699 -0.0993 -0.0871
   20SAPC  C317 2682   4.852   5.052   8.833  0.0642 -0.2978  0.0336
   20SAPC  H17X 2683   4.799   5.106   8.914 -0.1951 -1.2440  0.5020
   20SAPC  H17Y 2684   4.949   5.020   8.876 -0.3392  2.0227  3.0511
   20SAPC  C318 2685   4.769   4.921   8.796  0.2350  0.4519 -0.0402
   20SAPC  H18X 2686   4.767   4.836   8.868 -0.7168  1.1310  0.7648
   20SAPC  H18Y 2687   4.802   4.888   8.696  0.6651  0.1884  0.1839
   20SAPC  H18Z 2688   4.666   4.963   8.788 -0.2087 -0.7378 -0.7563
   21SAPC     N 2689   3.304   5.835  10.453 -0.5051  0.7192 -0.7803
   21SAPC   C12 2690   3.216   5.847  10.576  0.4805 -0.6126  0.0752
   21SAPC  H12A 2691   3.282   5.826  10.659  0.3145  1.4719  0.8014
   21SAPC  H12B 2692   3.139   5.772  10.568 -0.6430  0.5160  0.0155
   21SAPC   C13 2693   3.227   5.873  10.330 -0.0565 -0.2552  0.4135
   21SAPC  H13A 2694   3.298   5.856  10.250 -0.8560 -0.2507 -0.3024
   21SAPC  H13B 2695   3.136   5.817  10.318 -0.7262  0.6058  1.3530
   21SAPC  H13C 2696   3.190   5.974  10.334 -1.4159 -0.6059 -1.6964
   21SAPC   C14 2697   3.423   5.930  10.472 -0.7043 -0.5288  0.4704
   21SAPC  H14A 2698   3.398   6.035  10.470 -0.1708 -0.3820  1.1589
   21SAPC  H14B 2699   3.470   5.916  10.568  2.3911  1.1397 -0.6812
   21SAPC  H14C 2700   3.489   5.921  10.388 -0.5299  0.2427  0.5192
   21SAPC   C15 2701   3.358   5.699  10.445 -0.3608 -0.3673 -0.1726
   21SAPC  H15A 2702   3.293   5.624  10.403  0.8142 -0.8304 -1.2232
   21SAPC  H15B 2703   3.434   5.696  10.368 -1.6952  1.9472 -1.7194
   21SAPC  H15C 2704   3.389   5.675  10.545 -0.5356 -0.3388 -0.1109
   21SAPC   C11 2705   3.142   5.981  10.607 -0.5171  0.1731 -0.2660
   21SAPC  H11A 2706   3.088   5.968  10.704 -1.7748  1.2407 -0.8024
   21SAPC  H11B 2707   3.067   5.986  10.525  1.3798  0.8068 -2.0202
   21SAPC     P 2708   3.178   6.228  10.571 -0.4452 -0.1765 -0.1693
   21SAPC   O13 2709   3.061   6.262  10.652  0.3342 -0.6258 -0.2608
   21SAPC   O14 2710   3.289   6.327  10.566  0.1528  0.0755  0.1875
   21SAPC   O12 2711   3.236   6.088  10.610 -0.4164  0.2600  0.6234
   21SAPC   O11 2712   3.140   6.202  10.418  0.0922  0.0446 -0.4483
   21SAPC    C1 2713   3.029   6.276  10.367 -0.0858  0.4360  0.2708
   21SAPC    HA 2714   2.942   6.277  10.436  0.4090  0.4496  0.8977
   21SAPC    HB 2715   3.062   6.378  10.338  1.2303 -0.0691 -0.1127
   21SAPC    C2 2716   2.986   6.217  10.235 -0.2872  0.0321 -0.3979
   21SAPC    HS 2717   2.936   6.119  10.251 -0.1183  0.1897  1.2590
   21SAPC   O21 2718   3.098   6.212  10.142 -0.1403  0.4169 -0.4311
   21SAPC   C21 2719   3.097   6.108  10.062  0.0750 -0.5740  0.1005
   21SAPC   O22 2720   3.021   6.015  10.062  0.5239  0.0040  0.0669
   21SAPC   C22 2721   3.209   6.124   9.957  0.0701  0.7589  0.0662
   21SAPC   H2R 2722   3.182   6.215   9.899 -0.9099 -0.7067 -1.9029
   21SAPC   H2S 2723   3.303   6.136  10.015 -1.1067  0.4791  2.1421
   21SAPC    C3 2724   2.866   6.309  10.170 -1.3142  0.1763  0.5707
   21SAPC    HX 2725   2.896   6.415  10.158  1.5343 -0.7679 -2.0382
   21SAPC    HY 2726   2.787   6.305  10.247 -1.3588  1.7439  0.6436
   21SAPC   O31 2727   2.813   6.252  10.051 -0.4361 -0.4654 -0.4052
   21SAPC   C31 2728   2.865   6.303   9.932  0.6294  0.2121 -0.4068
   21SAPC   O32 2729   2.932   6.403   9.930  0.8211  0.6191  0.2271
   21SAPC   C32 2730   2.826   6.219   9.818 -0.1745 -0.0635  0.2043
   21SAPC   H2X 2731   2.723   6.252   9.791  0.3434 -0.5865 -2.7029
   21SAPC   H2Y 2732   2.812   6.113   9.849 -0.9666  0.2084  0.8298
   21SAPC   C23 2733   3.219   5.996   9.867  0.4729  0.3412  0.3013
   21SAPC   H3R 2734   3.121   5.979   9.817  2.0992 -0.9338 -2.7084
   21SAPC   H3S 2735   3.243   5.912   9.935  1.9787  2.0952  2.0600
   21SAPC   C24 2736   3.327   6.002   9.762 -0.2215 -0.0997 -0.0834
   21SAPC   H4R 2737   3.433   6.009   9.796  0.8652 -0.2661 -3.1044
   21SAPC   H4S 2738   3.308   6.102   9.719  3.4275  1.2473  1.0128
   21SAPC   C25 2739   3.312   5.884   9.662 -0.1257 -0.7761 -0.3797
   21SAPC   H5R 2740   3.264   5.799   9.713  1.5294 -0.4202  1.9213
   21SAPC   C26 2741   3.347   5.876   9.534 -0.4984 -0.1714 -0.0053
   21SAPC   H6R 2742   3.327   5.786   9.474  1.5883  0.3502 -1.6048
   21SAPC   C27 2743   3.415   5.982   9.454  0.1301  0.6295 -0.0343
   21SAPC   H7R 2744   3.363   6.077   9.479  0.2717  1.0584 -1.2783
   21SAPC   H7S 2745   3.387   5.958   9.349 -1.7232  1.3814  0.2422
   21SAPC   C28 2746   3.564   5.997   9.474  0.3322  0.2662  0.2411
   21SAPC   H8R 2747   3.606   5.966   9.571 -0.8041 -1.4862  0.2225
   21SAPC   C29 2748   3.644   6.047   9.373 -0.0309 -0.3793  0.2642
   21SAPC   H9R 2749   3.750   6.071   9.390 -0.3527  2.3627 -1.1332
   21SAPC  C210 2750   3.605   6.098   9.226  0.0680  0.2995 -0.4595
   21SAPC  H10R 2751   3.658   6.194   9.214 -0.4623  0.6893  0.2222
   21SAPC  H10S 2752   3.498   6.127   9.220  0.0547  0.2454 -0.4896
   21SAPC  C211 2753   3.638   6.010   9.107 -0.2262 -0.0517  0.1908
   21SAPC  H11R 2754   3.692   5.916   9.123  1.7568  0.7822 -1.1351
   21SAPC  C212 2755   3.590   6.032   8.978 -0.3246 -0.6823  0.0303
   21SAPC  H12R 2756   3.619   5.961   8.900  1.0181 -1.5402  1.2533
   21SAPC  C213 2757   3.501   6.142   8.933 -0.2492  0.4699  0.5617
   21SAPC  H13R 2758   3.488   6.217   9.014  1.2955  1.3025  0.0901
   21SAPC  H13S 2759   3.408   6.089   8.904  0.9962 -2.0724  0.9509
   21SAPC  C214 2760   3.550   6.211   8.808  0.5664 -0.5934  0.2001
   21SAPC  H14R 2761   3.650   6.257   8.819 -0.4540  2.0918 -0.8643
   21SAPC  C215 2762   3.471   6.247   8.702  0.0617  0.0908  0.8954
   21SAPC  H15R 2763   3.512   6.307   8.620 -0.1534 -1.5717 -0.4833
   21SAPC  C216 2764   3.324   6.209   8.681 -0.0837  0.3184 -0.5772
   21SAPC  H16R 2765   3.268   6.297   8.642 -1.0986  0.5262  1.2363
   21SAPC  H16S 2766   3.270   6.183   8.775 -3.9211  0.1559 -2.6230
   21SAPC  C217 2767   3.306   6.110   8.565  0.3081  0.8673  0.8747
   21SAPC  H17R 2768   3.203   6.073   8.546  0.6228 -0.2101  1.1845
   21SAPC  H17S 2769   3.375   6.026   8.587  0.9191  1.4838  1.3690
   21SAPC  C218 2770   3.355   6.164   8.428 -0.4093  0.6282  0.2859
   21SAPC  H18R 2771   3.434   6.241   8.440 -0.5445  0.9024 -0.5074
   21SAPC  H18S 2772   3.276   6.218   8.372 -0.6463  1.8112  1.7280
   21SAPC  C219 2773   3.410   6.054   8.335  0.6930 -0.5384 -0.1216
   21SAPC  H19R 2774   3.502   6.006   8.376  2.5561  1.6858 -1.4066
   21SAPC  H19S 2775   3.445   6.103   8.241  1.8193 -2.8373 -0.9769
   21SAPC  C220 2776   3.313   5.946   8.288  0.2089  0.1822  0.4359
   21SAPC  H20R 2777   3.358   5.893   8.201  0.9847 -0.5818  1.2882
   21SAPC  H20S 2778   3.217   5.995   8.260  0.3589  1.6590  2.3049
   21SAPC  H20T 2779   3.292   5.885   8.378 -0.2471 -0.3731 -0.0384
   21SAPC   C33 2780   2.933   6.228   9.708 -0.0759 -0.2939  0.5045
   21SAPC   H3X 2781   3.033   6.193   9.744 -0.3967 -1.3744  0.3922
   21SAPC   H3Y 2782   2.941   6.333   9.675 -1.2588 -0.3904 -0.1464
   21SAPC   C34 2783   2.896   6.136   9.588  0.3444 -0.7260 -0.5635
   21SAPC   H4X 2784   2.795   6.161   9.550  1.0267 -1.4680 -3.0820
   21SAPC   H4Y 2785   2.898   6.029   9.621  1.5235 -0.2806  0.9446
   21SAPC   C35 2786   2.998   6.152   9.473  0.8587 -0.4812 -0.1210
   21SAPC   H5X 2787   3.105   6.158   9.503  0.5421 -0.9548  1.1366
   21SAPC   H5Y 2788   2.969   6.236   9.406 -2.2280 -0.2735  1.3186
   21SAPC   C36 2789   2.994   6.027   9.382  0.2791  0.6414 -0.8327
   21SAPC   H6X 2790   2.894   6.006   9.339  0.1527  1.3596 -0.9004
   21SAPC   H6Y 2791   3.025   5.939   9.443 -0.5037  1.4828  0.8708
   21SAPC   C37 2792   3.093   6.037   9.267  0.1943  0.7174 -0.6404
   21SAPC   H7X 2793   3.184   6.090   9.301 -0.2724  0.0585  1.8584
   21SAPC   H7Y 2794   3.049   6.103   9.189  3.2004  1.9412 -1.4514
   21SAPC   C38 2795   3.110   5.902   9.194  0.5379  0.5837  0.0494
   21SAPC   H8X 2796   3.007   5.860   9.192  0.4250  0.7648  1.4627
   21SAPC   H8Y 2797   3.174   5.837   9.257  1.2830  2.0275  0.8377
   21SAPC   C39 2798   3.164   5.917   9.051 -0.3050 -0.2457 -0.8371
   21SAPC   H9X 2799   3.257   5.978   9.051  0.2243 -1.0318 -0.4337
   21SAPC   H9Y 2800   3.084   5.966   8.992 -1.1512 -0.6842 -0.0677
   21SAPC  C310 2801   3.200   5.782   8.980 -0.1993 -0.4732 -0.0591
   21SAPC  H10X 2802   3.118   5.709   8.992  0.1436 -0.9040 -0.2736
   21SAPC  H10Y 2803   3.291   5.735   9.024  0.5977 -0.2367 -1.3747
   21SAPC  C311 2804   3.234   5.812   8.833 -0.1209 -0.1716  0.1761
   21SAPC  H11X 2805   3.335   5.852   8.852 -1.2005  2.8141  0.1578
   21SAPC  H11Y 2806   3.163   5.886   8.790 -1.6763  0.0819  2.9448
   21SAPC  C312 2807   3.250   5.695   8.743 -0.4754  0.9021  0.1301
   21SAPC  H12X 2808   3.323   5.625   8.790 -1.2410  0.5287  0.7915
   21SAPC  H12Y 2809   3.303   5.722   8.649  1.0503 -2.2765 -0.0479
   21SAPC  C313 2810   3.126   5.623   8.687  0.2862  0.2124 -0.4178
   21SAPC  H13X 2811   3.064   5.693   8.626 -1.5700 -0.9998 -0.0215
   21SAPC  H13Y 2812   3.056   5.596   8.769  0.6369  1.7275  0.4071
   21SAPC  C314 2813   3.159   5.495   8.601  0.4268 -0.7101  0.0323
   21SAPC  H14X 2814   3.236   5.442   8.661  1.1550 -0.2772 -0.5060
   21SAPC  H14Y 2815   3.203   5.532   8.506 -0.1049 -1.8827 -0.7062
   21SAPC  C315 2816   3.035   5.411   8.574  0.5916  0.7948  0.0620
   21SAPC  H15X 2817   2.997   5.376   8.672 -1.1951  2.6914  0.1154
   21SAPC  H15Y 2818   3.058   5.320   8.514 -2.2139  0.4109 -0.5598
   21SAPC  C316 2819   2.914   5.485   8.512  0.2199  0.0461 -0.0137
   21SAPC  H16X 2820   2.953   5.545   8.427  1.3429 -2.0157 -1.0324
   21SAPC  H16Y 2821   2.861   5.552   8.583 -2.0325  0.0454 -1.5695
   21SAPC  C317 2822   2.809   5.385   8.446  0.6340 -0.5578 -0.2451
   21SAPC  H17X 2823   2.761   5.448   8.368 -1.5156 -2.0363 -0.2097
   21SAPC  H17Y 2824   2.727   5.371   8.520 -1.1394 -0.3474 -2.0691
   21SAPC  C318 2825   2.860   5.256   8.386  0.1003  0.0333 -0.2737
   21SAPC  H18X 2826   2.770   5.197   8.359  1.5666 -1.3957 -2.3952
   21SAPC  H18Y 2827   2.914   5.187   8.453  0.8752 -0.8937 -1.8163
   21SAPC  H18Z 2828   2.919   5.272   8.293  1.1932  0.3926  0.4690
   22SAPC     N 2829   0.787   0.601  10.985  0.5812  0.5274  0.4302
   22SAPC   C12 2830   0.716   0.634  10.853  0.6465 -1.0694 -0.0035
   22SAPC  H12A 2831   0.622   0.580  10.858  0.0488 -0.0047  0.6425
   22SAPC  H12B 2832   0.765   0.583  10.771 -0.9193 -0.5275 -1.3542
   22SAPC   C13 2833   0.829   0.460  10.981 -0.2203 -0.1825  0.0172
   22SAPC  H13A 2834   0.899   0.445  10.900  0.7269  2.1830  0.3121
   22SAPC  H13B 2835   0.875   0.439  11.076 -0.2049 -0.7517 -0.1144
   22SAPC  H13C 2836   0.755   0.384  10.962  0.7088 -1.1394  0.1449
   22SAPC   C14 2837   0.890   0.692  11.028 -0.0137 -0.6259 -0.0443
   22SAPC  H14A 2838   0.943   0.656  11.115  1.7035  1.5845 -0.0781
   22SAPC  H14B 2839   0.955   0.718  10.946  1.0599 -0.7724  0.7412
   22SAPC  H14C 2840   0.844   0.782  11.065 -0.1400 -1.1205  1.0530
   22SAPC   C15 2841   0.674   0.617  11.094 -0.1924  0.1762  0.5099
   22SAPC  H15A 2842   0.709   0.579  11.188 -0.7512 -3.6556 -0.6472
   22SAPC  H15B 2843   0.635   0.718  11.094 -1.4454 -0.2899  1.4310
   22SAPC  H15C 2844   0.586   0.558  11.073 -0.4392  1.2604 -1.9656
   22SAPC   C11 2845   0.703   0.779  10.797  0.0889 -0.0081 -0.3620
   22SAPC  H11A 2846   0.677   0.774  10.689 -1.5465 -1.8883  0.0509
   22SAPC  H11B 2847   0.805   0.822  10.808 -0.2634  1.3682 -1.9743
   22SAPC     P 2848   0.458   0.847  10.825  0.0536  0.2655 -0.4600
   22SAPC   O13 2849   0.387   0.736  10.894  0.0593 -0.1863  0.3591
   22SAPC   O14 2850   0.409   0.979  10.856  0.0856  0.2884 -0.2230
   22SAPC   O12 2851   0.607   0.844  10.878 -0.3544 -0.3367 -0.3940
   22SAPC   O11 2852   0.453   0.813  10.672  0.3548  0.7024  0.6641
   22SAPC    C1 2853   0.328   0.773  10.620 -0.0320 -0.6315 -0.8439
   22SAPC    HA 2854   0.313   0.665  10.641  0.6066 -0.2969  1.6026
   22SAPC    HB 2855   0.238   0.821  10.663 -0.4982 -1.6821 -0.6071
   22SAPC    C2 2856   0.321   0.798  10.465  0.7587 -0.5865  0.0168
   22SAPC    HS 2857   0.219   0.773  10.428  0.7656 -2.2199  0.9875
   22SAPC   O21 2858   0.424   0.726  10.399 -0.1529 -0.3928  0.0256
   22SAPC   C21 2859   0.415   0.599  10.380  0.3940  0.1231  0.2996
   22SAPC   O22 2860   0.325   0.526  10.417  0.1093 -0.3500 -0.7352
   22SAPC   C22 2861   0.535   0.558  10.297  0.1383  0.6035  0.4960
   22SAPC   H2R 2862   0.574   0.644  10.239  1.6808  1.2880  2.4162
   22SAPC   H2S 2863   0.614   0.525  10.369 -0.0638 -0.9251  0.0656
   22SAPC    C3 2864   0.332   0.950  10.437 -0.6052 -0.1470 -0.7919
   22SAPC    HX 2865   0.438   0.976  10.459  0.0580 -0.7370 -3.0147
   22SAPC    HY 2866   0.270   1.001  10.514  0.6201  0.4517 -0.1738
   22SAPC   O31 2867   0.286   0.993  10.309 -0.4924 -0.1258  0.0213
   22SAPC   C31 2868   0.345   1.104  10.263 -0.7365 -0.5495 -0.2483
   22SAPC   O32 2869   0.413   1.184  10.328  0.1044  0.0198 -0.0724
   22SAPC   C32 2870   0.316   1.106  10.116  0.1519  0.1764 -0.6368
   22SAPC   H2X 2871   0.314   1.209  10.075  1.9485  0.4460 -0.1156
   22SAPC   H2Y 2872   0.217   1.066  10.083  1.3063 -3.1335 -0.5225
   22SAPC   C23 2873   0.487   0.445  10.200 -0.3289  0.5557  0.2148
   22SAPC   H3R 2874   0.437   0.362  10.254  1.2081 -0.8619 -0.4385
   22SAPC   H3S 2875   0.586   0.410  10.164 -0.4404  0.9126 -0.4558
   22SAPC   C24 2876   0.409   0.490  10.072  0.1727  0.6471 -0.5195
   22SAPC   H4R 2877   0.464   0.572  10.020  1.2478  0.2061 -0.1111
   22SAPC   H4S 2878   0.313   0.535  10.107  1.1765  1.9654  0.6726
   22SAPC   C25 2879   0.381   0.367   9.986  0.2025 -0.0115  0.3743
   22SAPC   H5R 2880   0.304   0.298  10.026 -0.1763  0.8565  1.1835
   22SAPC   C26 2881   0.446   0.336   9.870  0.3377 -0.4055  0.7261
   22SAPC   H6R 2882   0.417   0.241   9.823  0.9793  0.1516 -0.8405
   22SAPC   C27 2883   0.564   0.408   9.807 -0.4036  0.2453  0.2994
   22SAPC   H7R 2884   0.621   0.461   9.887  0.1119 -1.1492  0.8820
   22SAPC   H7S 2885   0.537   0.490   9.737  0.8976  0.9362  0.5806
   22SAPC   C28 2886   0.654   0.301   9.750 -0.4635  0.4359  0.0686
   22SAPC   H8R 2887   0.716   0.248   9.823  0.0498 -2.6109 -2.3318
   22SAPC   C29 2888   0.674   0.257   9.623  0.4520 -0.0035  0.2217
   22SAPC   H9R 2889   0.744   0.176   9.599 -2.8668 -2.5642 -1.6937
   22SAPC  C210 2890   0.588   0.312   9.510 -0.2963  0.3229  0.1161
   22SAPC  H10R 2891   0.652   0.382   9.451  0.0423 -0.6216 -0.6560
   22SAPC  H10S 2892   0.499   0.373   9.536 -0.5267  0.2220 -0.4300
   22SAPC  C211 2893   0.534   0.189   9.444 -0.2708 -0.4902  0.3380
   22SAPC  H11R 2894   0.479   0.119   9.508 -1.9303  2.2605  2.0908
   22SAPC  C212 2895   0.549   0.161   9.318  0.1551  0.2950  0.2036
   22SAPC  H12R 2896   0.521   0.063   9.276  0.1059 -0.5112  2.0224
   22SAPC  C213 2897   0.626   0.240   9.213  0.4487 -0.8465  0.0071
   22SAPC  H13R 2898   0.706   0.173   9.174  0.9378 -0.0586 -0.3753
   22SAPC  H13S 2899   0.690   0.324   9.248 -0.1398 -0.0352 -0.8139
   22SAPC  C214 2900   0.536   0.302   9.107 -0.2951  0.1432  0.4882
   22SAPC  H14R 2901   0.479   0.391   9.139  0.8317  0.8845  0.4703
   22SAPC  C215 2902   0.529   0.272   8.984 -0.0660 -0.1776 -0.0958
   22SAPC  H15R 2903   0.478   0.335   8.909  0.3302 -1.2619 -1.3242
   22SAPC  C216 2904   0.613   0.166   8.921  0.3386 -0.7100  0.3247
   22SAPC  H16R 2905   0.562   0.067   8.913 -0.3638 -0.3649  0.4291
   22SAPC  H16S 2906   0.708   0.154   8.976  1.7024  1.8449 -1.3071
   22SAPC  C217 2907   0.660   0.199   8.778  0.9737  0.2861  0.4363
   22SAPC  H17R 2908   0.759   0.154   8.757  0.9644 -0.3838  1.7110
   22SAPC  H17S 2909   0.662   0.310   8.776 -0.1006  0.3069 -0.0088
   22SAPC  C218 2910   0.566   0.136   8.672 -0.3506 -0.3545  0.1800
   22SAPC  H18R 2911   0.560   0.026   8.689 -1.1103 -0.2524  0.6565
   22SAPC  H18S 2912   0.613   0.162   8.575  1.7455  0.7515  1.4192
   22SAPC  C219 2913   0.424   0.191   8.661  0.0513 -1.0987 -0.3883
   22SAPC  H19R 2914   0.418   0.299   8.636 -1.7712 -0.4010  2.5581
   22SAPC  H19S 2915   0.374   0.178   8.759  2.2724 -0.7299  0.8756
   22SAPC  C220 2916   0.342   0.113   8.558  0.0248  0.1199  0.3360
   22SAPC  H20R 2917   0.360   0.157   8.458 -1.7982 -0.1917 -0.1675
   22SAPC  H20S 2918   0.235   0.118   8.588 -0.0066  2.7519  0.0745
   22SAPC  H20T 2919   0.366   0.006   8.545 -1.1787 -0.2087  0.6934
   22SAPC   C33 2920   0.430   1.040  10.043 -0.3411 -0.2844 -0.1908
   22SAPC   H3X 2921   0.442   0.931  10.062  0.2192 -0.5942 -2.0618
   22SAPC   H3Y 2922   0.531   1.085  10.056  0.3408 -1.0545 -2.3416
   22SAPC   C34 2923   0.402   1.046   9.893 -0.0329  0.2240 -0.2099
   22SAPC   H4X 2924   0.408   1.152   9.859 -1.6842  0.0909 -1.0140
   22SAPC   H4Y 2925   0.303   1.002   9.872  0.4935 -0.4631 -1.4126
   22SAPC   C35 2926   0.509   0.958   9.811 -0.1127 -0.5946  0.3554
   22SAPC   H5X 2927   0.501   0.854   9.848 -0.0764 -0.8979 -0.4690
   22SAPC   H5Y 2928   0.606   1.002   9.845  0.7153 -0.2774 -2.2235
   22SAPC   C36 2929   0.498   0.971   9.657 -0.1975 -0.0582  0.1137
   22SAPC   H6X 2930   0.397   0.938   9.622  0.5256 -0.4214 -1.7788
   22SAPC   H6Y 2931   0.564   0.896   9.609 -1.3953 -1.6450  0.8491
   22SAPC   C37 2932   0.553   1.102   9.598  0.3676  0.0987 -0.0229
   22SAPC   H7X 2933   0.663   1.116   9.609  0.6978 -0.8920 -1.7317
   22SAPC   H7Y 2934   0.506   1.183   9.658  0.4802 -0.7042  1.1905
   22SAPC   C38 2935   0.506   1.110   9.449  0.2526 -0.4301 -0.4408
   22SAPC   H8X 2936   0.544   1.205   9.406 -0.9172 -0.3987 -1.4493
   22SAPC   H8Y 2937   0.395   1.108   9.438  0.0497 -1.5825  1.4240
   22SAPC   C39 2938   0.575   1.000   9.364 -0.8567 -0.1747  0.2289
   22SAPC   H9X 2939   0.549   0.896   9.394  0.2873  0.4009  3.6663
   22SAPC   H9Y 2940   0.684   1.011   9.379 -0.9813  1.8895 -0.0975
   22SAPC  C310 2941   0.544   1.020   9.217 -0.1716 -0.0296  0.8269
   22SAPC  H10X 2942   0.443   1.063   9.202  0.1215  0.0374 -1.2890
   22SAPC  H10Y 2943   0.542   0.919   9.171 -0.3676  0.2680  0.1742
   22SAPC  C311 2944   0.654   1.098   9.146 -0.0701 -0.0407  0.4603
   22SAPC  H11X 2945   0.740   1.034   9.117  0.4827  1.8486 -2.6180
   22SAPC  H11Y 2946   0.680   1.173   9.223 -1.1882  0.1727  0.6416
   22SAPC  C312 2947   0.605   1.175   9.019 -0.7672  0.6379 -0.3352
   22SAPC  H12X 2948   0.686   1.240   8.978 -0.1192  0.2314  0.2725
   22SAPC  H12Y 2949   0.532   1.247   9.062 -0.5871  1.9323 -2.0772
   22SAPC  C313 2950   0.548   1.078   8.917 -0.2305  0.7957  0.0854
   22SAPC  H13X 2951   0.469   1.013   8.959 -2.7400  2.4343 -1.8365
   22SAPC  H13Y 2952   0.628   1.010   8.880 -0.0483  0.1966  1.5116
   22SAPC  C314 2953   0.474   1.129   8.794 -0.2476  0.1137 -0.2885
   22SAPC  H14X 2954   0.536   1.184   8.720  3.0090 -0.4497  1.8041
   22SAPC  H14Y 2955   0.406   1.208   8.832 -1.5020 -1.7064  1.4106
   22SAPC  C315 2956   0.383   1.022   8.719 -0.5554 -0.1601  0.8405
   22SAPC  H15X 2957   0.279   1.036   8.754 -1.4639 -0.2900 -1.5731
   22SAPC  H15Y 2958   0.421   0.921   8.745 -0.6466 -0.7715 -1.1983
   22SAPC  C316 2959   0.392   1.035   8.564  0.0514 -0.5719  0.2031
   22SAPC  H16X 2960   0.499   1.014   8.545 -0.2772 -1.1349 -1.1003
   22SAPC  H16Y 2961   0.349   1.132   8.532 -0.5026 -0.2833  1.7482
   22SAPC  C317 2962   0.319   0.909   8.496 -0.0449  0.4680  0.4894
   22SAPC  H17X 2963   0.212   0.935   8.509  0.2114  0.8927  1.9903
   22SAPC  H17Y 2964   0.338   0.816   8.554 -2.2096 -0.3497 -0.0283
   22SAPC  C318 2965   0.353   0.898   8.346  0.7358 -0.0047 -0.0811
   22SAPC  H18X 2966   0.461   0.870   8.340  0.1372 -2.7466  0.3228
   22SAPC  H18Y 2967   0.334   0.993   8.292  1.6415  0.1628 -0.1225
   22SAPC  H18Z 2968   0.293   0.818   8.297 -0.0032  0.2912  0.3332
   23SAPC     N 2969   3.298   4.826  11.149 -0.0344 -0.3116  0.1497
   23SAPC   C12 2970   3.330   4.877  11.011  0.1031 -0.5063  0.3858
   23SAPC  H12A 2971   3.380   4.795  10.963  0.2105 -0.0487 -0.2936
   23SAPC  H12B 2972   3.403   4.953  11.031  0.1653 -0.0332 -1.5137
   23SAPC   C13 2973   3.214   4.917  11.223 -0.0788  0.4307  0.1619
   23SAPC  H13A 2974   3.116   4.912  11.176 -0.3654  0.0111  0.7957
   23SAPC  H13B 2975   3.192   4.885  11.323  0.5538  2.2674  0.9382
   23SAPC  H13C 2976   3.252   5.018  11.224 -0.9048  0.8045 -1.4561
   23SAPC   C14 2977   3.203   4.709  11.150 -0.0149  0.7233  1.0215
   23SAPC  H14A 2978   3.151   4.701  11.245  0.6746  0.6355  1.3988
   23SAPC  H14B 2979   3.139   4.726  11.065  2.6923 -0.2219 -1.3790
   23SAPC  H14C 2980   3.256   4.615  11.140 -0.0161  0.8371 -0.1397
   23SAPC   C15 2981   3.416   4.791  11.229 -0.0438 -0.0765 -0.2880
   23SAPC  H15A 2982   3.468   4.712  11.175 -0.2612  0.2356 -0.9670
   23SAPC  H15B 2983   3.492   4.864  11.250  1.2401 -1.3189 -0.4246
   23SAPC  H15C 2984   3.372   4.765  11.324  1.7046  0.5930  0.7545
   23SAPC   C11 2985   3.216   4.929  10.924  0.4412  0.3709 -0.0199
   23SAPC  H11A 2986   3.257   4.971  10.830 -1.4926  1.9035 -0.2685
   23SAPC  H11B 2987   3.173   5.016  10.979  1.6924  0.2054  1.2662
   23SAPC     P 2988   3.104   4.753  10.757 -0.0826 -0.1259 -0.1110
   23SAPC   O13 2989   3.029   4.629  10.766  0.0375  0.0100 -0.2589
   23SAPC   O14 2990   3.055   4.848  10.661 -0.2441  0.0617  0.6415
   23SAPC   O12 2991   3.119   4.823  10.900  0.0996 -0.0594 -0.0046
   23SAPC   O11 2992   3.254   4.718  10.727 -0.4252  0.4736 -0.2265
   23SAPC    C1 2993   3.348   4.773  10.636 -0.1652 -0.1140 -0.9850
   23SAPC    HA 2994   3.356   4.880  10.662  0.1435 -0.9972  3.1159
   23SAPC    HB 2995   3.450   4.731  10.651  0.6164  1.5399 -1.4808
   23SAPC    C2 2996   3.309   4.752  10.493 -0.0600 -0.3793  0.6401
   23SAPC    HS 2997   3.216   4.812  10.481 -2.0009 -2.7637  2.7442
   23SAPC   O21 2998   3.290   4.610  10.475  0.2070 -0.4244  0.5289
   23SAPC   C21 2999   3.168   4.586  10.423 -0.2200  0.4450  0.6225
   23SAPC   O22 3000   3.086   4.671  10.388 -0.3624  0.2918  0.4583
   23SAPC   C22 3001   3.144   4.438  10.405 -0.2275  0.2048 -0.5789
   23SAPC   H2R 3002   3.185   4.412  10.305 -2.4146 -0.1621 -1.4438
   23SAPC   H2S 3003   3.190   4.379  10.487 -1.6988 -1.0871 -0.6471
   23SAPC    C3 3004   3.400   4.813  10.378 -0.3490 -0.1377  0.5618
   23SAPC    HX 3005   3.489   4.748  10.365  0.0225 -0.0392  2.3092
   23SAPC    HY 3006   3.440   4.912  10.409  0.3172 -0.3856  0.4992
   23SAPC   O31 3007   3.329   4.815  10.247  0.0694  0.1854  0.4921
   23SAPC   C31 3008   3.299   4.941  10.211 -0.4330  0.1970  0.1068
   23SAPC   O32 3009   3.340   5.043  10.266  0.0159 -0.2508 -0.5226
   23SAPC   C32 3010   3.237   4.938  10.073 -0.0898  0.0784  0.3309
   23SAPC   H2X 3011   3.276   4.846  10.024 -0.1683  0.3986 -0.3273
   23SAPC   H2Y 3012   3.273   5.035  10.034  0.0173  1.5669  3.7251
   23SAPC   C23 3013   2.991   4.408  10.398 -0.6530  0.5741 -0.6118
   23SAPC   H3R 3014   2.947   4.449  10.305  0.8898 -0.4065 -1.8372
   23SAPC   H3S 3015   2.928   4.452  10.478 -2.0999 -0.5434 -1.0949
   23SAPC   C24 3016   2.976   4.255  10.404  0.5121  0.3036  0.3888
   23SAPC   H4R 3017   3.026   4.210  10.492  1.9146  1.1614  0.0526
   23SAPC   H4S 3018   3.034   4.208  10.322  0.8502 -0.6365  1.1486
   23SAPC   C25 3019   2.825   4.221  10.402 -0.3770  0.3985 -0.5039
   23SAPC   H5R 3020   2.784   4.250  10.500  1.4934  2.0306 -0.1252
   23SAPC   C26 3021   2.760   4.147  10.309 -0.2519  0.0548 -0.0508
   23SAPC   H6R 3022   2.651   4.138  10.320 -0.1685  0.9483  1.8019
   23SAPC   C27 3023   2.824   4.087  10.182 -0.4708 -0.0932  0.1684
   23SAPC   H7R 3024   2.893   4.004  10.209  3.1200  2.2380 -1.1074
   23SAPC   H7S 3025   2.906   4.149  10.142 -1.0056  0.3882 -0.1929
   23SAPC   C28 3026   2.730   4.033  10.070 -0.4042  0.0697 -0.5982
   23SAPC   H8R 3027   2.732   3.923  10.071  0.6200  0.0789  0.9578
   23SAPC   C29 3028   2.668   4.107   9.983  0.2194 -0.3684  0.1681
   23SAPC   H9R 3029   2.587   4.070   9.917 -0.3055  0.5878  0.2610
   23SAPC  C210 3030   2.668   4.262   9.992 -0.3887  0.1373 -0.1767
   23SAPC  H10R 3031   2.733   4.296   9.908 -0.4117 -0.3111 -0.3774
   23SAPC  H10S 3032   2.727   4.299  10.078  1.6250  1.0877 -1.8663
   23SAPC  C211 3033   2.538   4.345   9.990  0.4635 -0.6297 -0.5535
   23SAPC  H11R 3034   2.538   4.427  10.064 -0.5552 -0.5495 -0.6403
   23SAPC  C212 3035   2.448   4.356   9.894  0.0940 -0.5875  0.1395
   23SAPC  H12R 3036   2.362   4.421   9.914 -0.9315 -1.8249 -0.1698
   23SAPC  C213 3037   2.442   4.285   9.762 -0.1076  0.6884  0.2591
   23SAPC  H13R 3038   2.497   4.192   9.785  1.7337  2.0508  1.7371
   23SAPC  H13S 3039   2.507   4.338   9.688 -1.0109  1.8867  0.2752
   23SAPC  C214 3040   2.303   4.266   9.707  0.0880  0.3511  0.0081
   23SAPC  H14R 3041   2.281   4.161   9.682  0.7248 -0.6731  3.2810
   23SAPC  C215 3042   2.217   4.350   9.659 -0.7396  0.2702  0.4304
   23SAPC  H15R 3043   2.120   4.320   9.615 -0.2037  1.4905 -1.7221
   23SAPC  C216 3044   2.239   4.501   9.648  0.4253  0.5125 -0.7561
   23SAPC  H16R 3045   2.270   4.534   9.749  0.2067 -0.1426 -0.4707
   23SAPC  H16S 3046   2.138   4.546   9.638 -0.7852 -1.9497 -0.3678
   23SAPC  C217 3047   2.337   4.530   9.534  0.2149 -0.0916 -0.0038
   23SAPC  H17R 3048   2.295   4.486   9.441 -0.4362  0.5577 -0.0344
   23SAPC  H17S 3049   2.427   4.467   9.548  0.1262 -0.6266 -1.6459
   23SAPC  C218 3050   2.390   4.676   9.531  0.2272 -0.5303  0.4482
   23SAPC  H18R 3051   2.301   4.742   9.522 -0.3543 -0.9850  2.3060
   23SAPC  H18S 3052   2.446   4.698   9.438 -0.1441 -0.9642  0.1120
   23SAPC  C219 3053   2.479   4.701   9.653 -0.5227 -0.1994  0.1404
   23SAPC  H19R 3054   2.556   4.621   9.660  0.0814  0.4370  0.8930
   23SAPC  H19S 3055   2.423   4.683   9.747  1.0739 -0.4315  1.0835
   23SAPC  C220 3056   2.542   4.836   9.651  0.0431  0.0937  0.2269
   23SAPC  H20R 3057   2.620   4.842   9.572 -0.1659 -1.7937 -0.1712
   23SAPC  H20S 3058   2.572   4.873   9.752  1.6495 -1.1581  0.2567
   23SAPC  H20T 3059   2.466   4.912   9.624  1.5309  1.4133 -0.4556
   23SAPC   C33 3060   3.085   4.918  10.075 -0.1773 -0.4858 -0.3028
   23SAPC   H3X 3061   3.035   4.974  10.157 -0.9659 -1.8398  0.1570
   23SAPC   H3Y 3062   3.061   4.811  10.089  0.3749 -0.2597  3.1983
   23SAPC   C34 3063   3.018   4.975   9.947  0.1926  0.6846 -0.2854
   23SAPC   H4X 3064   3.018   5.086   9.948  2.0846  0.7207  1.4252
   23SAPC   H4Y 3065   2.912   4.945   9.950  0.6182 -0.8381  0.1927
   23SAPC   C35 3066   3.089   4.916   9.827  0.5499  0.6324  0.6646
   23SAPC   H5X 3067   3.094   4.805   9.824 -0.3972  0.5947 -0.8084
   23SAPC   H5Y 3068   3.193   4.955   9.827  0.8149 -0.0511 -0.0111
   23SAPC   C36 3069   3.017   4.962   9.699  0.1114  0.3965  0.2639
   23SAPC   H6X 3070   3.027   5.073   9.691 -0.8533  0.4602 -0.2815
   23SAPC   H6Y 3071   2.908   4.948   9.716 -0.1854  1.9453 -0.1271
   23SAPC   C37 3072   3.068   4.884   9.573  0.1461 -0.7639 -0.3285
   23SAPC   H7X 3073   3.025   4.783   9.587  0.8103 -0.9886  0.1240
   23SAPC   H7Y 3074   3.178   4.888   9.588 -0.0362 -0.8768  1.1523
   23SAPC   C38 3075   3.011   4.950   9.442 -0.4938 -0.2470  0.2845
   23SAPC   H8X 3076   3.069   4.910   9.356 -1.4777 -0.0967 -0.4735
   23SAPC   H8Y 3077   3.013   5.061   9.447  1.5769  0.0388 -3.1909
   23SAPC   C39 3078   2.858   4.916   9.420 -0.1390  0.6741 -0.5578
   23SAPC   H9X 3079   2.792   4.958   9.499  0.2874 -0.0945  0.2291
   23SAPC   H9Y 3080   2.843   4.806   9.421  1.5298  0.4253  0.0719
   23SAPC  C310 3081   2.801   4.974   9.296 -0.2423  0.1503 -0.3076
   23SAPC  H10X 3082   2.867   4.952   9.209  1.9549 -0.1880  1.3902
   23SAPC  H10Y 3083   2.786   5.084   9.307 -3.1458  0.0664 -2.1900
   23SAPC  C311 3084   2.667   4.909   9.262  0.3320  0.2157 -0.6078
   23SAPC  H11X 3085   2.591   4.932   9.340  0.5455  0.0464 -0.3499
   23SAPC  H11Y 3086   2.677   4.799   9.249 -1.6055  0.0528 -1.0381
   23SAPC  C312 3087   2.591   4.943   9.133  0.2890 -0.2778 -0.2004
   23SAPC  H12X 3088   2.657   4.925   9.045  0.9260 -2.4076  0.6594
   23SAPC  H12Y 3089   2.545   5.044   9.139 -2.0759 -1.2834 -0.4981
   23SAPC  C313 3090   2.479   4.838   9.105  0.4709  0.1046  0.4774
   23SAPC  H13X 3091   2.402   4.841   9.186  1.3663 -1.5557  1.4503
   23SAPC  H13Y 3092   2.517   4.734   9.119 -1.7343 -1.0313 -1.3004
   23SAPC  C314 3093   2.416   4.851   8.963  0.3433  0.0464 -0.4491
   23SAPC  H14X 3094   2.488   4.843   8.878 -1.1692  1.1173 -1.8889
   23SAPC  H14Y 3095   2.373   4.952   8.948  0.0643 -0.1078 -0.7028
   23SAPC  C315 3096   2.301   4.759   8.939  0.8346  0.7290 -0.3508
   23SAPC  H15X 3097   2.213   4.806   8.988 -1.6840 -0.4261 -3.4169
   23SAPC  H15Y 3098   2.325   4.664   8.991  0.7937 -1.6727 -4.3088
   23SAPC  C316 3099   2.271   4.730   8.791  0.1154  0.5706  0.9355
   23SAPC  H16X 3100   2.367   4.729   8.735 -1.7578  2.5640 -2.6971
   23SAPC  H16Y 3101   2.224   4.822   8.751 -0.4286 -0.1152 -0.0533
   23SAPC  C317 3102   2.192   4.608   8.770 -0.2389 -0.3829 -0.9490
   23SAPC  H17X 3103   2.254   4.523   8.804  1.0721  1.5096  1.7716
   23SAPC  H17Y 3104   2.154   4.606   8.665 -1.5840  1.1993 -0.5377
   23SAPC  C318 3105   2.059   4.608   8.849  0.0511 -0.0737 -0.6149
   23SAPC  H18X 3106   2.016   4.506   8.843  2.0169 -0.9979 -0.0557
   23SAPC  H18Y 3107   1.984   4.680   8.811  0.6588  0.3902 -0.9721
   23SAPC  H18Z 3108   2.080   4.615   8.957  3.1133  1.8874 -1.2089
   24SAPC     N 3109   1.506   4.299  11.099  0.3652  0.9121 -0.9476
   24SAPC   C12 3110   1.550   4.381  10.973 -0.8971 -0.8713  0.5524
   24SAPC  H12A 3111   1.510   4.324  10.890 -0.7257 -1.9048  1.1585
   24SAPC  H12B 3112   1.657   4.375  10.983 -1.0452 -0.6030  2.7177
   24SAPC   C13 3113   1.583   4.172  11.110  0.0139 -0.1637  0.5244
   24SAPC  H13A 3114   1.686   4.193  11.131  0.1512  0.2722 -0.5375
   24SAPC  H13B 3115   1.556   4.107  11.192  0.7225 -1.8848 -0.5592
   24SAPC  H13C 3116   1.576   4.127  11.012  0.9788  3.2408 -1.2492
   24SAPC   C14 3117   1.526   4.381  11.221 -0.1675 -1.1112  0.5058
   24SAPC  H14A 3118   1.522   4.328  11.315  1.3660 -0.2388  1.0841
   24SAPC  H14B 3119   1.610   4.447  11.206 -1.7514  1.0031  0.3573
   24SAPC  H14C 3120   1.431   4.432  11.231  0.0226 -0.7560  0.5050
   24SAPC   C15 3121   1.364   4.263  11.086 -0.6518  0.0304  0.5390
   24SAPC  H15A 3122   1.334   4.225  11.183  1.7498  3.0577  2.6996
   24SAPC  H15B 3123   1.316   4.359  11.071  2.4540  1.4699 -1.1085
   24SAPC  H15C 3124   1.345   4.187  11.012  3.1800 -1.0358  0.4470
   24SAPC   C11 3125   1.526   4.531  10.957 -0.4245 -0.2905 -0.1547
   24SAPC  H11A 3126   1.558   4.553  10.853  2.4513  0.5418  0.8263
   24SAPC  H11B 3127   1.590   4.598  11.018 -1.5002 -0.9507  1.7892
   24SAPC     P 3128   1.284   4.534  10.868 -0.0807  0.0166 -0.0370
   24SAPC   O13 3129   1.349   4.465  10.756 -0.7001 -0.9754 -0.0720
   24SAPC   O14 3130   1.169   4.466  10.941  0.1952 -0.1936  0.4060
   24SAPC   O12 3131   1.393   4.582  10.977 -0.4963 -1.1069  0.0281
   24SAPC   O11 3132   1.227   4.665  10.797 -0.1343 -0.1092  0.2566
   24SAPC    C1 3133   1.299   4.787  10.793 -0.4417 -0.4029 -0.2287
   24SAPC    HA 3134   1.323   4.819  10.897 -0.2392  1.5508 -0.8554
   24SAPC    HB 3135   1.393   4.779  10.734 -0.9224 -1.2672 -0.8987
   24SAPC    C2 3136   1.223   4.907  10.722 -0.3365  0.2983  0.0536
   24SAPC    HS 3137   1.134   4.934  10.783 -1.0276  1.3730 -1.3850
   24SAPC   O21 3138   1.184   4.867  10.591 -0.3757  0.4630  0.6946
   24SAPC   C21 3139   1.087   4.934  10.536 -0.0120 -0.9490 -0.1990
   24SAPC   O22 3140   1.012   5.012  10.595 -0.6098 -0.2519  0.4911
   24SAPC   C22 3141   1.074   4.902  10.384  0.2608 -0.3874 -0.3383
   24SAPC   H2R 3142   1.171   4.864  10.345 -0.3525 -1.2122 -1.1003
   24SAPC   H2S 3143   1.005   4.815  10.379  0.7252 -1.0750  2.8731
   24SAPC    C3 3144   1.317   5.032  10.696  0.2312 -0.2089 -0.1188
   24SAPC    HX 3145   1.354   5.075  10.792  1.3270  0.7818 -0.9669
   24SAPC    HY 3146   1.262   5.116  10.651  3.4304  2.1925  0.0823
   24SAPC   O31 3147   1.440   4.996  10.629 -0.4722  0.4317  0.3438
   24SAPC   C31 3148   1.433   5.011  10.498  0.1444  0.1268  0.0401
   24SAPC   O32 3149   1.338   5.045  10.433  0.4475 -0.4288 -0.3460
   24SAPC   C32 3150   1.574   4.997  10.437  0.2370  0.1234 -0.0499
   24SAPC   H2X 3151   1.648   4.957  10.510  0.8611  1.3242  0.0133
   24SAPC   H2Y 3152   1.595   5.104  10.413  0.1032  0.7019  2.2066
   24SAPC   C23 3153   1.012   5.025  10.314 -0.2452  0.5619  0.6302
   24SAPC   H3R 3154   1.089   5.105  10.316 -0.0829  0.4014  0.8671
   24SAPC   H3S 3155   0.923   5.053  10.376 -0.9502 -0.1677 -0.0411
   24SAPC   C24 3156   0.971   5.002  10.166  0.7333  0.5351  0.2514
   24SAPC   H4R 3157   0.877   4.943  10.163  0.2473  1.3223 -1.7788
   24SAPC   H4S 3158   1.056   4.952  10.116 -1.1855 -0.1496 -2.5798
   24SAPC   C25 3159   0.951   5.128  10.090 -0.2586 -0.3542 -0.2157
   24SAPC   H5R 3160   0.919   5.209  10.157 -0.6305 -1.6597  1.2324
   24SAPC   C26 3161   0.956   5.152   9.953  0.1823  0.8103 -0.9828
   24SAPC   H6R 3162   0.933   5.252   9.912  0.6575  1.0285 -0.7305
   24SAPC   C27 3163   0.973   5.054   9.840  0.2013  0.2237  0.0486
   24SAPC   H7R 3164   1.069   4.999   9.840 -0.2478 -0.6271 -1.8503
   24SAPC   H7S 3165   0.964   5.116   9.748 -1.2733  1.5538  1.0486
   24SAPC   C28 3166   0.868   4.947   9.825 -0.1056  0.1626 -0.1426
   24SAPC   H8R 3167   0.789   4.950   9.901  0.2297 -0.7618  0.2553
   24SAPC   C29 3168   0.845   4.874   9.712  0.3087 -0.4991 -0.4522
   24SAPC   H9R 3169   0.760   4.805   9.720 -0.2801  0.1817 -0.6777
   24SAPC  C210 3170   0.917   4.877   9.582 -0.2155  0.2436  0.1868
   24SAPC  H10R 3171   0.947   4.772   9.560 -0.8958 -0.5248  2.6387
   24SAPC  H10S 3172   1.014   4.931   9.580 -0.2438  0.3151 -1.8759
   24SAPC  C211 3173   0.836   4.952   9.482  1.1704  0.4510  0.0228
   24SAPC  H11R 3174   0.828   5.054   9.524  0.9382  0.5622 -0.2866
   24SAPC  C212 3175   0.786   4.921   9.365 -0.0925  0.0164  0.7301
   24SAPC  H12R 3176   0.732   4.995   9.305 -0.2437 -1.4676 -1.0444
   24SAPC  C213 3177   0.800   4.779   9.300 -0.5611 -0.4868 -0.6709
   24SAPC  H13R 3178   0.702   4.726   9.302  0.5474 -2.6541  0.3741
   24SAPC  H13S 3179   0.867   4.723   9.369 -0.0028  2.1539  1.1025
   24SAPC  C214 3180   0.856   4.785   9.161  0.5092  0.2358  0.2875
   24SAPC  H14R 3181   0.903   4.879   9.128  0.1597 -0.2224 -1.6251
   24SAPC  C215 3182   0.861   4.682   9.071  0.0601  0.1485 -0.1264
   24SAPC  H15R 3183   0.895   4.699   8.968 -3.0821  0.9305 -1.1393
   24SAPC  C216 3184   0.803   4.546   9.103 -0.1382  0.0905 -1.1602
   24SAPC  H16R 3185   0.805   4.532   9.213 -3.5211 -2.8626 -1.3055
   24SAPC  H16S 3186   0.874   4.467   9.070  0.3199 -0.9213  1.9637
   24SAPC  C217 3187   0.662   4.541   9.042  0.2669 -0.3782  0.2758
   24SAPC  H17R 3188   0.612   4.640   9.041  1.7914  0.4232 -0.1010
   24SAPC  H17S 3189   0.603   4.475   9.109 -0.2095 -0.2058  0.0269
   24SAPC  C218 3190   0.667   4.478   8.900  0.3611 -0.6826  0.8680
   24SAPC  H18R 3191   0.738   4.392   8.894 -1.0681 -1.8331 -0.7642
   24SAPC  H18S 3192   0.725   4.550   8.839  2.1778 -3.4400 -0.9166
   24SAPC  C219 3193   0.532   4.428   8.840 -0.3275 -0.1110 -0.2858
   24SAPC  H19R 3194   0.458   4.510   8.845 -1.1118 -0.8716  2.0271
   24SAPC  H19S 3195   0.482   4.350   8.903 -2.3295  0.4377 -1.1099
   24SAPC  C220 3196   0.547   4.375   8.696  0.1994  0.6898  0.1417
   24SAPC  H20R 3197   0.620   4.291   8.695 -1.2250 -0.6123  0.3946
   24SAPC  H20S 3198   0.579   4.441   8.614 -0.3339 -1.9440 -2.3579
   24SAPC  H20T 3199   0.450   4.328   8.667  1.2271 -0.5796 -1.3924
   24SAPC   C33 3200   1.577   4.924  10.300  1.1328 -0.1242 -0.3873
   24SAPC   H3X 3201   1.680   4.936  10.261  0.5794  0.1158 -1.8252
   24SAPC   H3Y 3202   1.505   4.972  10.230  0.1742 -0.9498  0.0092
   24SAPC   C34 3203   1.558   4.770  10.320  0.7036  0.0414  0.6380
   24SAPC   H4X 3204   1.453   4.737  10.339  1.1750 -1.4774  0.7443
   24SAPC   H4Y 3205   1.613   4.746  10.414 -0.5251  1.9273  1.9216
   24SAPC   C35 3206   1.604   4.677  10.207 -0.2688 -0.1302 -0.1262
   24SAPC   H5X 3207   1.601   4.570  10.235  0.5271  0.2898  1.7321
   24SAPC   H5Y 3208   1.711   4.704  10.193  0.3766 -0.5868  3.0132
   24SAPC   C36 3209   1.531   4.701  10.070 -0.9490 -0.0901 -1.2217
   24SAPC   H6X 3210   1.600   4.646  10.002  0.0023 -1.1857  0.5325
   24SAPC   H6Y 3211   1.528   4.811  10.061 -1.4403  0.1271  1.0295
   24SAPC   C37 3212   1.387   4.663  10.065 -0.9368  0.5542  0.3398
   24SAPC   H7X 3213   1.328   4.727  10.135 -0.4709  1.8742 -0.4486
   24SAPC   H7Y 3214   1.373   4.558  10.097  0.4645 -0.1539 -1.2689
   24SAPC   C38 3215   1.337   4.702   9.925  0.1831 -0.5169 -0.2655
   24SAPC   H8X 3216   1.353   4.812   9.926  0.9867 -0.6083  1.7152
   24SAPC   H8Y 3217   1.226   4.697   9.923  0.1148  0.5030  0.2672
   24SAPC   C39 3218   1.404   4.629   9.812  0.7064 -0.3796  0.3135
   24SAPC   H9X 3219   1.378   4.524   9.839 -0.7455  0.2434  1.4990
   24SAPC   H9Y 3220   1.511   4.657   9.801  0.2224  0.9327 -1.3449
   24SAPC  C310 3221   1.346   4.648   9.673 -0.3260 -0.0885  0.6188
   24SAPC  H10X 3222   1.237   4.628   9.669  0.1441 -2.9159 -1.2871
   24SAPC  H10Y 3223   1.390   4.567   9.611 -2.5142 -0.4029 -0.6238
   24SAPC  C311 3224   1.385   4.775   9.603 -0.9260  0.1963  0.8190
   24SAPC  H11X 3225   1.481   4.819   9.636  0.9518 -3.7823  1.1435
   24SAPC  H11Y 3226   1.311   4.853   9.631  1.8893  2.7069  1.7727
   24SAPC  C312 3227   1.379   4.757   9.451 -0.0159 -0.2592 -0.3029
   24SAPC  H12X 3228   1.446   4.676   9.415  1.6923  1.2395 -0.6467
   24SAPC  H12Y 3229   1.411   4.854   9.408  2.1697 -1.0618 -0.5657
   24SAPC  C313 3230   1.240   4.727   9.394 -0.4844 -0.1107  0.1303
   24SAPC  H13X 3231   1.174   4.812   9.422 -1.8254 -0.2969 -2.2407
   24SAPC  H13Y 3232   1.189   4.643   9.447 -0.1612  0.6274  1.6633
   24SAPC  C314 3233   1.241   4.709   9.245 -0.7051  0.3900  0.1355
   24SAPC  H14X 3234   1.299   4.800   9.216  0.4253 -0.6934 -1.1259
   24SAPC  H14Y 3235   1.141   4.705   9.198 -0.9968  1.2689  0.6620
   24SAPC  C315 3236   1.318   4.596   9.183  0.1014  0.2743  0.1543
   24SAPC  H15X 3237   1.427   4.609   9.195 -0.1994  2.2569  1.1719
   24SAPC  H15Y 3238   1.296   4.580   9.075 -1.1035 -0.5714  0.4975
   24SAPC  C316 3239   1.282   4.463   9.253 -0.4587 -0.2196 -0.0544
   24SAPC  H16X 3240   1.304   4.469   9.362  1.5556  0.1156 -0.4377
   24SAPC  H16Y 3241   1.351   4.381   9.223 -2.3510 -1.7746 -0.3464
   24SAPC  C317 3242   1.138   4.410   9.233 -0.7258 -0.5047  0.1249
   24SAPC  H17X 3243   1.135   4.380   9.126  3.2078 -2.3310  0.3129
   24SAPC  H17Y 3244   1.062   4.483   9.267  0.5498 -0.1775  2.5664
   24SAPC  C318 3245   1.122   4.276   9.307 -0.6558  0.0137  0.0928
   24SAPC  H18X 3246   1.184   4.196   9.261  2.3547 -0.2849  4.0590
   24SAPC  H18Y 3247   1.020   4.235   9.294 -1.2407  0.9751  1.3704
   24SAPC  H18Z 3248   1.156   4.280   9.413 -0.2295 -1.5501  0.0407
   25SAPC     N 3249   1.186   3.119   6.196  0.1553 -0.4841  0.4281
   25SAPC   C12 3250   1.239   2.986   6.239 -0.1652  0.2334  0.4537
   25SAPC  H12A 3251   1.340   2.979   6.202 -0.2831 -1.3509  0.3649
   25SAPC  H12B 3252   1.195   2.904   6.185 -1.1301  0.8161  0.3366
   25SAPC   C13 3253   1.182   3.120   6.043  0.5101  0.3471  0.1869
   25SAPC  H13A 3254   1.162   3.220   6.009 -0.6758 -0.3488 -1.2486
   25SAPC  H13B 3255   1.281   3.101   6.003  0.6317 -0.4374  0.8120
   25SAPC  H13C 3256   1.113   3.052   5.996  0.5440  2.0440 -2.5345
   25SAPC   C14 3257   1.039   3.136   6.236  0.2123 -0.6189 -0.7008
   25SAPC  H14A 3258   0.972   3.063   6.193  0.2560 -1.0366 -0.0755
   25SAPC  H14B 3259   1.040   3.122   6.343  2.1817 -0.1625 -0.6139
   25SAPC  H14C 3260   0.994   3.230   6.208 -2.0302 -1.6081 -0.6364
   25SAPC   C15 3261   1.269   3.234   6.251  0.6695 -0.3864 -0.1182
   25SAPC  H15A 3262   1.374   3.211   6.241  0.6968 -0.8417  1.0589
   25SAPC  H15B 3263   1.238   3.324   6.201 -0.4136 -1.0499 -0.6909
   25SAPC  H15C 3264   1.249   3.234   6.358 -0.7506  0.5928 -0.3467
   25SAPC   C11 3265   1.253   2.942   6.390 -0.3481  0.1448 -0.0711
   25SAPC  H11A 3266   1.290   3.027   6.452  1.6147  1.0260 -2.3259
   25SAPC  H11B 3267   1.334   2.867   6.400  0.2970  0.8574  0.1790
   25SAPC     P 3268   1.067   2.771   6.382  0.2540  0.0613  0.3706
   25SAPC   O13 3269   0.953   2.816   6.292 -0.7429  0.4755  0.0376
   25SAPC   O14 3270   1.159   2.682   6.317  0.5826  0.0507 -0.0158
   25SAPC   O12 3271   1.136   2.895   6.458  0.0062  0.4059  0.1150
   25SAPC   O11 3272   0.996   2.695   6.499  0.3979  0.9817  0.2512
   25SAPC    C1 3273   1.073   2.664   6.612  0.1761  0.1007 -0.0157
   25SAPC    HA 3274   1.177   2.632   6.590  0.5325 -0.6606  2.4421
   25SAPC    HB 3275   1.077   2.748   6.685 -3.9877 -1.9221  2.9355
   25SAPC    C2 3276   1.017   2.532   6.683 -0.9457 -0.1898 -0.2678
   25SAPC    HS 3277   1.028   2.454   6.606  0.2418  0.8430 -1.1841
   25SAPC   O21 3278   0.887   2.562   6.725  0.3343  0.5990  0.0898
   25SAPC   C21 3279   0.826   2.450   6.763  0.0012  0.2045 -0.3352
   25SAPC   O22 3280   0.866   2.335   6.745  0.2818 -0.4511  0.1468
   25SAPC   C22 3281   0.696   2.495   6.828  0.8053 -0.1936  0.5932
   25SAPC   H2R 3282   0.692   2.602   6.858 -1.9909 -0.1763  0.3544
   25SAPC   H2S 3283   0.617   2.463   6.758 -1.6924  2.2882  2.0854
   25SAPC    C3 3284   1.106   2.495   6.803 -0.5470 -0.3407 -0.2255
   25SAPC    HX 3285   1.206   2.495   6.754 -1.3779 -0.7330 -2.0216
   25SAPC    HY 3286   1.085   2.391   6.834 -1.1989 -0.8657 -2.2630
   25SAPC   O31 3287   1.094   2.589   6.910  0.1096 -0.0192 -0.4259
   25SAPC   C31 3288   1.027   2.556   7.017 -0.7076  0.5072  1.0134
   25SAPC   O32 3289   0.981   2.445   7.039  0.1896 -0.1610 -0.1015
   25SAPC   C32 3290   1.018   2.681   7.111 -0.7280 -0.6653  0.1293
   25SAPC   H2X 3291   0.945   2.745   7.057  2.0193  0.4504 -2.5311
   25SAPC   H2Y 3292   1.111   2.742   7.107 -1.0781 -0.1090 -3.9987
   25SAPC   C23 3293   0.654   2.393   6.937  0.5860 -0.2163 -0.3900
   25SAPC   H3R 3294   0.727   2.402   7.021  0.9894 -0.7973 -0.6748
   25SAPC   H3S 3295   0.676   2.290   6.903 -2.1195 -0.6387 -1.1175
   25SAPC   C24 3296   0.505   2.387   6.993 -0.3286  0.2678 -0.3594
   25SAPC   H4R 3297   0.502   2.312   7.075 -0.9132  0.8651  0.1741
   25SAPC   H4S 3298   0.427   2.378   6.915 -0.6455  2.9415 -0.4415
   25SAPC   C25 3299   0.471   2.517   7.050 -0.6174 -0.5534 -0.4761
   25SAPC   H5R 3300   0.406   2.586   6.994  0.4952 -0.3521 -1.5595
   25SAPC   C26 3301   0.519   2.571   7.166 -0.6168  0.4745 -0.8906
   25SAPC   H6R 3302   0.496   2.676   7.189  1.4627  0.7879 -0.0470
   25SAPC   C27 3303   0.612   2.504   7.270  0.8353  0.5419 -0.5190
   25SAPC   H7R 3304   0.672   2.569   7.336 -0.0379 -0.6019  1.4966
   25SAPC   H7S 3305   0.689   2.444   7.216  0.4230 -0.9296  0.4810
   25SAPC   C28 3306   0.539   2.412   7.361  0.1139  0.0489 -0.1963
   25SAPC   H8R 3307   0.439   2.381   7.328  0.8057  0.3390 -2.7860
   25SAPC   C29 3308   0.592   2.361   7.474  0.1711  0.4660 -0.1913
   25SAPC   H9R 3309   0.529   2.284   7.521  0.3774  0.7557  0.5815
   25SAPC  C210 3310   0.726   2.388   7.528 -0.0260  0.0995  0.2157
   25SAPC  H10R 3311   0.709   2.341   7.627 -0.4342 -0.7018 -0.2233
   25SAPC  H10S 3312   0.727   2.499   7.524 -0.8206  0.0817 -2.3830
   25SAPC  C211 3313   0.844   2.326   7.454 -0.9341 -0.5140 -0.3403
   25SAPC  H11R 3314   0.840   2.314   7.345 -0.3463  3.5557 -0.9564
   25SAPC  C212 3315   0.967   2.288   7.506  0.0268 -0.2764  0.2024
   25SAPC  H12R 3316   1.026   2.221   7.441 -1.3890  0.0271 -1.4618
   25SAPC  C213 3317   1.014   2.297   7.652  1.1715  1.0079  0.3453
   25SAPC  H13R 3318   0.925   2.328   7.711 -1.8196 -1.0807 -2.6875
   25SAPC  H13S 3319   1.103   2.364   7.654  2.5259 -0.7338  0.8541
   25SAPC  C214 3320   1.072   2.168   7.695  0.5098  0.0723  0.1911
   25SAPC  H14R 3321   1.064   2.093   7.615 -0.1849  1.5619 -1.2051
   25SAPC  C215 3322   1.152   2.151   7.799 -0.2196  0.3259  0.2200
   25SAPC  H15R 3323   1.186   2.049   7.821 -0.0774  0.8195  2.6101
   25SAPC  C216 3324   1.197   2.254   7.895 -0.2059  0.4215 -0.6739
   25SAPC  H16R 3325   1.167   2.353   7.853 -2.0799 -0.3196 -1.1892
   25SAPC  H16S 3326   1.307   2.242   7.902 -0.4072 -0.7671  0.9106
   25SAPC  C217 3327   1.147   2.225   8.035 -0.3434 -0.2249  0.2274
   25SAPC  H17R 3328   1.153   2.126   8.086 -1.0455 -0.1961  0.3875
   25SAPC  H17S 3329   1.040   2.256   8.031 -0.0755  0.6165 -0.4269
   25SAPC  C218 3330   1.219   2.314   8.140 -0.1472 -0.0845 -0.1927
   25SAPC  H18R 3331   1.182   2.413   8.107 -1.6887 -0.7051 -0.4302
   25SAPC  H18S 3332   1.330   2.305   8.142  0.3024  3.7725  0.8043
   25SAPC  C219 3333   1.176   2.298   8.283 -0.0261 -0.7739 -0.5408
   25SAPC  H19R 3334   1.245   2.356   8.347 -2.4703  1.4857  0.1931
   25SAPC  H19S 3335   1.182   2.194   8.322  1.9998  0.1395  1.8831
   25SAPC  C220 3336   1.035   2.339   8.323  0.5869  0.3843  0.4909
   25SAPC  H20R 3337   1.014   2.447   8.310  0.1823  0.0698 -1.7186
   25SAPC  H20S 3338   1.016   2.321   8.431  0.2836  1.8203  0.6931
   25SAPC  H20T 3339   0.959   2.295   8.257 -0.7169  0.9845  1.5406
   25SAPC   C33 3340   0.984   2.653   7.258  0.1680  0.2121 -0.4192
   25SAPC   H3X 3341   1.060   2.581   7.296 -2.4038 -1.6970  1.4214
   25SAPC   H3Y 3342   0.894   2.588   7.258  0.6304 -0.4919 -2.2073
   25SAPC   C34 3343   0.981   2.774   7.344 -0.0993  0.4486  0.7456
   25SAPC   H4X 3344   0.931   2.851   7.282  1.1859 -0.1300 -1.0876
   25SAPC   H4Y 3345   1.088   2.800   7.354 -0.2134  0.7778  1.1460
   25SAPC   C35 3346   0.929   2.762   7.485  0.0388 -0.0846 -0.1652
   25SAPC   H5X 3347   0.822   2.731   7.488 -0.0716  0.0891 -1.7129
   25SAPC   H5Y 3348   0.936   2.862   7.532  1.4617 -0.7146  1.0574
   25SAPC   C36 3349   1.012   2.676   7.582  0.2332 -0.0199 -0.2482
   25SAPC   H6X 3350   1.113   2.682   7.537  0.4086  2.1750  0.3128
   25SAPC   H6Y 3351   0.972   2.572   7.584  0.4320 -0.1568 -2.0137
   25SAPC   C37 3352   1.028   2.753   7.714  0.4381 -0.0281 -0.3435
   25SAPC   H7X 3353   0.931   2.777   7.762  0.1626 -1.2292 -0.2660
   25SAPC   H7Y 3354   1.074   2.854   7.708  0.1175  0.1482  0.1043
   25SAPC   C38 3355   1.123   2.673   7.805 -0.4818  0.7049 -1.0039
   25SAPC   H8X 3356   1.223   2.689   7.759  0.2390 -0.2415  0.1875
   25SAPC   H8Y 3357   1.091   2.567   7.804 -0.9168  0.8341 -1.8032
   25SAPC   C39 3358   1.129   2.731   7.951  0.4591  0.2394 -0.2606
   25SAPC   H9X 3359   1.042   2.682   8.000  1.3651 -1.2785 -0.0998
   25SAPC   H9Y 3360   1.120   2.841   7.942  0.0196  0.1876 -0.4902
   25SAPC  C310 3361   1.258   2.706   8.025  0.0057 -0.1835 -0.2893
   25SAPC  H10X 3362   1.342   2.757   7.973 -2.6090  3.4732 -1.3739
   25SAPC  H10Y 3363   1.273   2.596   8.020  0.4689 -0.1403  0.0419
   25SAPC  C311 3364   1.263   2.750   8.172 -0.2677  0.1638  0.3967
   25SAPC  H11X 3365   1.184   2.689   8.220 -2.0072  0.9692 -1.2851
   25SAPC  H11Y 3366   1.238   2.858   8.174  1.5026  0.7178 -2.1180
   25SAPC  C312 3367   1.399   2.719   8.238 -0.1394 -0.6201 -0.0417
   25SAPC  H12X 3368   1.402   2.610   8.217  0.1236 -0.5492 -0.3853
   25SAPC  H12Y 3369   1.397   2.735   8.347  2.4482 -0.2298  0.0172
   25SAPC  C313 3370   1.522   2.780   8.165 -0.3870  0.4530 -0.3754
   25SAPC  H13X 3371   1.487   2.885   8.154 -1.3594  0.1434 -0.4126
   25SAPC  H13Y 3372   1.527   2.735   8.063  1.5898 -3.1797  1.1545
   25SAPC  C314 3373   1.655   2.767   8.241  0.1755 -0.1635 -0.1856
   25SAPC  H14X 3374   1.689   2.661   8.242 -0.6245 -0.4447  2.2771
   25SAPC  H14Y 3375   1.630   2.797   8.344 -2.0657  1.3760 -1.0942
   25SAPC  C315 3376   1.759   2.863   8.179 -0.0034  0.7813  0.0215
   25SAPC  H15X 3377   1.834   2.889   8.256 -0.4528  1.8250  0.1200
   25SAPC  H15Y 3378   1.705   2.956   8.151 -0.5748  0.8161  1.1926
   25SAPC  C316 3379   1.819   2.811   8.048 -0.4173  0.3172 -0.0983
   25SAPC  H16X 3380   1.735   2.773   7.987 -1.4529  2.2625  0.0112
   25SAPC  H16Y 3381   1.884   2.727   8.079  3.0480  2.5130 -0.7908
   25SAPC  C317 3382   1.897   2.919   7.974  0.2204 -0.4558 -0.5836
   25SAPC  H17X 3383   1.970   2.968   8.042 -1.3330  0.2994  0.5928
   25SAPC  H17Y 3384   1.818   2.995   7.955  0.3415  0.4160  2.0276
   25SAPC  C318 3385   1.964   2.864   7.847  0.1865  0.0485 -0.4787
   25SAPC  H18X 3386   2.015   2.948   7.794  0.6605  1.3146  1.8574
   25SAPC  H18Y 3387   1.894   2.808   7.781 -0.1712  0.5490 -0.5318
   25SAPC  H18Z 3388   2.044   2.794   7.877 -2.7746 -1.8846  4.0286
   26SAPC     N 3389   1.462   6.618   6.139 -0.0518 -1.2172 -0.4546
   26SAPC   C12 3390   1.522   6.724   6.240 -0.0044 -0.2985  0.2162
   26SAPC  H12A 3391   1.626   6.700   6.257 -0.0505  0.0662  1.0705
   26SAPC  H12B 3392   1.472   6.708   6.335  1.8183  1.7107  1.6279
   26SAPC   C13 3393   1.319   6.601   6.170  0.5291 -0.0843  0.0777
   26SAPC  H13A 3394   1.281   6.541   6.088  0.8481 -1.7922  1.1341
   26SAPC  H13B 3395   1.305   6.557   6.268 -0.4888 -0.4004 -0.1889
   26SAPC  H13C 3396   1.280   6.701   6.158  0.9974  0.0697 -0.1758
   26SAPC   C14 3397   1.469   6.682   5.997  0.1871 -0.3592  0.2790
   26SAPC  H14A 3398   1.415   6.613   5.934  0.1147 -0.2393  0.2099
   26SAPC  H14B 3399   1.416   6.776   5.998  2.1569  0.8053  0.6159
   26SAPC  H14C 3400   1.572   6.681   5.962 -0.0601 -1.6716 -0.4779
   26SAPC   C15 3401   1.540   6.494   6.150 -0.3375  0.5429 -0.3039
   26SAPC  H15A 3402   1.511   6.431   6.067  0.3002  0.8214 -0.7480
   26SAPC  H15B 3403   1.647   6.496   6.131 -0.4255 -1.9431 -1.5050
   26SAPC  H15C 3404   1.528   6.435   6.239  0.5051  1.5773  0.5134
   26SAPC   C11 3405   1.488   6.874   6.208 -0.2931 -0.5950 -0.3617
   26SAPC  H11A 3406   1.553   6.914   6.127 -0.3179  1.9198  0.7797
   26SAPC  H11B 3407   1.502   6.943   6.294  1.3696 -0.8041 -0.4295
   26SAPC     P 3408   1.236   6.945   6.259 -0.0683 -0.1385  0.0032
   26SAPC   O13 3409   1.252   7.094   6.260 -0.1634 -0.2822 -0.1522
   26SAPC   O14 3410   1.102   6.885   6.224  0.3062 -0.5546  0.1914
   26SAPC   O12 3411   1.351   6.884   6.172  0.5401  0.0340 -0.2137
   26SAPC   O11 3412   1.271   6.885   6.403  0.8319 -0.1403  0.4932
   26SAPC    C1 3413   1.287   6.965   6.522  0.5668  0.1326  0.5826
   26SAPC    HA 3414   1.381   7.024   6.526 -1.0462  2.8337  3.0904
   26SAPC    HB 3415   1.199   7.032   6.539 -0.3740 -0.9436  0.0675
   26SAPC    C2 3416   1.289   6.876   6.646 -0.1736  0.0287 -0.2546
   26SAPC    HS 3417   1.353   6.788   6.623  0.8826  0.8616 -0.5998
   26SAPC   O21 3418   1.151   6.845   6.675 -0.1571  0.3715  0.5950
   26SAPC   C21 3419   1.133   6.744   6.757  0.1912  0.2189  0.3290
   26SAPC   O22 3420   1.231   6.667   6.784  0.6490 -0.4419 -0.0664
   26SAPC   C22 3421   0.987   6.738   6.797  0.1395 -0.5566 -0.1674
   26SAPC   H2R 3422   0.931   6.746   6.701  4.3509  0.1285 -2.8357
   26SAPC   H2S 3423   0.968   6.651   6.863 -1.6061  0.2597  0.4829
   26SAPC    C3 3424   1.352   6.947   6.767  0.5661 -0.0710 -0.0924
   26SAPC    HX 3425   1.454   6.984   6.744  1.8550 -2.8556  0.6987
   26SAPC    HY 3426   1.358   6.878   6.854 -0.1017 -0.6808 -0.5176
   26SAPC   O31 3427   1.259   7.061   6.803  0.3002  0.1807  0.6887
   26SAPC   C31 3428   1.297   7.134   6.909  0.3095  0.7720 -0.0029
   26SAPC   O32 3429   1.404   7.136   6.966 -0.5547  0.2438  0.0111
   26SAPC   C32 3430   1.174   7.205   6.968  0.1606 -0.6986 -0.0698
   26SAPC   H2X 3431   1.089   7.134   6.969 -0.3629 -0.0777  0.6525
   26SAPC   H2Y 3432   1.138   7.283   6.897 -2.2438 -1.1236  0.6022
   26SAPC   C23 3433   0.947   6.862   6.888  0.2216  0.3881 -0.0789
   26SAPC   H3R 3434   0.839   6.886   6.881  0.3055  0.5498 -0.8693
   26SAPC   H3S 3435   0.995   6.955   6.853  0.2437  0.4783  0.1882
   26SAPC   C24 3436   0.969   6.845   7.039  0.0900  0.8740  0.1249
   26SAPC   H4R 3437   0.925   6.749   7.074 -1.0842  0.3253 -2.5749
   26SAPC   H4S 3438   0.917   6.926   7.094  0.5449  2.4095 -1.5855
   26SAPC   C25 3439   1.110   6.839   7.074 -0.3389 -0.4164  0.6645
   26SAPC   H5R 3440   1.177   6.919   7.039 -2.3798  1.4733  0.7738
   26SAPC   C26 3441   1.174   6.729   7.133 -0.4451 -0.5854 -0.3353
   26SAPC   H6R 3442   1.283   6.721   7.146 -0.4198  0.5081  0.2471
   26SAPC   C27 3443   1.112   6.594   7.160 -0.1799 -0.5068  0.0345
   26SAPC   H7R 3444   1.108   6.545   7.061  1.8140 -1.1091  0.2057
   26SAPC   H7S 3445   1.012   6.594   7.208  0.8665 -0.4618  2.4065
   26SAPC   C28 3446   1.200   6.509   7.250  0.3086 -0.3312  0.1545
   26SAPC   H8R 3447   1.256   6.428   7.201  0.2416 -0.2877  0.0032
   26SAPC   C29 3448   1.215   6.520   7.389  0.1752  0.4818 -0.3616
   26SAPC   H9R 3449   1.289   6.461   7.445  1.4249  2.5870  0.3392
   26SAPC  C210 3450   1.146   6.625   7.475  0.1639  0.0981  0.6102
   26SAPC  H10R 3451   1.078   6.571   7.544  0.2547 -1.2214 -0.2910
   26SAPC  H10S 3452   1.086   6.690   7.407 -0.4295 -0.6273  0.4331
   26SAPC  C211 3453   1.240   6.712   7.552  0.0949  0.2222 -0.4878
   26SAPC  H11R 3454   1.250   6.804   7.493 -2.8263  0.1633 -1.2000
   26SAPC  C212 3455   1.291   6.687   7.676 -0.8165  0.2276 -0.0468
   26SAPC  H12R 3456   1.334   6.773   7.730 -2.9876  1.5865 -0.3421
   26SAPC  C213 3457   1.276   6.563   7.758  0.8973 -0.5610  0.3583
   26SAPC  H13R 3458   1.382   6.548   7.791  1.3695  1.2910 -0.1988
   26SAPC  H13S 3459   1.242   6.474   7.701 -1.5618  0.3721  0.2643
   26SAPC  C214 3460   1.185   6.575   7.878  0.1701 -0.0586  0.7567
   26SAPC  H14R 3461   1.078   6.550   7.867  0.3965 -1.8361  2.1513
   26SAPC  C215 3462   1.221   6.625   7.999 -0.5561 -0.3872 -0.5245
   26SAPC  H15R 3463   1.157   6.630   8.088 -0.4831  0.5409 -0.5208
   26SAPC  C216 3464   1.357   6.682   8.041 -0.0815 -0.6817 -0.2640
   26SAPC  H16R 3465   1.340   6.782   8.084  2.4636 -0.1211 -0.3956
   26SAPC  H16S 3466   1.415   6.699   7.947 -2.6256  0.7818 -1.6707
   26SAPC  C217 3467   1.439   6.592   8.141 -0.3784 -0.7158 -0.2478
   26SAPC  H17R 3468   1.543   6.630   8.139 -0.9419  0.8543 -0.5087
   26SAPC  H17S 3469   1.436   6.483   8.116 -0.6223 -0.7855  0.0801
   26SAPC  C218 3470   1.379   6.595   8.287  0.2212 -0.0510 -0.0233
   26SAPC  H18R 3471   1.269   6.582   8.278 -0.1882  2.0024  1.2688
   26SAPC  H18S 3472   1.389   6.698   8.328  0.8264 -0.0852 -0.0747
   26SAPC  C219 3473   1.453   6.494   8.378 -0.1455  0.2627  0.6101
   26SAPC  H19R 3474   1.544   6.545   8.417  0.8253  1.6934 -3.1420
   26SAPC  H19S 3475   1.479   6.402   8.322  0.8418  1.0632 -0.2879
   26SAPC  C220 3476   1.367   6.436   8.486  0.5637  0.3342  0.1396
   26SAPC  H20R 3477   1.265   6.403   8.455 -0.3258  1.5712  1.5457
   26SAPC  H20S 3478   1.367   6.505   8.574  3.8571  0.6558  0.0044
   26SAPC  H20T 3479   1.417   6.346   8.526  1.0253  0.2823 -0.5448
   26SAPC   C33 3480   1.184   7.252   7.106  0.8991  0.4113 -0.1730
   26SAPC   H3X 3481   1.092   7.307   7.133  0.3430 -0.4109 -0.3718
   26SAPC   H3Y 3482   1.268   7.325   7.110  0.2606  1.1199  1.7468
   26SAPC   C34 3483   1.208   7.146   7.216 -0.2244  0.2839 -0.3344
   26SAPC   H4X 3484   1.291   7.085   7.176 -1.0073  1.0485 -3.3960
   26SAPC   H4Y 3485   1.117   7.083   7.231  0.6215 -0.9864 -0.3390
   26SAPC   C35 3486   1.252   7.205   7.348 -0.0427  0.1627 -0.2300
   26SAPC   H5X 3487   1.163   7.262   7.384 -1.4056 -1.8446 -0.2362
   26SAPC   H5Y 3488   1.338   7.274   7.340 -1.4890  2.7449  3.5267
   26SAPC   C36 3489   1.284   7.097   7.457  0.1422 -0.5126 -0.1501
   26SAPC   H6X 3490   1.367   7.030   7.428  1.2020  1.1202 -1.0158
   26SAPC   H6Y 3491   1.189   7.040   7.470 -1.0977  1.0640 -1.7522
   26SAPC   C37 3492   1.317   7.172   7.591  0.3708 -0.2193  0.8537
   26SAPC   H7X 3493   1.225   7.222   7.627  0.2285  0.6757 -0.6601
   26SAPC   H7Y 3494   1.397   7.250   7.585 -1.2076  1.6655  2.6961
   26SAPC   C38 3495   1.351   7.078   7.696  0.0447  0.6785  0.3071
   26SAPC   H8X 3496   1.449   7.028   7.684 -0.1510  0.7439 -2.1009
   26SAPC   H8Y 3497   1.274   6.998   7.683  0.8240  0.2795 -2.5671
   26SAPC   C39 3498   1.354   7.141   7.835  0.4414  0.0959  0.2920
   26SAPC   H9X 3499   1.253   7.179   7.863 -0.9520 -0.6553 -3.1551
   26SAPC   H9Y 3500   1.412   7.235   7.831 -1.3721  1.2897 -3.5600
   26SAPC  C310 3501   1.410   7.051   7.947  0.5198  0.9267 -0.6490
   26SAPC  H10X 3502   1.517   7.024   7.929  0.8846  0.3653  1.9567
   26SAPC  H10Y 3503   1.347   6.960   7.956  3.1931 -1.2937 -2.6093
   26SAPC  C311 3504   1.415   7.126   8.083 -0.5638 -0.0154 -0.0018
   26SAPC  H11X 3505   1.314   7.141   8.127 -1.2486 -2.4060 -0.6072
   26SAPC  H11Y 3506   1.453   7.230   8.076 -0.3602 -0.1737 -1.6297
   26SAPC  C312 3507   1.497   7.055   8.203  0.2128 -0.2412 -0.0065
   26SAPC  H12X 3508   1.457   6.953   8.221 -3.8621  1.2683  0.6435
   26SAPC  H12Y 3509   1.477   7.117   8.293  2.1085 -1.3386  1.2239
   26SAPC  C313 3510   1.650   7.044   8.183 -0.2965 -0.6455  0.2570
   26SAPC  H13X 3511   1.693   7.147   8.178  0.7861 -1.1055 -0.1014
   26SAPC  H13Y 3512   1.662   7.000   8.082 -1.1872  0.1284 -0.1982
   26SAPC  C314 3513   1.727   6.955   8.293  0.1733  0.5716 -0.3125
   26SAPC  H14X 3514   1.836   6.947   8.276  0.1026 -0.3240 -0.4143
   26SAPC  H14Y 3515   1.666   6.863   8.275 -0.2060  0.9552 -1.0306
   26SAPC  C315 3516   1.701   6.985   8.445 -0.1424 -0.3462 -0.1773
   26SAPC  H15X 3517   1.755   6.901   8.493  0.3767 -0.5372 -1.0873
   26SAPC  H15Y 3518   1.591   6.994   8.460 -0.1585  0.5024 -0.6981
   26SAPC  C316 3519   1.755   7.127   8.484  0.7198 -0.8031 -0.8161
   26SAPC  H16X 3520   1.711   7.208   8.422 -0.6278  0.0501  1.1199
   26SAPC  H16Y 3521   1.866   7.126   8.481  0.7126 -0.5781 -1.1223
   26SAPC  C317 3522   1.705   7.162   8.628  0.1274 -0.3302  0.1974
   26SAPC  H17X 3523   1.752   7.256   8.665  0.1055 -0.6118  0.9503
   26SAPC  H17Y 3524   1.733   7.077   8.693 -2.9322 -1.3261  0.3795
   26SAPC  C318 3525   1.549   7.188   8.631 -0.6047  0.2872  0.5125
   26SAPC  H18X 3526   1.532   7.258   8.547  1.9802 -0.8907 -1.1107
   26SAPC  H18Y 3527   1.503   7.231   8.722  0.7328 -1.1252  1.9130
   26SAPC  H18Z 3528   1.495   7.095   8.601 -2.0742  1.1690  0.3514
   27SAPC     N 3529   0.261   2.758   6.532 -0.0062 -0.0628 -0.0839
   27SAPC   C12 3530   0.315   2.879   6.606  0.5034 -0.5382  0.2653
   27SAPC  H12A 3531   0.407   2.857   6.659  0.5422 -1.6094 -0.2218
   27SAPC  H12B 3532   0.243   2.905   6.681  0.9371  0.1228  0.4593
   27SAPC   C13 3533   0.279   2.639   6.625 -0.4815 -0.2962 -0.4238
   27SAPC  H13A 3534   0.226   2.554   6.583 -0.4034 -0.3303 -0.4519
   27SAPC  H13B 3535   0.380   2.601   6.624 -0.3927 -0.0414 -1.7163
   27SAPC  H13C 3536   0.235   2.653   6.723  2.8206  0.2639  1.0880
   27SAPC   C14 3537   0.119   2.779   6.489  0.2989 -0.4316  0.5940
   27SAPC  H14A 3538   0.049   2.786   6.571  0.0929 -0.8394  0.4535
   27SAPC  H14B 3539   0.113   2.878   6.445  2.2903 -0.1295  0.9010
   27SAPC  H14C 3540   0.077   2.719   6.409 -2.6176  2.2591 -0.1003
   27SAPC   C15 3541   0.337   2.725   6.415 -0.0040  1.0391  0.3524
   27SAPC  H15A 3542   0.296   2.649   6.351  1.3492 -0.8677  1.6450
   27SAPC  H15B 3543   0.355   2.806   6.345  0.5628 -1.3104 -2.4128
   27SAPC  H15C 3544   0.437   2.692   6.440 -0.1116 -1.4022 -1.9872
   27SAPC   C11 3545   0.345   3.005   6.525 -0.0933 -0.3209  0.6209
   27SAPC  H11A 3546   0.422   2.991   6.447  0.0817  2.7722  0.1152
   27SAPC  H11B 3547   0.394   3.076   6.594  0.0309  1.2140 -0.9880
   27SAPC     P 3548   0.127   3.148   6.557 -0.1476 -0.3552 -0.0454
   27SAPC   O13 3549   0.157   3.293   6.559 -0.2753  0.3024  0.1901
   27SAPC   O14 3550   0.001   3.103   6.495  0.4300 -0.6183 -0.0162
   27SAPC   O12 3551   0.236   3.075   6.474 -0.0534  0.1537 -0.5231
   27SAPC   O11 3552   0.141   3.088   6.704 -0.4073  0.2132  0.3346
   27SAPC    C1 3553   0.224   3.154   6.799 -0.4876 -0.4473  0.5070
   27SAPC    HA 3554   0.319   3.194   6.758  0.1397 -1.1099  1.2760
   27SAPC    HB 3555   0.173   3.237   6.851  1.6331 -0.7930  3.3831
   27SAPC    C2 3556   0.280   3.055   6.903  0.0777  0.5275  0.4580
   27SAPC    HS 3557   0.340   2.983   6.842 -1.2727 -0.7806  0.6411
   27SAPC   O21 3558   0.175   2.999   6.975 -0.0107  0.2097 -0.1621
   27SAPC   C21 3559   0.144   2.875   6.961 -0.1888  0.6734  0.4207
   27SAPC   O22 3560   0.198   2.787   6.898 -0.0940  0.3791 -0.1293
   27SAPC   C22 3561   0.020   2.847   7.053  0.0535 -0.5845  0.0853
   27SAPC   H2R 3562   0.030   2.916   7.140 -0.7656 -0.8533  0.4004
   27SAPC   H2S 3563  -0.072   2.876   6.999  0.9914  3.0245  0.1782
   27SAPC    C3 3564   0.374   3.130   6.994 -0.4705 -0.4555 -0.1635
   27SAPC    HX 3565   0.315   3.205   7.051  1.4029 -0.1121  1.4489
   27SAPC    HY 3566   0.450   3.193   6.941 -1.6486  0.1436 -1.2020
   27SAPC   O31 3567   0.430   3.025   7.071 -0.2329  0.2499 -1.2057
   27SAPC   C31 3568   0.510   3.070   7.167  0.6594  0.5476  0.1137
   27SAPC   O32 3569   0.548   3.184   7.172  0.1259  0.1149 -0.1693
   27SAPC   C32 3570   0.562   2.958   7.248 -0.5974  0.5517  0.1529
   27SAPC   H2X 3571   0.602   2.878   7.181 -1.5562  1.7462 -1.9448
   27SAPC   H2Y 3572   0.475   2.909   7.297 -0.5933 -1.1073 -1.3707
   27SAPC   C23 3573  -0.001   2.701   7.109  0.5949  0.1377 -0.8819
   27SAPC   H3R 3574   0.041   2.628   7.037  2.3474  0.1545  0.0496
   27SAPC   H3S 3575  -0.109   2.683   7.131  1.2611 -1.7047  1.2891
   27SAPC   C24 3576   0.062   2.693   7.251  0.2908  0.7698  0.0484
   27SAPC   H4R 3577   0.016   2.605   7.302  0.3561  1.0414  0.5811
   27SAPC   H4S 3578   0.027   2.782   7.307 -3.2866  0.1289 -0.9020
   27SAPC   C25 3579   0.207   2.691   7.268 -0.0656 -0.1694 -0.4074
   27SAPC   H5R 3580   0.270   2.735   7.189 -0.8659  2.3544  0.2430
   27SAPC   C26 3581   0.262   2.626   7.374 -0.1930  0.0294  0.3141
   27SAPC   H6R 3582   0.371   2.630   7.384 -0.1768  2.7404 -0.2480
   27SAPC   C27 3583   0.189   2.565   7.485  0.6441 -0.3948 -0.1728
   27SAPC   H7R 3584   0.150   2.470   7.443  2.7122 -1.0986 -0.6069
   27SAPC   H7S 3585   0.104   2.631   7.514  1.4219  0.0385  1.2539
   27SAPC   C28 3586   0.266   2.532   7.619 -0.1217 -0.7490 -0.0118
   27SAPC   H8R 3587   0.344   2.454   7.620 -0.9108 -1.6224  3.0305
   27SAPC   C29 3588   0.262   2.599   7.734  0.0204 -0.0739 -0.3943
   27SAPC   H9R 3589   0.338   2.576   7.810 -2.5897 -3.3803  1.5025
   27SAPC  C210 3590   0.193   2.729   7.771  0.9386  0.5590  0.4185
   27SAPC  H10R 3591   0.119   2.752   7.691  1.1830 -0.1198 -0.0123
   27SAPC  H10S 3592   0.269   2.811   7.769 -0.3856  1.8479  0.9130
   27SAPC  C211 3593   0.110   2.744   7.897  0.5488 -0.1097  0.1298
   27SAPC  H11R 3594   0.000   2.757   7.895  0.8335  3.7873  1.3013
   27SAPC  C212 3595   0.166   2.767   8.016 -0.4505 -0.7886 -0.7822
   27SAPC  H12R 3596   0.096   2.783   8.100 -0.6091 -0.6206 -0.9465
   27SAPC  C213 3597   0.316   2.762   8.051  0.0637  0.3376 -0.0653
   27SAPC  H13R 3598   0.370   2.708   7.971  1.5780 -0.0689  1.1804
   27SAPC  H13S 3599   0.330   2.697   8.140 -1.8959  0.4533  0.3788
   27SAPC  C214 3600   0.362   2.902   8.058 -0.2359 -0.5884 -1.0613
   27SAPC  H14R 3601   0.348   2.964   7.969  0.6983 -1.9782 -2.2241
   27SAPC  C215 3602   0.433   2.954   8.163 -0.1059 -0.4896  0.4807
   27SAPC  H15R 3603   0.478   3.054   8.152  1.4546 -1.2310 -0.1586
   27SAPC  C216 3604   0.481   2.886   8.293  0.5867 -0.3570 -0.2587
   27SAPC  H16R 3605   0.453   2.779   8.290  1.7594 -0.6882  0.0315
   27SAPC  H16S 3606   0.427   2.926   8.381  4.2629 -0.0980  2.0953
   27SAPC  C217 3607   0.632   2.868   8.314 -0.5663 -0.2304  0.5116
   27SAPC  H17R 3608   0.679   2.966   8.340 -1.4780  0.0293  1.2637
   27SAPC  H17S 3609   0.674   2.845   8.214 -0.5529  2.9932 -0.3503
   27SAPC  C218 3610   0.668   2.758   8.420  0.2102  0.2138 -0.4413
   27SAPC  H18R 3611   0.626   2.657   8.400 -0.0037 -0.0345  1.1622
   27SAPC  H18S 3612   0.619   2.792   8.514  0.7198  0.8855 -0.4194
   27SAPC  C219 3613   0.819   2.732   8.448  0.0576  0.2911 -0.4323
   27SAPC  H19R 3614   0.819   2.644   8.516  1.0865  0.0428 -0.7494
   27SAPC  H19S 3615   0.856   2.826   8.496  1.6506 -0.3857 -0.2828
   27SAPC  C220 3616   0.906   2.719   8.319 -0.4467 -0.3319 -0.2693
   27SAPC  H20R 3617   1.010   2.694   8.350 -1.2042 -2.0439  1.0823
   27SAPC  H20S 3618   0.932   2.817   8.276 -1.3423 -1.2017 -3.0071
   27SAPC  H20T 3619   0.875   2.640   8.247  1.3543 -1.6710  0.3579
   27SAPC   C33 3620   0.671   2.991   7.358  0.4350 -0.1996 -0.0683
   27SAPC   H3X 3621   0.739   3.069   7.319  1.6282 -0.7591  0.8513
   27SAPC   H3Y 3622   0.741   2.905   7.371  1.2207  0.3848 -0.3601
   27SAPC   C34 3623   0.607   3.046   7.483  0.9433 -0.4060 -0.4621
   27SAPC   H4X 3624   0.512   2.989   7.497  1.8601 -1.7545  0.5155
   27SAPC   H4Y 3625   0.578   3.153   7.477 -2.3536 -1.2559 -1.9180
   27SAPC   C35 3626   0.694   3.026   7.602  0.7213 -0.5265  0.1162
   27SAPC   H5X 3627   0.801   3.043   7.575  1.1887 -1.4811  1.2474
   27SAPC   H5Y 3628   0.699   2.917   7.625  0.2998 -1.2423 -2.7734
   27SAPC   C36 3629   0.672   3.126   7.714  0.3130  0.4958 -0.5074
   27SAPC   H6X 3630   0.563   3.131   7.738 -0.5177 -2.2913 -3.0488
   27SAPC   H6Y 3631   0.704   3.225   7.673 -0.3406  0.5037 -1.0234
   27SAPC   C37 3632   0.747   3.094   7.838  0.0654 -0.6466 -0.7034
   27SAPC   H7X 3633   0.857   3.094   7.821  0.9197  0.3400  3.6357
   27SAPC   H7Y 3634   0.716   2.997   7.883 -2.0179 -0.0882 -0.8015
   27SAPC   C38 3635   0.727   3.198   7.947  0.0528  0.1011 -0.0148
   27SAPC   H8X 3636   0.636   3.199   8.010  0.2600  0.8262  0.2854
   27SAPC   H8Y 3637   0.736   3.301   7.906 -2.5701 -0.2588 -1.7436
   27SAPC   C39 3638   0.853   3.201   8.045  1.5742  0.0793 -0.4735
   27SAPC   H9X 3639   0.831   3.283   8.117  0.8633 -2.6172  2.5801
   27SAPC   H9Y 3640   0.948   3.231   7.996  0.9558  0.1644 -1.6595
   27SAPC  C310 3641   0.866   3.078   8.143 -0.0399  0.4049 -0.0873
   27SAPC  H10X 3642   0.912   2.994   8.087  1.9136  1.2192  0.1901
   27SAPC  H10Y 3643   0.761   3.052   8.168  0.6792 -3.2091 -0.2797
   27SAPC  C311 3644   0.928   3.120   8.271  0.1681 -0.5099  0.0658
   27SAPC  H11X 3645   0.891   3.030   8.325 -0.8787 -2.0679 -3.0163
   27SAPC  H11Y 3646   0.889   3.215   8.312  0.6045 -0.0522 -0.5619
   27SAPC  C312 3647   1.077   3.106   8.271  0.3919 -0.0812  0.2486
   27SAPC  H12X 3648   1.131   3.144   8.182 -0.8537  2.1154  0.3502
   27SAPC  H12Y 3649   1.097   2.997   8.280  0.3575 -0.0695  0.4620
   27SAPC  C313 3650   1.141   3.169   8.398  0.2341  0.2229  0.2785
   27SAPC  H13X 3651   1.171   3.272   8.369  3.9451 -0.3322  1.6544
   27SAPC  H13Y 3652   1.237   3.123   8.427  0.2628  0.3813  0.4377
   27SAPC  C314 3653   1.054   3.176   8.527 -0.0964  0.1024  0.1795
   27SAPC  H14X 3654   1.016   3.073   8.543  2.5694 -1.0442 -0.3541
   27SAPC  H14Y 3655   0.969   3.247   8.517  0.3030  0.5253 -0.3113
   27SAPC  C315 3656   1.129   3.221   8.653 -0.0716 -0.3948  0.0801
   27SAPC  H15X 3657   1.157   3.325   8.627  1.4757 -1.1824 -1.6184
   27SAPC  H15Y 3658   1.228   3.172   8.660  0.5955  0.1774 -3.3421
   27SAPC  C316 3659   1.067   3.215   8.790  0.0263  0.4473 -0.0637
   27SAPC  H16X 3660   1.059   3.107   8.818  0.2739 -0.3134 -2.6262
   27SAPC  H16Y 3661   0.966   3.258   8.780  0.1855  1.4655  2.0452
   27SAPC  C317 3662   1.137   3.307   8.892  0.6765 -0.1433  0.5288
   27SAPC  H17X 3663   1.056   3.333   8.964  0.2521  1.0893 -0.3538
   27SAPC  H17Y 3664   1.158   3.408   8.850  0.5705  0.5015  1.9814
   27SAPC  C318 3665   1.255   3.252   8.961 -0.7954 -0.3137 -0.4343
   27SAPC  H18X 3666   1.345   3.248   8.896 -1.0021 -0.6407 -0.7056
   27SAPC  H18Y 3667   1.247   3.155   9.013  0.8596  1.1644  2.8690
   27SAPC  H18Z 3668   1.270   3.320   9.048  0.1460 -1.7679  0.5830
   28SAPC     N 3669   6.326   1.501   6.200  0.3070 -0.4666 -0.3894
   28SAPC   C12 3670   6.351   1.554   6.330 -0.6603 -0.1680  0.3051
   28SAPC  H12A 3671   6.259   1.582   6.378  0.2985  0.0108  2.1530
   28SAPC  H12B 3672   6.408   1.645   6.318 -0.7049 -0.3749 -1.8890
   28SAPC   C13 3673   6.433   1.527   6.099  0.9561 -0.1165  0.8097
   28SAPC  H13A 3674   6.407   1.497   5.999 -1.8656  2.6625  0.5472
   28SAPC  H13B 3675   6.463   1.631   6.095 -0.4753  0.2975 -2.3433
   28SAPC  H13C 3676   6.509   1.454   6.123 -1.5652 -3.0630  0.4026
   28SAPC   C14 3677   6.305   1.354   6.201  0.3693  0.2628  0.3738
   28SAPC  H14A 3678   6.283   1.323   6.100  0.9863 -1.0053  0.6139
   28SAPC  H14B 3679   6.392   1.292   6.216  1.3368  1.5697  0.2712
   28SAPC  H14C 3680   6.229   1.330   6.274 -0.2150  1.6650  0.2551
   28SAPC   C15 3681   6.191   1.555   6.149  0.1062 -0.1519  0.2686
   28SAPC  H15A 3682   6.117   1.540   6.226 -0.0184  0.3438  0.2487
   28SAPC  H15B 3683   6.193   1.663   6.145 -1.8415  0.0024  1.7435
   28SAPC  H15C 3684   6.157   1.504   6.060 -1.6351  0.1083  0.7569
   28SAPC   C11 3685   6.436   1.469   6.429  0.3420  0.5240  0.1303
   28SAPC  H11A 3686   6.385   1.378   6.467 -0.0315  1.2922  1.5243
   28SAPC  H11B 3687   6.452   1.526   6.522  0.2407  1.3460 -0.3455
   28SAPC     P 3688   6.637   1.308   6.355  0.3902 -0.2800 -0.1680
   28SAPC   O13 3689   6.533   1.206   6.345  0.0548  0.1796  0.5343
   28SAPC   O14 3690   6.735   1.320   6.244 -0.4624 -0.4136  0.5572
   28SAPC   O12 3691   6.569   1.444   6.384  0.0426 -0.2324  0.0684
   28SAPC   O11 3692   6.714   1.276   6.492  0.1379  0.3210 -0.1051
   28SAPC    C1 3693   6.763   1.382   6.583 -0.3525 -0.4375 -0.2261
   28SAPC    HA 3694   6.687   1.462   6.592 -0.6966 -0.2573 -3.4073
   28SAPC    HB 3695   6.782   1.327   6.678 -1.7052  1.6246  1.3203
   28SAPC    C2 3696   6.889   1.443   6.524  0.1914  0.1729  0.2783
   28SAPC    HS 3697   6.871   1.495   6.428  1.2901  0.7588  0.3835
   28SAPC   O21 3698   6.982   1.334   6.514  0.6165  0.2085  0.4271
   28SAPC   C21 3699   7.081   1.352   6.426 -0.6557  0.0349  0.0418
   28SAPC   O22 3700   7.095   1.457   6.364  0.4221  0.2988  0.6238
   28SAPC   C22 3701   7.174   1.238   6.426  0.0158 -0.4509 -0.3657
   28SAPC   H2R 3702   7.156   1.182   6.332  1.2969 -2.7459  0.6717
   28SAPC   H2S 3703   7.275   1.285   6.420  0.8741 -2.1392  0.0964
   28SAPC    C3 3704   6.952   1.556   6.616  0.1821 -1.6278 -0.0344
   28SAPC    HX 3705   7.054   1.594   6.591  0.1899 -1.4287  0.2985
   28SAPC    HY 3706   6.962   1.520   6.720 -1.0187  1.9168  1.4622
   28SAPC   O31 3707   6.849   1.661   6.635  0.0325 -0.1402 -0.6021
   28SAPC   C31 3708   6.869   1.778   6.567  1.0880 -0.5217 -0.6420
   28SAPC   O32 3709   6.967   1.799   6.501  0.6108  0.9249 -0.0962
   28SAPC   C32 3710   6.752   1.876   6.590  0.3137 -0.7128 -0.3289
   28SAPC   H2X 3711   6.681   1.837   6.514 -1.3575  2.3283 -0.4911
   28SAPC   H2Y 3712   6.784   1.979   6.564 -2.0951  0.4199  0.8411
   28SAPC   C23 3713   7.179   1.148   6.554  0.3320  0.0373 -0.0573
   28SAPC   H3R 3714   7.246   1.065   6.524 -0.9379 -1.8839  2.0825
   28SAPC   H3S 3715   7.080   1.101   6.575 -0.0429 -0.9826 -3.4927
   28SAPC   C24 3716   7.232   1.228   6.677 -0.1560  0.6538 -0.3820
   28SAPC   H4R 3717   7.335   1.264   6.655  0.8331 -0.0507  2.5842
   28SAPC   H4S 3718   7.172   1.322   6.679 -2.1667 -0.5322 -1.7948
   28SAPC   C25 3719   7.228   1.146   6.800  0.0832 -0.2936  0.5198
   28SAPC   H5R 3720   7.312   1.075   6.800  0.5616  0.2592 -0.2364
   28SAPC   C26 3721   7.132   1.142   6.890  0.2539  0.4262  0.2066
   28SAPC   H6R 3722   7.142   1.071   6.974  0.7930  1.5420  1.1097
   28SAPC   C27 3723   7.009   1.233   6.905 -0.0235 -0.4533 -0.0159
   28SAPC   H7R 3724   6.996   1.288   6.809 -0.6290 -2.0405 -0.8883
   28SAPC   H7S 3725   7.019   1.299   6.994  1.4894 -0.5957 -0.0584
   28SAPC   C28 3726   6.880   1.156   6.926  0.0270  0.1796 -0.1536
   28SAPC   H8R 3727   6.818   1.142   6.835 -1.2457 -2.7591  1.0264
   28SAPC   C29 3728   6.829   1.103   7.041 -0.2839 -0.1139  0.0657
   28SAPC   H9R 3729   6.731   1.058   7.018  0.7876 -2.4835 -0.2104
   28SAPC  C210 3730   6.888   1.107   7.182 -0.1653 -0.1267  0.2051
   28SAPC  H10R 3731   6.813   1.135   7.260 -1.9794 -0.6993 -1.2598
   28SAPC  H10S 3732   6.957   1.194   7.179  0.0702 -0.1560  2.4983
   28SAPC  C211 3733   6.974   0.993   7.214  0.5081 -0.2938 -0.3522
   28SAPC  H11R 3734   7.014   0.939   7.127 -0.6876  0.8517 -1.6585
   28SAPC  C212 3735   6.996   0.951   7.341 -0.1484 -0.1696  0.2208
   28SAPC  H12R 3736   7.057   0.860   7.357  0.3847 -0.0173 -0.8226
   28SAPC  C213 3737   6.958   1.013   7.475 -0.8985 -0.3851  0.0630
   28SAPC  H13R 3738   6.975   0.934   7.551 -2.7453  0.0887  1.0306
   28SAPC  H13S 3739   6.848   1.034   7.478 -0.8530  0.0853 -1.0107
   28SAPC  C214 3740   7.034   1.141   7.505 -0.1104  0.4391  0.4258
   28SAPC  H14R 3741   7.102   1.179   7.428 -0.2720 -2.0457 -1.0673
   28SAPC  C215 3742   7.031   1.195   7.631  0.5032  0.0277 -0.0013
   28SAPC  H15R 3743   7.089   1.280   7.670 -2.4876  0.7901  3.3311
   28SAPC  C216 3744   6.949   1.137   7.742  0.7502 -0.1133 -0.4166
   28SAPC  H16R 3745   6.966   1.027   7.746  1.2829 -0.0149  0.0555
   28SAPC  H16S 3746   6.843   1.141   7.708  0.4062 -0.5235  0.5496
   28SAPC  C217 3747   6.977   1.190   7.884  0.1345 -0.1927  0.1916
   28SAPC  H17R 3748   6.951   1.298   7.884 -1.8494 -0.5869 -1.9901
   28SAPC  H17S 3749   7.086   1.182   7.903  0.0353 -1.3164  0.3869
   28SAPC  C218 3750   6.898   1.124   7.995  0.6665  0.0223  0.4062
   28SAPC  H18R 3751   6.908   1.014   7.982  0.7706  0.0633  0.1253
   28SAPC  H18S 3752   6.792   1.160   7.995  1.3276  2.1549  1.8470
   28SAPC  C219 3753   6.947   1.164   8.136 -0.1363 -0.4006  0.1338
   28SAPC  H19R 3754   7.049   1.120   8.148 -0.5093 -1.2284  0.3271
   28SAPC  H19S 3755   6.886   1.108   8.209 -1.6529  0.4108 -0.4702
   28SAPC  C220 3756   6.963   1.317   8.164  0.2005  0.6780 -0.0980
   28SAPC  H20R 3757   7.036   1.361   8.093 -0.1233  1.0704 -0.1984
   28SAPC  H20S 3758   7.003   1.332   8.267 -0.5854  1.1181  0.1603
   28SAPC  H20T 3759   6.868   1.373   8.147 -0.9367 -1.0766  0.2620
   28SAPC   C33 3760   6.677   1.868   6.731 -0.4686 -0.1107 -0.5351
   28SAPC   H3X 3761   6.646   1.763   6.745  1.9645 -0.7031  0.7416
   28SAPC   H3Y 3762   6.590   1.937   6.726  0.5417  1.3261  0.9158
   28SAPC   C34 3763   6.766   1.920   6.846  0.2790 -0.2270  0.2181
   28SAPC   H4X 3764   6.812   2.019   6.827 -1.2298  0.0856 -2.2334
   28SAPC   H4Y 3765   6.848   1.846   6.856 -0.5482 -1.6344 -2.5481
   28SAPC   C35 3766   6.700   1.921   6.981 -0.0937  0.9354 -0.6638
   28SAPC   H5X 3767   6.603   1.867   6.974  1.8921 -3.0787 -0.2886
   28SAPC   H5Y 3768   6.687   2.025   7.016  0.8063  1.5355 -2.0502
   28SAPC   C36 3769   6.793   1.850   7.080  0.2800 -0.2445 -0.1421
   28SAPC   H6X 3770   6.894   1.889   7.055  1.0375 -2.3966 -0.6729
   28SAPC   H6Y 3771   6.814   1.744   7.057 -0.3109  0.0499 -2.2327
   28SAPC   C37 3772   6.742   1.871   7.220  0.9679  0.0483 -1.0231
   28SAPC   H7X 3773   6.758   1.974   7.256 -0.7251 -0.1802  0.5392
   28SAPC   H7Y 3774   6.804   1.811   7.291  1.2774  0.9421 -0.5323
   28SAPC   C38 3775   6.593   1.836   7.254 -0.2908 -0.6708  0.3304
   28SAPC   H8X 3776   6.554   1.752   7.193 -0.8240 -0.7474  0.7704
   28SAPC   H8Y 3777   6.528   1.919   7.221 -0.5434 -0.8996  0.2526
   28SAPC   C39 3778   6.593   1.793   7.398 -0.0159  0.4234  0.2685
   28SAPC   H9X 3779   6.639   1.693   7.417 -1.6767 -0.3630  0.3542
   28SAPC   H9Y 3780   6.492   1.781   7.442  0.3132  4.4983  2.6608
   28SAPC  C310 3781   6.647   1.898   7.493 -0.0753  0.4216  0.0010
   28SAPC  H10X 3782   6.619   1.998   7.455 -0.7958 -0.0852 -0.8375
   28SAPC  H10Y 3783   6.757   1.883   7.500 -0.2711 -1.1805  0.1192
   28SAPC  C311 3784   6.603   1.877   7.632  0.2469 -0.6766 -0.3855
   28SAPC  H11X 3785   6.617   1.772   7.665  1.5612 -0.5387 -0.4446
   28SAPC  H11Y 3786   6.493   1.885   7.646  0.5252  0.4698  1.6802
   28SAPC  C312 3787   6.684   1.968   7.729  0.0630  0.5553 -0.0795
   28SAPC  H12X 3788   6.618   2.049   7.767  1.8535  1.2251  1.7699
   28SAPC  H12Y 3789   6.757   2.018   7.662 -0.6947  0.5446 -0.9431
   28SAPC  C313 3790   6.758   1.899   7.850  0.0117 -0.4430  0.1568
   28SAPC  H13X 3791   6.826   1.974   7.895  1.1071 -1.9416  1.0947
   28SAPC  H13Y 3792   6.814   1.810   7.814 -0.0752 -0.3792 -0.1374
   28SAPC  C314 3793   6.661   1.877   7.964  0.3697 -0.2322  0.1040
   28SAPC  H14X 3794   6.577   1.814   7.928 -0.4901  1.4042 -0.9026
   28SAPC  H14Y 3795   6.625   1.979   7.992  3.5089  1.2327 -0.7854
   28SAPC  C315 3796   6.716   1.822   8.102 -0.0254 -0.4421  0.3951
   28SAPC  H15X 3797   6.804   1.889   8.115  0.0621 -0.7527  1.4578
   28SAPC  H15Y 3798   6.743   1.717   8.078  0.1443 -0.7218  1.7441
   28SAPC  C316 3799   6.620   1.834   8.226  0.3320  0.3480 -0.0745
   28SAPC  H16X 3800   6.531   1.774   8.198 -0.7686  1.8084  0.1916
   28SAPC  H16Y 3801   6.578   1.936   8.239  0.2232  0.1185  1.6218
   28SAPC  C317 3802   6.674   1.785   8.362 -0.1798 -0.1182  0.1003
   28SAPC  H17X 3803   6.592   1.790   8.436  0.5166  0.8638  0.8460
   28SAPC  H17Y 3804   6.756   1.847   8.405 -0.5543  0.0802  0.5379
   28SAPC  C318 3805   6.732   1.642   8.377  0.0250  0.1156 -0.0098
   28SAPC  H18X 3806   6.658   1.570   8.339  0.0691  0.7064 -1.2566
   28SAPC  H18Y 3807   6.752   1.615   8.483 -1.9447  0.4210  0.4692
   28SAPC  H18Z 3808   6.825   1.624   8.318 -0.2322  0.1432 -0.4242
   29SAPC     N 3809   6.514   3.904   6.217  0.0885 -0.2342 -1.0366
   29SAPC   C12 3810   6.582   3.774   6.269  0.0241 -0.1346  0.2878
   29SAPC  H12A 3811   6.682   3.802   6.298  0.6099 -2.1009  0.3069
   29SAPC  H12B 3812   6.594   3.701   6.190 -0.6555  0.2487 -0.1770
   29SAPC   C13 3813   6.500   3.988   6.333 -0.5696  0.3758 -0.0526
   29SAPC  H13A 3814   6.422   3.957   6.401  0.0448 -0.8084  0.1397
   29SAPC  H13B 3815   6.590   3.993   6.393 -1.5491 -0.7716  1.5853
   29SAPC  H13C 3816   6.466   4.089   6.316 -0.0107  0.2160 -2.4999
   29SAPC   C14 3817   6.591   3.963   6.108  0.1664 -0.3672 -0.7760
   29SAPC  H14A 3818   6.690   3.991   6.143 -0.1005 -0.9570  0.5165
   29SAPC  H14B 3819   6.617   3.889   6.034  4.8761  1.2982 -1.1469
   29SAPC  H14C 3820   6.538   4.051   6.074 -2.0959 -1.9350 -1.5135
   29SAPC   C15 3821   6.375   3.871   6.162 -0.1551  0.5144 -0.2010
   29SAPC  H15A 3822   6.318   3.960   6.143  0.5183  1.4778  1.9374
   29SAPC  H15B 3823   6.391   3.803   6.079  1.7030  0.5039  0.1192
   29SAPC  H15C 3824   6.316   3.820   6.236 -1.3378  0.7591 -0.9479
   29SAPC   C11 3825   6.524   3.684   6.386  0.4853  0.4333 -0.1172
   29SAPC  H11A 3826   6.510   3.757   6.469 -1.1909  0.8534 -0.7501
   29SAPC  H11B 3827   6.602   3.618   6.430  1.5949  0.8315 -1.4233
   29SAPC     P 3828   6.400   3.476   6.292 -0.3244 -0.3694  0.0608
   29SAPC   O13 3829   6.279   3.438   6.217  0.5135  0.1518  0.0112
   29SAPC   O14 3830   6.524   3.466   6.211  0.5112  0.3720 -0.1048
   29SAPC   O12 3831   6.400   3.624   6.348 -0.1928 -0.5201  0.3628
   29SAPC   O11 3832   6.420   3.384   6.425  0.0108 -0.6553  0.2179
   29SAPC    C1 3833   6.310   3.384   6.523 -0.8878 -0.2254 -0.3884
   29SAPC    HA 3834   6.213   3.427   6.491 -1.3947 -0.2374  1.0269
   29SAPC    HB 3835   6.278   3.280   6.548  0.7077 -0.2399  1.9263
   29SAPC    C2 3836   6.358   3.467   6.651 -0.1987  0.2873 -0.5803
   29SAPC    HS 3837   6.411   3.559   6.617 -0.5676  1.1158  1.0242
   29SAPC   O21 3838   6.460   3.392   6.721  0.1706 -0.0042 -0.7527
   29SAPC   C21 3839   6.553   3.459   6.797  0.6917  0.4905 -0.0284
   29SAPC   O22 3840   6.540   3.573   6.841 -0.2823  0.0910  0.4523
   29SAPC   C22 3841   6.673   3.362   6.810 -0.3352  0.4360 -0.3460
   29SAPC   H2R 3842   6.734   3.369   6.717  0.2042  0.7748  0.0312
   29SAPC   H2S 3843   6.746   3.406   6.880 -0.2135  1.1766 -0.9233
   29SAPC    C3 3844   6.243   3.496   6.742 -0.2179  0.5273  0.0615
   29SAPC    HX 3845   6.271   3.571   6.820  0.2653 -0.3371  0.7422
   29SAPC    HY 3846   6.225   3.419   6.820 -0.0925 -0.3604 -0.7638
   29SAPC   O31 3847   6.121   3.525   6.677  0.1095  0.1743  0.4811
   29SAPC   C31 3848   6.098   3.655   6.650 -0.4539  0.2373 -0.5642
   29SAPC   O32 3849   6.177   3.743   6.661 -0.2776 -0.2488 -0.0642
   29SAPC   C32 3850   5.953   3.666   6.606 -0.3877 -0.1808 -0.2122
   29SAPC   H2X 3851   5.892   3.584   6.650 -0.3785 -1.0579 -1.7602
   29SAPC   H2Y 3852   5.968   3.644   6.499 -0.2039 -1.5901  0.0855
   29SAPC   C23 3853   6.638   3.221   6.860 -0.6159  0.2496 -0.0883
   29SAPC   H3R 3854   6.732   3.163   6.848  0.2012  0.7098  3.0428
   29SAPC   H3S 3855   6.566   3.184   6.784  0.4913  2.4732 -2.3281
   29SAPC   C24 3856   6.574   3.212   7.007 -0.3046  0.1273  0.5481
   29SAPC   H4R 3857   6.594   3.298   7.075  0.4759  2.3946 -2.3546
   29SAPC   H4S 3858   6.622   3.122   7.050  0.4293  0.5402  0.6180
   29SAPC   C25 3859   6.428   3.181   7.001  0.4422 -0.1248 -0.3266
   29SAPC   H5R 3860   6.411   3.079   6.963  3.1425  0.0834 -2.4280
   29SAPC   C26 3861   6.326   3.254   7.050  0.5851 -0.1348  0.0107
   29SAPC   H6R 3862   6.223   3.219   7.062  0.9147 -0.6365  1.7521
   29SAPC   C27 3863   6.351   3.386   7.118  0.6565 -0.6402 -0.2404
   29SAPC   H7R 3864   6.389   3.465   7.049  0.9992  1.9168  2.6627
   29SAPC   H7S 3865   6.433   3.367   7.190 -0.8934 -2.2717  1.1774
   29SAPC   C28 3866   6.230   3.444   7.187  0.4957  0.0491  0.1960
   29SAPC   H8R 3867   6.160   3.486   7.113  1.7840 -0.7615 -1.5559
   29SAPC   C29 3868   6.209   3.460   7.318 -0.8259  0.1678  0.1416
   29SAPC   H9R 3869   6.105   3.490   7.340 -1.5673 -0.5596 -2.0909
   29SAPC  C210 3870   6.299   3.404   7.428 -0.3041 -0.5485  0.0113
   29SAPC  H10R 3871   6.286   3.459   7.524 -2.4834 -3.4108  1.5272
   29SAPC  H10S 3872   6.404   3.428   7.401 -0.4601  0.7615  0.4987
   29SAPC  C211 3873   6.279   3.257   7.461 -0.2887 -0.1242  0.1265
   29SAPC  H11R 3874   6.287   3.193   7.372  1.7840  1.0903 -0.6593
   29SAPC  C212 3875   6.251   3.207   7.581  0.1162 -0.4075  0.3483
   29SAPC  H12R 3876   6.241   3.097   7.584 -1.0165 -0.2895  2.3067
   29SAPC  C213 3877   6.252   3.281   7.714 -0.2176 -0.2550 -0.1087
   29SAPC  H13R 3878   6.202   3.380   7.717 -1.3502 -0.7346  4.3473
   29SAPC  H13S 3879   6.359   3.300   7.735 -0.1499 -0.0597 -0.6162
   29SAPC  C214 3880   6.177   3.200   7.820  0.8539  0.0535 -0.0466
   29SAPC  H14R 3881   6.075   3.168   7.793  1.1112 -0.4785 -0.3987
   29SAPC  C215 3882   6.218   3.149   7.940 -0.7362 -0.3731  0.3524
   29SAPC  H15R 3883   6.150   3.101   8.012 -1.0417 -1.2885 -0.5297
   29SAPC  C216 3884   6.360   3.155   7.996  0.7528  0.2261  0.1143
   29SAPC  H16R 3885   6.365   3.196   8.099 -1.9993 -0.0449  0.4505
   29SAPC  H16S 3886   6.408   3.236   7.937 -2.3178  1.5194 -0.8477
   29SAPC  C217 3887   6.449   3.027   7.986  0.0390 -0.0432  0.5601
   29SAPC  H17R 3888   6.413   2.942   8.048  1.4186 -0.9138  0.1989
   29SAPC  H17S 3889   6.549   3.055   8.027  0.6961 -0.1035 -0.9234
   29SAPC  C218 3890   6.461   2.984   7.839 -0.1269  0.6023  0.2007
   29SAPC  H18R 3891   6.501   3.069   7.779  0.6223 -0.9763 -1.6433
   29SAPC  H18S 3892   6.366   2.948   7.793  0.3558  1.2416 -1.3544
   29SAPC  C219 3893   6.563   2.870   7.825  0.5680  0.0025  0.0463
   29SAPC  H19R 3894   6.534   2.795   7.902  0.3418  1.5692  1.5816
   29SAPC  H19S 3895   6.662   2.906   7.860  0.9805 -2.1758  1.3534
   29SAPC  C220 3896   6.574   2.816   7.685  0.0180  0.5611 -0.0078
   29SAPC  H20R 3897   6.587   2.907   7.622  2.6551  0.2380 -0.0678
   29SAPC  H20S 3898   6.487   2.756   7.652  1.6800 -0.8120 -2.1676
   29SAPC  H20T 3899   6.664   2.753   7.667 -0.4979 -0.0246 -0.5834
   29SAPC   C33 3900   5.898   3.808   6.615 -0.0897  0.6572 -0.7760
   29SAPC   H3X 3901   5.788   3.816   6.599 -0.5370 -1.8407  0.4539
   29SAPC   H3Y 3902   5.949   3.874   6.542 -2.5633  0.8189 -2.5109
   29SAPC   C34 3903   5.911   3.866   6.760  0.3805 -0.0159  0.4758
   29SAPC   H4X 3904   5.856   3.962   6.753  1.2668  0.5124  0.5203
   29SAPC   H4Y 3905   6.018   3.893   6.774  0.4729  0.3222 -0.7390
   29SAPC   C35 3906   5.852   3.780   6.870  0.0007 -0.6741  0.1152
   29SAPC   H5X 3907   5.911   3.687   6.884  0.1934 -0.4228  1.0712
   29SAPC   H5Y 3908   5.748   3.753   6.843 -0.0928 -0.6233  0.4150
   29SAPC   C36 3909   5.840   3.844   7.007  0.1594  0.6831 -0.9779
   29SAPC   H6X 3910   5.743   3.896   7.022 -0.5587 -0.7612 -0.3855
   29SAPC   H6Y 3911   5.911   3.929   7.019  0.0790  0.7457 -0.9463
   29SAPC   C37 3912   5.882   3.742   7.115  0.0249 -0.2096 -0.1993
   29SAPC   H7X 3913   5.988   3.710   7.114  0.2943  0.5851  0.9131
   29SAPC   H7Y 3914   5.822   3.650   7.099 -3.4991  1.8226  0.0653
   29SAPC   C38 3915   5.840   3.793   7.256 -0.2570  0.5091  0.2921
   29SAPC   H8X 3916   5.729   3.785   7.265 -0.0234 -1.2389  2.0434
   29SAPC   H8Y 3917   5.866   3.899   7.277  0.6218  0.6371 -1.2655
   29SAPC   C39 3918   5.900   3.700   7.362 -0.2450  0.0157 -0.1092
   29SAPC   H9X 3919   6.008   3.698   7.338  0.1155 -0.8653  1.4403
   29SAPC   H9Y 3920   5.875   3.593   7.344 -1.7057  0.0919  1.2769
   29SAPC  C310 3921   5.870   3.724   7.514  0.1915 -0.1227  0.7056
   29SAPC  H10X 3922   5.760   3.736   7.515  0.3895  2.0299  0.3900
   29SAPC  H10Y 3923   5.905   3.828   7.528  0.3853  0.2708 -2.0940
   29SAPC  C311 3924   5.920   3.611   7.603 -0.0097  0.5137 -0.8161
   29SAPC  H11X 3925   6.031   3.613   7.598  0.0743 -1.9109 -1.1295
   29SAPC  H11Y 3926   5.884   3.509   7.577 -1.3545  0.0339  2.4287
   29SAPC  C312 3927   5.877   3.636   7.753  0.3488  0.0309  0.7112
   29SAPC  H12X 3928   5.767   3.635   7.739  0.3918 -2.5664  0.1200
   29SAPC  H12Y 3929   5.918   3.730   7.795 -2.0871  1.0473  0.9309
   29SAPC  C313 3930   5.900   3.520   7.853 -0.2065 -0.5746 -0.1541
   29SAPC  H13X 3931   6.001   3.474   7.854 -0.7227 -1.7577 -0.2627
   29SAPC  H13Y 3932   5.834   3.435   7.825  0.4470 -1.0259 -0.3533
   29SAPC  C314 3933   5.853   3.551   8.000 -0.4411  0.9350  0.0304
   29SAPC  H14X 3934   5.822   3.454   8.046  3.0202  0.2418  1.1854
   29SAPC  H14Y 3935   5.763   3.615   8.003 -0.8535  0.3325  1.4789
   29SAPC  C315 3936   5.957   3.618   8.099  0.3920 -0.1054  0.1977
   29SAPC  H15X 3937   5.911   3.633   8.198  0.9180 -1.8244  0.7293
   29SAPC  H15Y 3938   5.987   3.715   8.053  0.5263 -0.5332 -0.6417
   29SAPC  C316 3939   6.081   3.532   8.119 -0.6455 -0.4499  0.5517
   29SAPC  H16X 3940   6.135   3.517   8.023 -1.0850 -0.9831  0.3893
   29SAPC  H16Y 3941   6.049   3.437   8.166  1.3370 -0.9695  0.9503
   29SAPC  C317 3942   6.185   3.588   8.224  0.7833  0.7035 -0.2076
   29SAPC  H17X 3943   6.135   3.605   8.322  2.5609  0.7994  0.7287
   29SAPC  H17Y 3944   6.229   3.684   8.190  2.6187 -0.0316 -0.0284
   29SAPC  C318 3945   6.294   3.487   8.247 -0.5395  0.0577 -0.6024
   29SAPC  H18X 3946   6.252   3.391   8.282 -0.5245 -0.2674 -1.4450
   29SAPC  H18Y 3947   6.367   3.524   8.322 -1.0312  0.0597 -0.1221
   29SAPC  H18Z 3948   6.344   3.446   8.157 -0.0874 -1.9755  0.5103
   30SAPC     N 3949   2.646   4.956   6.227  0.3942  0.1123 -0.5685
   30SAPC   C12 3950   2.594   5.064   6.142  0.0502  0.7259 -0.0845
   30SAPC  H12A 3951   2.494   5.031   6.119  0.3047  1.2496 -2.1107
   30SAPC  H12B 3952   2.655   5.064   6.054  2.7203  2.1345  1.6251
   30SAPC   C13 3953   2.625   4.823   6.162 -0.2700  0.0775  0.5593
   30SAPC  H13A 3954   2.521   4.808   6.139 -0.1071  1.0539 -0.9630
   30SAPC  H13B 3955   2.686   4.823   6.073 -0.5880  1.3765  0.3168
   30SAPC  H13C 3956   2.672   4.743   6.219  2.5613  1.6128  0.5717
   30SAPC   C14 3957   2.797   4.970   6.259  0.1202 -0.1635 -0.5813
   30SAPC  H14A 3958   2.805   5.038   6.342 -0.3275 -0.1167 -0.5773
   30SAPC  H14B 3959   2.841   4.880   6.300 -0.2509  0.6990  1.8792
   30SAPC  H14C 3960   2.843   5.009   6.169  0.9919  0.7581  0.2351
   30SAPC   C15 3961   2.570   4.954   6.357 -0.2294 -0.3784 -0.7258
   30SAPC  H15A 3962   2.598   4.877   6.427 -1.2541 -1.3396 -1.3283
   30SAPC  H15B 3963   2.570   5.050   6.405  0.7366  0.5531 -2.5046
   30SAPC  H15C 3964   2.466   4.928   6.341 -0.0559 -1.2784 -0.4443
   30SAPC   C11 3965   2.585   5.217   6.180  0.4891 -0.3576 -0.1887
   30SAPC  H11A 3966   2.535   5.221   6.279  1.6500  2.6010  0.3818
   30SAPC  H11B 3967   2.518   5.267   6.107 -0.8652 -1.8331 -0.0278
   30SAPC     P 3968   2.828   5.287   6.078 -0.1771  0.1954  0.3437
   30SAPC   O13 3969   2.784   5.209   5.956  0.0918 -0.2559 -0.6862
   30SAPC   O14 3970   2.854   5.426   6.046 -0.4774 -0.1404 -0.7452
   30SAPC   O12 3971   2.713   5.284   6.196 -0.0788 -0.1077 -0.4177
   30SAPC   O11 3972   2.958   5.226   6.134 -0.3980  0.1129 -0.6104
   30SAPC    C1 3973   3.049   5.291   6.219  0.1865 -0.1896 -0.2450
   30SAPC    HA 3974   3.155   5.268   6.193 -0.0875 -1.5174 -0.2516
   30SAPC    HB 3975   3.033   5.401   6.223  0.1325 -0.1498 -1.2298
   30SAPC    C2 3976   3.031   5.240   6.373 -0.7425 -0.2393  0.2585
   30SAPC    HS 3977   3.029   5.129   6.369 -2.1033 -0.2098 -0.4943
   30SAPC   O21 3978   2.903   5.289   6.419 -0.3756  0.1291 -0.3804
   30SAPC   C21 3979   2.832   5.226   6.502  0.6707 -0.2752 -0.1734
   30SAPC   O22 3980   2.843   5.108   6.534  0.5773 -0.7703  0.4592
   30SAPC   C22 3981   2.709   5.300   6.552 -0.5179  0.3967 -0.1082
   30SAPC   H2R 3982   2.712   5.406   6.521 -1.2478  0.0472 -1.4784
   30SAPC   H2S 3983   2.615   5.263   6.505  0.0291 -0.5896 -0.4525
   30SAPC    C3 3984   3.143   5.299   6.463  0.4291  0.1637  0.0955
   30SAPC    HX 3985   3.154   5.409   6.450  1.7633  0.3611  2.3047
   30SAPC    HY 3986   3.238   5.254   6.428  0.2850  0.2533 -0.4082
   30SAPC   O31 3987   3.124   5.272   6.605  0.0088 -0.7214  0.5611
   30SAPC   C31 3988   3.182   5.162   6.652  0.5355 -0.4524 -0.0849
   30SAPC   O32 3989   3.238   5.077   6.583  0.0622  0.1530 -0.3473
   30SAPC   C32 3990   3.148   5.150   6.804 -0.1689 -0.2139  0.4608
   30SAPC   H2X 3991   3.037   5.142   6.806 -0.1676 -0.2580  2.8904
   30SAPC   H2Y 3992   3.193   5.242   6.847  0.7801 -0.6235  0.3687
   30SAPC   C23 3993   2.698   5.293   6.704  0.5902 -0.4957 -0.2843
   30SAPC   H3R 3994   2.743   5.197   6.735  0.6131 -0.6447 -0.7665
   30SAPC   H3S 3995   2.592   5.274   6.734  1.5843 -1.1648  3.2100
   30SAPC   C24 3996   2.740   5.421   6.771 -0.5392  0.1483  1.2401
   30SAPC   H4R 3997   2.709   5.418   6.878 -2.1840  0.7573  0.8161
   30SAPC   H4S 3998   2.690   5.511   6.728 -1.4311 -0.7454  0.3634
   30SAPC   C25 3999   2.893   5.440   6.763  0.1480 -0.5930  1.1464
   30SAPC   H5R 4000   2.930   5.470   6.664  2.1537 -0.2849  1.9533
   30SAPC   C26 4001   2.974   5.436   6.873  0.0188 -0.7464 -0.1532
   30SAPC   H6R 4002   3.084   5.440   6.861 -0.0298 -2.0784 -1.3361
   30SAPC   C27 4003   2.936   5.405   7.012  0.0460 -0.1424  0.5381
   30SAPC   H7R 4004   2.992   5.314   7.042 -0.7011 -1.2538 -1.2973
   30SAPC   H7S 4005   2.838   5.354   7.023 -0.8575  1.5500  0.6881
   30SAPC   C28 4006   2.952   5.526   7.103  0.4653 -0.1389 -1.1893
   30SAPC   H8R 4007   3.006   5.618   7.073  0.4488  0.3847  0.2845
   30SAPC   C29 4008   2.910   5.521   7.232  0.0283 -0.6675 -0.3497
   30SAPC   H9R 4009   2.920   5.604   7.304  0.8458 -0.0970 -1.0972
   30SAPC  C210 4010   2.853   5.393   7.292 -0.1429  0.0151  0.6386
   30SAPC  H10R 4011   2.939   5.341   7.338  0.0207 -1.2476 -1.0052
   30SAPC  H10S 4012   2.813   5.324   7.214 -1.3343  2.7298 -1.3285
   30SAPC  C211 4013   2.753   5.425   7.392  0.0714  0.0281  0.3383
   30SAPC  H11R 4014   2.676   5.499   7.367  0.5141  0.5080  0.3602
   30SAPC  C212 4015   2.757   5.373   7.518 -0.1342 -0.1331  0.3927
   30SAPC  H12R 4016   2.684   5.414   7.589 -1.3182 -0.5038 -0.5816
   30SAPC  C213 4017   2.863   5.278   7.571 -0.1755 -0.2772 -0.5668
   30SAPC  H13R 4018   2.959   5.334   7.566 -0.3874  0.1878  0.3808
   30SAPC  H13S 4019   2.886   5.206   7.490  4.7751  2.2986 -1.9046
   30SAPC  C214 4020   2.843   5.195   7.694  0.0990 -0.2729 -0.5412
   30SAPC  H14R 4021   2.819   5.091   7.668  3.0381 -1.1479 -0.1046
   30SAPC  C215 4022   2.833   5.235   7.823  0.1949  0.3119 -0.4904
   30SAPC  H15R 4023   2.813   5.154   7.895 -0.2646 -0.0083 -0.9680
   30SAPC  C216 4024   2.844   5.385   7.867  0.1195  0.0308 -0.2874
   30SAPC  H16R 4025   2.850   5.457   7.782 -0.3447  0.0640 -0.2981
   30SAPC  H16S 4026   2.940   5.409   7.917  0.9387  1.0414 -2.2354
   30SAPC  C217 4027   2.726   5.424   7.960  0.6657 -0.1554 -0.8619
   30SAPC  H17R 4028   2.738   5.358   8.048 -1.8620 -0.4947 -0.7181
   30SAPC  H17S 4029   2.621   5.412   7.927  0.4009  1.0661 -0.4969
   30SAPC  C218 4030   2.756   5.571   8.009  0.5078 -0.1222 -0.4325
   30SAPC  H18R 4031   2.805   5.631   7.928  0.0894 -1.4392 -1.7022
   30SAPC  H18S 4032   2.827   5.562   8.094  0.4408 -2.7014 -0.5621
   30SAPC  C219 4033   2.623   5.635   8.054 -0.2231  0.1989 -0.4514
   30SAPC  H19R 4034   2.599   5.581   8.149  0.6468  0.8273  0.1353
   30SAPC  H19S 4035   2.538   5.619   7.985 -1.5662 -0.4824  1.2755
   30SAPC  C220 4036   2.652   5.775   8.095 -0.7478  0.2144 -0.0327
   30SAPC  H20R 4037   2.713   5.822   8.016 -0.2970 -1.0599 -0.4743
   30SAPC  H20S 4038   2.709   5.785   8.190  3.3075 -1.0330 -2.1069
   30SAPC  H20T 4039   2.559   5.830   8.118  0.4933  1.9720  0.9808
   30SAPC   C33 4040   3.221   5.024   6.865  0.3158 -0.0674 -0.0621
   30SAPC   H3X 4041   3.331   5.034   6.862  0.4596 -1.2433  0.5448
   30SAPC   H3Y 4042   3.203   4.930   6.807  4.2209 -1.9036  1.3636
   30SAPC   C34 4043   3.187   4.989   7.008 -0.3712  0.8004 -0.6961
   30SAPC   H4X 4044   3.212   4.881   7.019  1.6224  1.2357 -0.5884
   30SAPC   H4Y 4045   3.080   4.987   7.036 -0.8275 -1.0259 -2.3894
   30SAPC   C35 4046   3.265   5.068   7.115  0.3862 -0.2935 -0.1191
   30SAPC   H5X 4047   3.245   5.176   7.102  0.1867 -0.5106 -1.9917
   30SAPC   H5Y 4048   3.372   5.045   7.094  0.5644  1.0010 -0.7121
   30SAPC   C36 4049   3.239   5.021   7.262 -0.1286  0.1021  0.4822
   30SAPC   H6X 4050   3.302   5.076   7.334  0.5936 -0.1122  0.0295
   30SAPC   H6Y 4051   3.265   4.914   7.279  2.5449  1.0193  2.7587
   30SAPC   C37 4052   3.095   5.038   7.311  0.2656  0.6175 -0.3098
   30SAPC   H7X 4053   3.023   4.987   7.243 -0.0149 -0.5226  0.8118
   30SAPC   H7Y 4054   3.069   5.145   7.298 -0.4298  0.3170 -1.5177
   30SAPC   C38 4055   3.059   4.983   7.449 -0.0003  0.1949  0.7472
   30SAPC   H8X 4056   3.077   4.874   7.455 -1.1691  0.0511  2.3109
   30SAPC   H8Y 4057   2.953   5.001   7.476  0.2470 -0.7582  2.5166
   30SAPC   C39 4058   3.143   5.038   7.561 -0.0226 -0.1532  0.6149
   30SAPC   H9X 4059   3.102   5.141   7.573 -2.0652 -0.8486  0.0770
   30SAPC   H9Y 4060   3.250   5.036   7.532 -0.4729  0.1928 -1.1649
   30SAPC  C310 4061   3.118   4.962   7.692 -0.8050 -0.2459 -0.4719
   30SAPC  H10X 4062   3.145   4.855   7.687  1.1889  0.1992 -0.1392
   30SAPC  H10Y 4063   3.009   4.966   7.709 -0.6470  2.3623  0.4961
   30SAPC  C311 4064   3.176   5.026   7.821 -0.3852  0.4441 -0.2072
   30SAPC  H11X 4065   3.119   5.120   7.841 -1.7886 -0.4078 -0.0407
   30SAPC  H11Y 4066   3.281   5.047   7.794 -0.1715  0.5104  0.6353
   30SAPC  C312 4067   3.176   4.925   7.944 -0.2928  0.2997  0.2221
   30SAPC  H12X 4068   3.253   4.959   8.016 -1.9701  0.6574  1.9135
   30SAPC  H12Y 4069   3.215   4.826   7.911 -2.4172 -0.4991 -0.0036
   30SAPC  C313 4070   3.041   4.918   8.018  0.1118  0.0731 -0.1778
   30SAPC  H13X 4071   3.030   4.814   8.057 -0.1394  0.0708 -0.2564
   30SAPC  H13Y 4072   2.961   4.937   7.944  0.0645  0.4426 -0.0300
   30SAPC  C314 4073   3.020   5.004   8.144 -0.3281 -0.3685 -0.3073
   30SAPC  H14X 4074   2.918   4.994   8.187 -0.2791  0.8069  0.1224
   30SAPC  H14Y 4075   3.039   5.108   8.109  0.0248 -0.2812  0.1361
   30SAPC  C315 4076   3.116   4.971   8.264  0.9695  0.7487 -0.1252
   30SAPC  H15X 4077   3.157   5.067   8.304  3.3349 -0.6702  1.0154
   30SAPC  H15Y 4078   3.201   4.913   8.223  3.0225  2.2739  1.7115
   30SAPC  C316 4079   3.048   4.893   8.377  0.7357  0.0533 -0.3385
   30SAPC  H16X 4080   3.007   4.804   8.325 -0.8149  0.6574 -0.2269
   30SAPC  H16Y 4081   2.958   4.953   8.401  1.0846  0.6678 -0.5428
   30SAPC  C317 4082   3.132   4.841   8.493  0.5140  0.2615  0.0322
   30SAPC  H17X 4083   3.160   4.929   8.554 -0.0975 -0.1302  0.8975
   30SAPC  H17Y 4084   3.226   4.792   8.459 -1.2685 -3.4323 -0.0448
   30SAPC  C318 4085   3.058   4.737   8.581  0.2150 -0.8501  0.6921
   30SAPC  H18X 4086   3.010   4.656   8.521 -1.4301  0.8039 -0.3264
   30SAPC  H18Y 4087   2.974   4.778   8.641 -0.5943 -1.7457  0.2034
   30SAPC  H18Z 4088   3.131   4.685   8.646  1.6457  1.6039  1.1562
   31SAPC     N 4089   3.766   6.098   6.043  0.2173  0.3132  0.1737
   31SAPC   C12 4090   3.747   6.167   6.178 -0.6917  0.2078  0.2953
   31SAPC  H12A 4091   3.655   6.224   6.177 -0.3140  1.0887 -3.9901
   31SAPC  H12B 4092   3.828   6.238   6.175  0.1924 -0.8056 -0.5659
   31SAPC   C13 4093   3.637   6.040   6.000 -0.3756  0.1736 -0.5183
   31SAPC  H13A 4094   3.615   5.948   6.052  0.8788 -0.9719 -1.9015
   31SAPC  H13B 4095   3.557   6.110   6.019 -2.0495 -1.5165 -0.9828
   31SAPC  H13C 4096   3.632   6.018   5.894 -0.4919  1.0524 -0.6999
   31SAPC   C14 4097   3.804   6.202   5.938 -0.3997  0.5816 -0.2493
   31SAPC  H14A 4098   3.740   6.289   5.944 -0.3728  0.6002 -0.2386
   31SAPC  H14B 4099   3.908   6.229   5.939  0.0138 -0.8868  0.7099
   31SAPC  H14C 4100   3.795   6.156   5.841 -0.7646  0.0304  0.0404
   31SAPC   C15 4101   3.876   5.996   6.051  0.1282 -0.4919 -0.2748
   31SAPC  H15A 4102   3.906   5.955   5.956  1.1407 -2.4858  0.8505
   31SAPC  H15B 4103   3.956   6.043   6.105 -0.4745 -0.2852  0.4572
   31SAPC  H15C 4104   3.848   5.912   6.112  0.2721  0.9236  1.8315
   31SAPC   C11 4105   3.752   6.074   6.309  0.1160  0.4262  0.3335
   31SAPC  H11A 4106   3.744   6.121   6.409 -1.1246  0.9979 -0.0047
   31SAPC  H11B 4107   3.853   6.029   6.304 -1.0013 -2.1748 -0.8721
   31SAPC     P 4108   3.495   5.995   6.349 -0.4674 -0.0766 -0.1503
   31SAPC   O13 4109   3.434   6.098   6.270  0.2924  0.4246  0.2364
   31SAPC   O14 4110   3.428   5.866   6.335 -0.1202  0.3354 -0.4807
   31SAPC   O12 4111   3.644   5.973   6.299  0.1556  0.6133  0.1803
   31SAPC   O11 4112   3.531   6.034   6.503  0.0697 -0.0188  0.8033
   31SAPC    C1 4113   3.560   5.926   6.589  0.1796 -0.4692 -0.7396
   31SAPC    HA 4114   3.476   5.854   6.598  0.9142 -1.0842  2.8739
   31SAPC    HB 4115   3.643   5.860   6.556  0.6273  0.2161 -1.0063
   31SAPC    C2 4116   3.584   5.980   6.739 -0.1506 -0.2609  0.1249
   31SAPC    HS 4117   3.563   5.896   6.809 -2.0816 -1.0604 -1.3341
   31SAPC   O21 4118   3.499   6.091   6.770 -0.2149  0.2675 -0.3643
   31SAPC   C21 4119   3.373   6.061   6.792  1.2489  0.6146  1.2125
   31SAPC   O22 4120   3.327   5.948   6.806 -0.4872 -0.2488  0.0154
   31SAPC   C22 4121   3.306   6.198   6.797 -0.2070  0.1041 -0.0834
   31SAPC   H2R 4122   3.343   6.251   6.887  0.1744  1.1270 -0.8141
   31SAPC   H2S 4123   3.351   6.251   6.709  2.4142 -2.3646 -0.3752
   31SAPC    C3 4124   3.728   6.019   6.765  0.2527 -0.8400 -0.4907
   31SAPC    HX 4125   3.757   6.092   6.686 -0.6291  1.2816  1.0725
   31SAPC    HY 4126   3.799   5.933   6.759  2.0263  0.4966  0.4650
   31SAPC   O31 4127   3.740   6.082   6.891  0.0625 -0.1992  0.0393
   31SAPC   C31 4128   3.752   6.217   6.897  0.8929 -0.0909 -0.2659
   31SAPC   O32 4129   3.730   6.294   6.805  0.8821  0.0661 -0.1207
   31SAPC   C32 4130   3.796   6.253   7.039 -0.0236  0.6999 -0.4756
   31SAPC   H2X 4131   3.857   6.166   7.072 -0.5338  0.9071  1.1285
   31SAPC   H2Y 4132   3.713   6.243   7.112  1.1568  3.3193  1.3991
   31SAPC   C23 4133   3.152   6.195   6.803 -0.1818 -0.3195  0.1665
   31SAPC   H3R 4134   3.127   6.146   6.899  2.1047 -1.2011  0.3746
   31SAPC   H3S 4135   3.106   6.126   6.730 -3.2758 -2.0860  3.4471
   31SAPC   C24 4136   3.081   6.333   6.775 -0.3903  0.8836  0.6579
   31SAPC   H4R 4137   2.975   6.301   6.788 -0.2586  0.2702  0.2695
   31SAPC   H4S 4138   3.097   6.351   6.667 -0.7695  0.8027  0.5857
   31SAPC   C25 4139   3.118   6.447   6.856 -0.0858 -0.1693  0.4973
   31SAPC   H5R 4140   3.194   6.512   6.810 -0.7589  1.5528  1.7431
   31SAPC   C26 4141   3.072   6.475   6.978  0.4525 -0.6918  0.0590
   31SAPC   H6R 4142   3.103   6.566   7.033 -0.3931 -0.3158 -0.0676
   31SAPC   C27 4143   2.974   6.385   7.055  0.5131 -0.1834 -0.2235
   31SAPC   H7R 4144   3.028   6.327   7.133 -1.1126 -2.2207 -0.5552
   31SAPC   H7S 4145   2.921   6.309   6.995  3.1849 -2.6695  0.3733
   31SAPC   C28 4146   2.879   6.476   7.132  0.5157 -0.2113  0.1753
   31SAPC   H8R 4147   2.792   6.499   7.070  0.1276  0.4601  0.9483
   31SAPC   C29 4148   2.900   6.550   7.247  0.2000 -0.1004  0.7677
   31SAPC   H9R 4149   2.824   6.614   7.294 -0.7872 -0.2123 -0.5968
   31SAPC  C210 4150   3.023   6.562   7.320 -0.4136 -0.0392  0.4040
   31SAPC  H10R 4151   3.085   6.647   7.286  1.5931 -1.1232  1.1817
   31SAPC  H10S 4152   3.086   6.470   7.314  0.4072  0.4092  1.7547
   31SAPC  C211 4153   3.005   6.575   7.467 -0.0424  0.2578  0.4661
   31SAPC  H11R 4154   2.938   6.660   7.487 -0.2730  0.0207  0.7130
   31SAPC  C212 4155   3.041   6.497   7.571 -0.6739 -0.1514  0.0464
   31SAPC  H12R 4156   3.005   6.529   7.670  0.1092 -0.3727  0.4109
   31SAPC  C213 4157   3.136   6.382   7.565 -0.5093 -0.2274  0.1463
   31SAPC  H13R 4158   3.234   6.434   7.556  0.6054 -1.9977  1.4312
   31SAPC  H13S 4159   3.132   6.333   7.466 -1.1031  1.0843 -0.5094
   31SAPC  C214 4160   3.126   6.279   7.677  0.0650 -0.3813  0.1513
   31SAPC  H14R 4161   3.055   6.198   7.652 -2.3977  1.7783 -0.2366
   31SAPC  C215 4162   3.187   6.274   7.794  0.9900 -0.0999 -0.0302
   31SAPC  H15R 4163   3.170   6.201   7.875  1.5430  1.2301  1.3437
   31SAPC  C216 4164   3.294   6.371   7.845  0.2224  0.0154  0.0924
   31SAPC  H16R 4165   3.328   6.431   7.758 -0.1923 -0.3510 -0.3273
   31SAPC  H16S 4166   3.384   6.317   7.883  0.8299  1.9961  1.6399
   31SAPC  C217 4167   3.253   6.485   7.953 -0.1037 -0.0473 -0.5418
   31SAPC  H17R 4168   3.181   6.553   7.902 -0.5164  1.6290  2.1067
   31SAPC  H17S 4169   3.347   6.537   7.977  0.0455 -0.2353 -0.7120
   31SAPC  C218 4170   3.198   6.422   8.082 -0.7327 -0.4736 -0.3793
   31SAPC  H18R 4171   3.262   6.331   8.094 -0.2189  0.0249  0.8255
   31SAPC  H18S 4172   3.096   6.384   8.059 -1.0174 -1.4682  2.2298
   31SAPC  C219 4173   3.199   6.512   8.202 -0.4625 -0.7107 -0.8713
   31SAPC  H19R 4174   3.300   6.556   8.216 -1.6242  1.1739  2.9634
   31SAPC  H19S 4175   3.174   6.457   8.296 -0.3417 -0.1199 -0.4895
   31SAPC  C220 4176   3.115   6.642   8.198 -0.4689 -0.8611  0.0054
   31SAPC  H20R 4177   3.007   6.621   8.209 -1.3450  1.8782 -2.2878
   31SAPC  H20S 4178   3.135   6.698   8.104  0.5266 -1.4329 -0.1434
   31SAPC  H20T 4179   3.138   6.706   8.286 -1.2991  2.4646 -2.0177
   31SAPC   C33 4180   3.867   6.381   7.033 -0.4075  0.0602  0.2489
   31SAPC   H3X 4181   3.807   6.471   7.005 -1.5989 -0.7317  0.1682
   31SAPC   H3Y 4182   3.951   6.375   6.960 -1.4169  0.5005 -0.9962
   31SAPC   C34 4183   3.938   6.416   7.164 -0.5504 -0.1603  0.5154
   31SAPC   H4X 4184   4.019   6.343   7.183  0.5415  0.8573 -0.1146
   31SAPC   H4Y 4185   3.873   6.406   7.254 -2.1779 -1.1642 -0.7176
   31SAPC   C35 4186   3.997   6.557   7.148  0.4283 -0.5570 -0.4271
   31SAPC   H5X 4187   3.911   6.626   7.139 -0.0356 -1.4065 -3.6361
   31SAPC   H5Y 4188   4.048   6.559   7.050 -0.4503 -1.1723 -0.9176
   31SAPC   C36 4189   4.083   6.597   7.267 -0.0384  0.1911 -0.1381
   31SAPC   H6X 4190   4.176   6.538   7.254 -0.9944 -1.5555  0.5183
   31SAPC   H6Y 4191   4.034   6.564   7.361  0.3043  0.3577  0.1004
   31SAPC   C37 4192   4.138   6.738   7.261 -0.4062 -0.0338  0.1303
   31SAPC   H7X 4193   4.059   6.815   7.270  0.5457  1.2415 -1.7731
   31SAPC   H7Y 4194   4.193   6.754   7.165 -2.1340  2.3383 -0.5494
   31SAPC   C38 4195   4.238   6.761   7.384 -0.3028 -0.2159  0.3982
   31SAPC   H8X 4196   4.190   6.745   7.483 -2.2007  2.7686  0.1010
   31SAPC   H8Y 4197   4.240   6.872   7.387 -2.0057 -0.1625  3.3074
   31SAPC   C39 4198   4.378   6.696   7.370  0.2923 -0.1035 -0.1136
   31SAPC   H9X 4199   4.427   6.747   7.284  0.3397 -1.6879 -1.0594
   31SAPC   H9Y 4200   4.366   6.590   7.341  2.6067 -1.9929  4.6616
   31SAPC  C310 4201   4.475   6.690   7.490 -0.5389 -0.9472 -0.1821
   31SAPC  H10X 4202   4.507   6.792   7.521  0.1292 -0.4633 -2.3369
   31SAPC  H10Y 4203   4.572   6.646   7.461  1.1970  2.6365 -0.3560
   31SAPC  C311 4204   4.418   6.630   7.616 -0.1844  0.1239  0.5527
   31SAPC  H11X 4205   4.353   6.544   7.589  0.0266 -0.0608  0.6308
   31SAPC  H11Y 4206   4.350   6.701   7.667  1.5819  2.2087  0.1178
   31SAPC  C312 4207   4.534   6.581   7.705 -1.2848  0.5043 -0.6740
   31SAPC  H12X 4208   4.599   6.669   7.723 -0.1805 -1.0331  4.6030
   31SAPC  H12Y 4209   4.605   6.505   7.666  1.8236  1.8573  1.9019
   31SAPC  C313 4210   4.488   6.533   7.846  0.3710 -0.4129 -0.0248
   31SAPC  H13X 4211   4.455   6.427   7.843  0.7798 -0.5567  0.4555
   31SAPC  H13Y 4212   4.402   6.598   7.875 -1.4066 -1.3294 -2.7984
   31SAPC  C314 4213   4.594   6.542   7.966  0.0006  0.0371  0.0411
   31SAPC  H14X 4214   4.634   6.643   7.988 -0.2258 -0.1817  1.5756
   31SAPC  H14Y 4215   4.675   6.470   7.943 -0.5020 -0.1259 -1.2985
   31SAPC  C315 4216   4.536   6.493   8.096 -1.0118  0.2481  0.3259
   31SAPC  H15X 4217   4.626   6.498   8.161 -1.1595  1.6379  0.4478
   31SAPC  H15Y 4218   4.505   6.388   8.079 -0.9362  0.1958  0.5108
   31SAPC  C316 4219   4.421   6.571   8.153  0.1210 -0.3660  0.2207
   31SAPC  H16X 4220   4.334   6.580   8.084 -0.1399 -0.6706  0.5072
   31SAPC  H16Y 4221   4.462   6.675   8.155  1.7627 -0.9902  0.6622
   31SAPC  C317 4222   4.371   6.518   8.283 -0.2923 -0.1113  0.2001
   31SAPC  H17X 4223   4.445   6.536   8.364 -1.8454  1.2189  1.3794
   31SAPC  H17Y 4224   4.340   6.411   8.284  0.3634 -0.3168 -0.2525
   31SAPC  C318 4225   4.239   6.589   8.326 -0.0409 -0.1792  0.6795
   31SAPC  H18X 4226   4.218   6.559   8.431  1.6565 -2.3502  0.4604
   31SAPC  H18Y 4227   4.154   6.565   8.257 -0.4052  3.0595 -0.1853
   31SAPC  H18Z 4228   4.258   6.698   8.321  2.0916 -0.5622 -0.8065
   32SAPC     N 4229   4.112   4.675   5.999  0.6891  0.7979 -0.2874
   32SAPC   C12 4230   4.090   4.783   6.103 -0.1600 -0.1955  0.2479
   32SAPC  H12A 4231   4.174   4.852   6.107 -0.0696 -0.3527  2.3616
   32SAPC  H12B 4232   4.109   4.733   6.197 -0.0558 -0.3087  0.1662
   32SAPC   C13 4233   4.138   4.735   5.865 -0.0900 -0.2398  0.0554
   32SAPC  H13A 4234   4.050   4.792   5.838  1.8363  1.5307 -3.1804
   32SAPC  H13B 4235   4.226   4.796   5.860  0.2996 -0.8892 -2.9642
   32SAPC  H13C 4236   4.164   4.662   5.789  0.7971 -0.3461  0.4504
   32SAPC   C14 4237   4.222   4.578   6.034  0.3118  0.1377  0.1766
   32SAPC  H14A 4238   4.317   4.630   6.033  0.3472  0.1551  1.9060
   32SAPC  H14B 4239   4.196   4.535   6.129 -2.7055  3.6348  1.1779
   32SAPC  H14C 4240   4.224   4.494   5.967 -0.9989  0.2704 -0.0691
   32SAPC   C15 4241   3.988   4.591   5.982 -0.9673  0.6243  0.0452
   32SAPC  H15A 4242   3.967   4.530   6.069 -0.1099  1.0189  0.5384
   32SAPC  H15B 4243   3.902   4.649   5.953 -0.7875  0.5772 -0.5920
   32SAPC  H15C 4244   3.999   4.523   5.899 -1.5290 -1.5985  1.6887
   32SAPC   C11 4245   3.958   4.870   6.122 -0.0394  0.4081 -0.2078
   32SAPC  H11A 4246   3.956   4.928   6.217  1.1761  0.1388 -0.0097
   32SAPC  H11B 4247   3.876   4.802   6.152  1.5814 -1.1660  0.8512
   32SAPC     P 4248   3.957   5.094   5.994  0.1967 -0.3790 -0.3546
   32SAPC   O13 4249   4.103   5.115   6.005  0.0152  0.3328  0.1604
   32SAPC   O14 4250   3.889   5.157   5.880  0.0551 -0.1473 -0.5160
   32SAPC   O12 4251   3.927   4.942   6.003 -0.3973  0.0639  0.5859
   32SAPC   O11 4252   3.898   5.139   6.131  1.0748 -0.3488 -0.4769
   32SAPC    C1 4253   3.751   5.164   6.117  0.0807 -0.7162  0.0879
   32SAPC    HA 4254   3.728   5.267   6.083 -0.6257 -0.3173  1.6770
   32SAPC    HB 4255   3.705   5.100   6.039  0.7746  0.5461 -1.3998
   32SAPC    C2 4256   3.676   5.150   6.252 -0.2591 -0.3214 -0.4538
   32SAPC    HS 4257   3.567   5.153   6.227  0.2558  0.2410 -2.8297
   32SAPC   O21 4258   3.716   5.261   6.335  0.3426 -0.4925  0.2897
   32SAPC   C21 4259   3.622   5.364   6.332  0.2509 -0.0141 -0.5687
   32SAPC   O22 4260   3.533   5.380   6.250 -0.5764  0.3723 -0.8956
   32SAPC   C22 4261   3.646   5.458   6.458  0.0374  0.3631  0.7989
   32SAPC   H2R 4262   3.681   5.392   6.541  0.2963  0.0701  0.4592
   32SAPC   H2S 4263   3.732   5.521   6.428 -1.3136  1.2029 -1.5468
   32SAPC    C3 4264   3.697   5.021   6.337 -0.2428 -0.7983 -0.3034
   32SAPC    HX 4265   3.808   5.017   6.349 -0.0041  1.2689 -1.4025
   32SAPC    HY 4266   3.673   4.931   6.277  1.1665 -1.6840  0.4063
   32SAPC   O31 4267   3.629   5.033   6.465 -0.3013  0.6371  0.5173
   32SAPC   C31 4268   3.687   4.969   6.571 -0.2720  0.2226 -0.2777
   32SAPC   O32 4269   3.764   4.876   6.568  0.0508 -0.2106  0.0105
   32SAPC   C32 4270   3.646   5.029   6.705  0.4478 -0.7461  0.3401
   32SAPC   H2X 4271   3.639   4.949   6.783 -0.2307  2.2414  3.6143
   32SAPC   H2Y 4272   3.542   5.064   6.687  1.0539 -0.4053 -3.0065
   32SAPC   C23 4273   3.516   5.539   6.507  0.1282  0.5972  0.7998
   32SAPC   H3R 4274   3.448   5.568   6.424 -0.1662  1.7076  1.4003
   32SAPC   H3S 4275   3.556   5.634   6.549  0.8186  0.3081  0.8119
   32SAPC   C24 4276   3.444   5.448   6.609  0.2296 -0.0530 -0.3245
   32SAPC   H4R 4277   3.514   5.417   6.689 -1.2462  0.4138  1.2197
   32SAPC   H4S 4278   3.404   5.360   6.555  1.1995 -0.0605 -1.0453
   32SAPC   C25 4279   3.336   5.539   6.657 -0.6889 -0.3373  0.2863
   32SAPC   H5R 4280   3.250   5.540   6.588  0.1474  1.1418 -0.7880
   32SAPC   C26 4281   3.321   5.604   6.776 -0.1997  0.3218  0.5610
   32SAPC   H6R 4282   3.233   5.667   6.796  0.4240  1.3705  0.1103
   32SAPC   C27 4283   3.413   5.591   6.885 -0.2253  0.5211 -0.8012
   32SAPC   H7R 4284   3.511   5.637   6.857  0.3244  0.7202  1.3145
   32SAPC   H7S 4285   3.435   5.483   6.901 -2.2248  0.0071 -1.2198
   32SAPC   C28 4286   3.369   5.649   7.020  0.4207  0.2716  0.7654
   32SAPC   H8R 4287   3.349   5.757   7.020 -0.2223  0.1566  1.3130
   32SAPC   C29 4288   3.340   5.589   7.133 -0.4424  0.4929 -0.7509
   32SAPC   H9R 4289   3.304   5.651   7.216 -3.6330 -2.9539  0.7387
   32SAPC  C210 4290   3.357   5.445   7.167  0.0795  0.1715 -0.4748
   32SAPC  H10R 4291   3.461   5.432   7.204  0.1075 -0.2128 -0.6828
   32SAPC  H10S 4292   3.339   5.391   7.072 -0.1904  1.2237 -1.0376
   32SAPC  C211 4293   3.260   5.400   7.274  0.2250 -0.9830 -0.4561
   32SAPC  H11R 4294   3.163   5.364   7.236  1.0199 -3.5933 -0.1545
   32SAPC  C212 4295   3.284   5.391   7.404  0.1357  0.5385  0.1570
   32SAPC  H12R 4296   3.219   5.339   7.476  2.5192  1.1096  2.8745
   32SAPC  C213 4297   3.410   5.434   7.475  0.3311 -0.6380  0.1016
   32SAPC  H13R 4298   3.401   5.541   7.504  0.5326  0.5071 -3.4666
   32SAPC  H13S 4299   3.500   5.441   7.409 -0.5022  1.6428 -0.8934
   32SAPC  C214 4300   3.442   5.335   7.585 -0.4354  0.0987 -0.2318
   32SAPC  H14R 4301   3.520   5.262   7.560  0.5038  0.9241  0.2120
   32SAPC  C215 4302   3.404   5.343   7.718 -0.1144 -0.2216  0.2272
   32SAPC  H15R 4303   3.428   5.264   7.790  1.1268 -1.5957 -1.6151
   32SAPC  C216 4304   3.319   5.455   7.784 -0.0350  0.1321  0.5873
   32SAPC  H16R 4305   3.216   5.417   7.797  0.9167 -2.3761  1.3240
   32SAPC  H16S 4306   3.318   5.543   7.715 -0.3941  0.4089  0.9425
   32SAPC  C217 4307   3.383   5.520   7.907 -0.2284  0.1984 -0.8966
   32SAPC  H17R 4308   3.318   5.607   7.932 -1.1883 -0.2385 -1.8005
   32SAPC  H17S 4309   3.481   5.554   7.868  0.0020 -1.3969 -1.7835
   32SAPC  C218 4310   3.387   5.422   8.022  0.3516  0.4345 -0.5514
   32SAPC  H18R 4311   3.464   5.453   8.095  0.9562 -1.3879 -0.3781
   32SAPC  H18S 4312   3.400   5.315   7.996  0.5893  0.4884 -0.6569
   32SAPC  C219 4313   3.266   5.425   8.118  0.1974  0.6876 -0.3613
   32SAPC  H19R 4314   3.179   5.390   8.059 -1.1465  0.4439  1.6715
   32SAPC  H19S 4315   3.257   5.528   8.158  0.3590 -0.3427  2.6346
   32SAPC  C220 4316   3.273   5.314   8.229 -0.3512  0.2735 -0.2801
   32SAPC  H20R 4317   3.259   5.219   8.174  2.0199 -0.1539 -0.2270
   32SAPC  H20S 4318   3.198   5.334   8.309 -2.0637  1.6955 -2.1535
   32SAPC  H20T 4319   3.370   5.322   8.282 -1.4668 -1.3511  2.2512
   32SAPC   C33 4320   3.742   5.142   6.751 -0.5484 -0.1323  0.0543
   32SAPC   H3X 4321   3.759   5.217   6.672 -0.1722  0.4700  0.6933
   32SAPC   H3Y 4322   3.840   5.097   6.779 -0.6447  1.2210  2.9884
   32SAPC   C34 4323   3.698   5.217   6.881 -0.6146 -0.4324  0.0486
   32SAPC   H4X 4324   3.593   5.250   6.866 -0.4980 -0.6091 -1.2345
   32SAPC   H4Y 4325   3.760   5.309   6.877  0.7279 -1.1080  2.7761
   32SAPC   C35 4326   3.725   5.144   7.013 -0.4733 -1.0668  0.2951
   32SAPC   H5X 4327   3.830   5.109   7.020  1.8606  4.0103 -2.9794
   32SAPC   H5Y 4328   3.654   5.060   6.999 -1.4543  0.0235 -1.8562
   32SAPC   C36 4329   3.690   5.229   7.147  0.3522  0.2472  0.2535
   32SAPC   H6X 4330   3.598   5.279   7.109  0.9665  0.5025 -0.9506
   32SAPC   H6Y 4331   3.765   5.311   7.157  1.5978 -0.9430  0.9272
   32SAPC   C37 4332   3.662   5.151   7.277 -0.5797  0.9049 -0.9029
   32SAPC   H7X 4333   3.585   5.071   7.263  1.0396 -1.0079  0.4835
   32SAPC   H7Y 4334   3.620   5.231   7.342 -1.6297  0.3082 -0.8171
   32SAPC   C38 4335   3.788   5.104   7.352  0.9484 -0.5545 -0.7985
   32SAPC   H8X 4336   3.848   5.026   7.300  4.0844 -0.6757  2.6567
   32SAPC   H8Y 4337   3.754   5.053   7.444  0.0286 -0.5921 -1.1427
   32SAPC   C39 4338   3.885   5.222   7.396 -0.3183 -0.2269  0.4762
   32SAPC   H9X 4339   3.921   5.265   7.300 -1.7275  0.6035  0.2901
   32SAPC   H9Y 4340   3.972   5.166   7.436 -1.1828 -1.9774  0.0392
   32SAPC  C310 4341   3.836   5.334   7.492  0.2553 -0.3002  0.5659
   32SAPC  H10X 4342   3.900   5.323   7.583 -0.2967 -0.3117  0.9545
   32SAPC  H10Y 4343   3.728   5.328   7.517 -0.0268 -0.0020 -0.5315
   32SAPC  C311 4344   3.875   5.464   7.419  0.6010  0.0302  0.1003
   32SAPC  H11X 4345   3.823   5.476   7.322  0.2732 -0.8076  0.1676
   32SAPC  H11Y 4346   3.986   5.471   7.405  0.9687 -2.3211  1.3510
   32SAPC  C312 4347   3.823   5.582   7.499  0.5162 -0.4279 -0.2161
   32SAPC  H12X 4348   3.713   5.588   7.513  0.8515  2.7648  2.3551
   32SAPC  H12Y 4349   3.847   5.667   7.431 -1.4170 -0.1896 -0.6566
   32SAPC  C313 4350   3.884   5.608   7.629  0.9061  0.6832 -0.2618
   32SAPC  H13X 4351   3.921   5.711   7.644  0.4093  1.1020 -1.6854
   32SAPC  H13Y 4352   3.968   5.540   7.656  0.3996  1.1891  2.9040
   32SAPC  C314 4353   3.777   5.571   7.744  0.8029 -0.6755  0.0934
   32SAPC  H14X 4354   3.743   5.466   7.731 -0.0416 -0.6048  1.5736
   32SAPC  H14Y 4355   3.691   5.641   7.746  0.2809 -1.3016 -0.2545
   32SAPC  C315 4356   3.841   5.565   7.885  0.4193 -0.6330 -0.3439
   32SAPC  H15X 4357   3.912   5.650   7.894 -1.2079  0.9546 -1.8125
   32SAPC  H15Y 4358   3.902   5.473   7.897  0.5033 -0.3794  1.4994
   32SAPC  C316 4359   3.733   5.587   7.994 -0.7345 -0.2458  0.4865
   32SAPC  H16X 4360   3.691   5.485   8.008 -1.4494 -0.2242 -1.2600
   32SAPC  H16Y 4361   3.653   5.663   7.978  0.8152  1.2543 -0.5398
   32SAPC  C317 4362   3.786   5.647   8.130  0.5472 -0.5958  0.5015
   32SAPC  H17X 4363   3.705   5.665   8.203  0.1419  0.1196 -0.1082
   32SAPC  H17Y 4364   3.827   5.745   8.098  0.7352 -1.5427 -2.5609
   32SAPC  C318 4365   3.894   5.551   8.192 -0.5951  0.3061  0.3496
   32SAPC  H18X 4366   3.939   5.597   8.283 -0.4895  1.9623 -0.5082
   32SAPC  H18Y 4367   3.980   5.529   8.127 -0.1383  1.8402  0.3973
   32SAPC  H18Z 4368   3.841   5.458   8.224  0.9907 -0.4673  0.8445
   33POPC     N 4369   3.573   1.591  10.807 -0.1638  0.0930  0.5037
   33POPC   C12 4370   3.482   1.635  10.686 -0.0124  0.3485  0.4254
   33POPC  H12A 4371   3.491   1.742  10.671 -1.0949  0.7506  2.2099
   33POPC  H12B 4372   3.376   1.626  10.707  0.3505  1.6557  3.4457
   33POPC   C13 4373   3.548   1.683  10.923 -0.8706 -0.3840  0.0012
   33POPC  H13A 4374   3.538   1.788  10.899 -1.9099 -0.0675  1.6509
   33POPC  H13B 4375   3.451   1.655  10.961 -0.0724 -2.3638  0.7341
   33POPC  H13C 4376   3.633   1.665  10.988  0.9695  1.3098 -1.7685
   33POPC   C14 4377   3.546   1.452  10.852 -0.5467  0.1355  0.7133
   33POPC  H14A 4378   3.611   1.427  10.935  0.5411 -0.6163 -0.3287
   33POPC  H14B 4379   3.444   1.442  10.884 -0.7849 -3.3903 -0.6643
   33POPC  H14C 4380   3.554   1.376  10.775  0.6556 -0.2737  1.2058
   33POPC   C15 4381   3.714   1.591  10.759  0.0089 -0.0660 -0.4419
   33POPC  H15A 4382   3.724   1.531  10.670 -1.6400 -0.3677 -0.4627
   33POPC  H15B 4383   3.785   1.559  10.834  0.3990 -1.5859 -1.4135
   33POPC  H15C 4384   3.745   1.690  10.731  0.5033  0.4416  1.7297
   33POPC   C11 4385   3.514   1.568  10.549 -0.1919  0.0108  1.1110
   33POPC  H11A 4386   3.612   1.609  10.515 -2.0313  1.3115 -3.2382
   33POPC  H11B 4387   3.438   1.606  10.478  1.5670  0.4804 -0.6093
   33POPC     P 4388   3.418   1.336  10.472 -0.0909 -0.4664 -0.0269
   33POPC   O13 4389   3.282   1.393  10.482  0.8279  0.0752 -0.0201
   33POPC   O14 4390   3.431   1.198  10.521 -0.4670  0.1314  0.1772
   33POPC   O12 4391   3.522   1.427  10.552 -0.5741 -0.1679  0.6294
   33POPC   O11 4392   3.473   1.332  10.310  0.3134 -0.1490 -0.8756
   33POPC    C1 4393   3.531   1.441  10.243 -0.3213 -0.1924 -0.0081
   33POPC    HA 4394   3.471   1.534  10.247  1.7579  1.2418  4.1685
   33POPC    HB 4395   3.624   1.466  10.299 -0.8625  0.5751  0.5531
   33POPC    C2 4396   3.579   1.394  10.100 -0.1612 -0.3023  0.5123
   33POPC    HS 4397   3.663   1.461  10.073  0.2197 -0.6609  0.8019
   33POPC   O21 4398   3.466   1.400  10.008 -0.7378  0.1158 -0.1860
   33POPC   C21 4399   3.513   1.393   9.878 -0.1040  0.5774 -0.1497
   33POPC   O22 4400   3.627   1.405   9.844 -0.0036  0.5357 -0.0723
   33POPC   C22 4401   3.394   1.382   9.784 -0.1879  0.6228 -0.3090
   33POPC   H2R 4402   3.305   1.428   9.832 -0.8274  0.2587 -1.1107
   33POPC   H2S 4403   3.374   1.274   9.764 -3.1688  0.6930  1.6311
   33POPC    C3 4404   3.641   1.252  10.112 -0.2205 -0.1139 -0.0909
   33POPC    HX 4405   3.549   1.190  10.120 -0.2806  0.0353  0.3543
   33POPC    HY 4406   3.695   1.244  10.209  1.4202 -0.9514 -1.0235
   33POPC   O31 4407   3.717   1.209   9.996 -0.7218 -0.4231 -0.7166
   33POPC   C31 4408   3.837   1.261   9.991 -0.5906 -0.3826 -0.4311
   33POPC   O32 4409   3.901   1.314  10.084  0.0631 -0.2517 -0.2787
   33POPC   C32 4410   3.890   1.225   9.853  0.6107 -0.7026 -0.2534
   33POPC   H2X 4411   3.808   1.253   9.783 -0.4011 -1.8114  0.4395
   33POPC   H2Y 4412   3.907   1.115   9.850  0.1349 -0.8641  1.7567
   33POPC   C23 4413   3.409   1.454   9.645 -0.4878  0.2536 -0.6606
   33POPC   H3R 4414   3.443   1.557   9.665  1.2098 -0.5237  0.7624
   33POPC   H3S 4415   3.306   1.445   9.605 -0.8803  1.5721 -0.0026
   33POPC   C24 4416   3.522   1.392   9.565 -0.5989  0.1534  0.1055
   33POPC   H4R 4417   3.513   1.282   9.550 -2.5180  0.4138 -0.9735
   33POPC   H4S 4418   3.624   1.413   9.602  0.2411  0.3448 -2.1918
   33POPC   C25 4419   3.517   1.441   9.419  0.2483 -0.9474 -0.1593
   33POPC   H5R 4420   3.553   1.545   9.407  1.4806 -1.3966 -0.5315
   33POPC   H5S 4421   3.410   1.445   9.389  0.2410 -2.1687 -0.3385
   33POPC   C26 4422   3.578   1.343   9.309 -0.4326  0.9362 -0.8058
   33POPC   H6R 4423   3.534   1.241   9.324  0.1367  0.8485  0.3750
   33POPC   H6S 4424   3.687   1.329   9.320 -0.5974 -2.0231 -1.8071
   33POPC   C27 4425   3.551   1.399   9.167  0.2978 -0.9086 -0.5510
   33POPC   H7R 4426   3.601   1.498   9.157  1.0284 -0.8978  2.3207
   33POPC   H7S 4427   3.442   1.421   9.164  0.6813  1.1265 -1.2872
   33POPC   C28 4428   3.594   1.304   9.051 -0.2107 -0.0166 -0.5815
   33POPC   H8R 4429   3.576   1.359   8.957  1.1337  0.8334 -0.3631
   33POPC   H8S 4430   3.531   1.212   9.049  1.2091 -1.0091 -1.0154
   33POPC   C29 4431   3.735   1.257   9.055  0.0392  0.2066 -0.3066
   33POPC   H91 4432   3.813   1.333   9.069  0.4814 -0.0391 -1.3616
   33POPC  C210 4433   3.779   1.131   9.065  0.0926  0.2370  0.7713
   33POPC  H101 4434   3.887   1.118   9.086 -0.2323 -2.3255  1.2846
   33POPC  C211 4435   3.702   1.007   9.086 -0.3120  0.4078  0.2490
   33POPC  H11R 4436   3.715   0.941   8.997  1.1550 -2.2231  2.2449
   33POPC  H11S 4437   3.593   1.021   9.098 -0.3729 -0.1677  0.4403
   33POPC  C212 4438   3.765   0.936   9.213  0.4785  0.3347  0.4087
   33POPC  H12R 4439   3.875   0.945   9.199  0.3380  1.9098  0.1503
   33POPC  H12S 4440   3.733   0.829   9.210  1.3082  0.1051 -1.2875
   33POPC  C213 4441   3.722   1.000   9.347 -0.0946 -0.3044  0.2834
   33POPC  H13R 4442   3.614   0.974   9.351  0.0505 -0.7882  1.3597
   33POPC  H13S 4443   3.732   1.111   9.345  3.0966 -0.5203  0.0679
   33POPC  C214 4444   3.802   0.936   9.463  0.1196 -0.2970 -0.9300
   33POPC  H14R 4445   3.909   0.965   9.473  0.4621 -2.1186  1.5907
   33POPC  H14S 4446   3.791   0.826   9.461  0.1679 -0.3208 -0.1784
   33POPC  C215 4447   3.760   0.991   9.603  0.7079  0.3884 -0.4892
   33POPC  H15R 4448   3.774   1.101   9.603 -1.0765  0.6632  0.8252
   33POPC  H15S 4449   3.837   0.954   9.674  0.7141  1.8498  0.3055
   33POPC  C216 4450   3.629   0.941   9.656  0.3872 -0.1351 -0.4757
   33POPC  H16R 4451   3.617   0.831   9.656 -0.6618 -0.0411 -1.6578
   33POPC  H16S 4452   3.552   0.978   9.585 -1.0283 -2.2490 -0.1268
   33POPC  C217 4453   3.593   0.993   9.795  0.2918  0.3003  0.1834
   33POPC  H17R 4454   3.487   1.026   9.800  0.9350  2.3809  1.2745
   33POPC  H17S 4455   3.659   1.082   9.805 -0.4462  0.6235  2.7315
   33POPC  C218 4456   3.623   0.886   9.904  0.1899 -0.9426 -0.9714
   33POPC  H18R 4457   3.721   0.841   9.876  0.1066 -0.5432 -1.9577
   33POPC  H18S 4458   3.542   0.811   9.896 -1.1062 -0.0114  2.0604
   33POPC  H18T 4459   3.608   0.937  10.001  0.6297  1.1937 -1.9658
   33POPC   C33 4460   4.023   1.290   9.817 -0.3037 -0.1878 -0.4283
   33POPC   H3X 4461   4.100   1.254   9.889 -1.2711  0.0800  0.7917
   33POPC   H3Y 4462   4.028   1.401   9.813 -2.0982 -0.0658 -0.0524
   33POPC   C34 4463   4.059   1.253   9.671  0.4806 -0.3505  0.1090
   33POPC   H4X 4464   4.044   1.144   9.655  0.1914  0.1948 -4.6177
   33POPC   H4Y 4465   4.163   1.286   9.650 -0.3585  1.6554 -1.1866
   33POPC   C35 4466   3.969   1.326   9.577  0.7463 -0.5355 -0.3957
   33POPC   H5X 4467   3.976   1.434   9.600  1.4418 -0.8945  1.1692
   33POPC   H5Y 4468   3.861   1.296   9.578  0.3505  0.8004 -0.9177
   33POPC   C36 4469   4.019   1.319   9.437  0.2988  0.6411  0.2208
   33POPC   H6X 4470   3.987   1.235   9.371 -2.0084  2.0068 -0.5160
   33POPC   H6Y 4471   4.129   1.322   9.451  0.4522 -0.0528 -0.7288
   33POPC   C37 4472   3.989   1.438   9.357 -0.4625  0.1840 -0.3548
   33POPC   H7X 4473   4.023   1.527   9.414  1.8192 -0.8162 -0.0459
   33POPC   H7Y 4474   3.882   1.462   9.335  0.4616  3.4503 -1.9488
   33POPC   C38 4475   4.066   1.441   9.220  1.1472 -0.6035  0.0340
   33POPC   H8X 4476   4.038   1.355   9.156 -0.1937  1.4213 -2.2657
   33POPC   H8Y 4477   4.173   1.434   9.249  1.0338  0.3807  0.7467
   33POPC   C39 4478   4.041   1.565   9.130  0.2175 -0.0749  0.6114
   33POPC   H9X 4479   3.943   1.614   9.142  0.3855 -0.2377  3.2538
   33POPC   H9Y 4480   4.067   1.541   9.024 -0.1394 -0.3547  0.5850
   33POPC  C310 4481   4.151   1.672   9.157 -0.6119 -0.0727 -0.2831
   33POPC  H10X 4482   4.254   1.630   9.156 -0.6857 -0.2573 -0.1865
   33POPC  H10Y 4483   4.130   1.709   9.259 -1.6017  0.1503 -0.5564
   33POPC  C311 4484   4.146   1.785   9.052  0.9203 -0.7417  0.3204
   33POPC  H11X 4485   4.044   1.828   9.058  1.6545  1.0252  0.9606
   33POPC  H11Y 4486   4.168   1.740   8.953  0.7508 -1.8782  0.7796
   33POPC  C312 4487   4.258   1.893   9.071  0.7147 -0.3431  0.0166
   33POPC  H12X 4488   4.355   1.841   9.087  0.3958 -0.8686  0.2940
   33POPC  H12Y 4489   4.243   1.935   9.173  1.2179  1.1660 -0.5109
   33POPC  C313 4490   4.256   1.999   8.958 -0.2149 -0.3105  0.0941
   33POPC  H13X 4491   4.343   2.067   8.968 -1.5044  1.4031  0.2401
   33POPC  H13Y 4492   4.164   2.061   8.969  1.7605  2.8688  0.0026
   33POPC  C314 4493   4.260   1.946   8.817  0.5493  0.4125 -0.3699
   33POPC  H14X 4494   4.169   1.884   8.798 -1.1486  1.3550  3.7475
   33POPC  H14Y 4495   4.341   1.870   8.819 -1.3665 -1.7520 -0.8446
   33POPC  C315 4496   4.284   2.049   8.706  0.0411 -0.1231 -0.3649
   33POPC  H15X 4497   4.380   2.102   8.723  1.9983 -3.2980 -0.6690
   33POPC  H15Y 4498   4.198   2.120   8.704  1.6793  1.9349 -0.5838
   33POPC  C316 4499   4.307   1.989   8.569  0.0343  0.4619  0.5816
   33POPC  H16X 4500   4.229   1.913   8.548  0.2535  0.7076 -1.2862
   33POPC  H16Y 4501   4.404   1.942   8.545 -0.9108 -0.0685 -2.6542
   33POPC  H16Z 4502   4.281   2.064   8.491  0.7829  1.9766  1.7400
   34POPC     N 4503   1.419   1.188  10.814 -0.4226  0.3044  0.0562
   34POPC   C12 4504   1.379   1.062  10.731  0.0446  0.4955  0.1945
   34POPC  H12A 4505   1.418   1.081  10.632  0.8031 -1.4913  0.0593
   34POPC  H12B 4506   1.273   1.057  10.712  0.1608  0.9119 -0.5855
   34POPC   C13 4507   1.351   1.308  10.758  0.0394 -0.4561 -0.0718
   34POPC  H13A 4508   1.378   1.396  10.814 -1.5657 -0.5240  0.8751
   34POPC  H13B 4509   1.385   1.330  10.658  0.1735  1.0735  0.2833
   34POPC  H13C 4510   1.244   1.305  10.776  0.2054 -0.1840  1.0287
   34POPC   C14 4511   1.376   1.167  10.957 -0.0781  0.5305 -0.4518
   34POPC  H14A 4512   1.271   1.143  10.971  0.1293 -1.7551 -2.1616
   34POPC  H14B 4513   1.440   1.099  11.011 -0.1442  1.8829  1.4229
   34POPC  H14C 4514   1.403   1.260  11.005  2.1650  0.5811 -1.6775
   34POPC   C15 4515   1.570   1.220  10.813  0.3476 -0.0760  0.2085
   34POPC  H15A 4516   1.597   1.314  10.860  1.1951  0.5924 -1.5074
   34POPC  H15B 4517   1.601   1.240  10.711  3.2516 -0.1966  0.9799
   34POPC  H15C 4518   1.624   1.133  10.847  1.4482  0.6683  0.4265
   34POPC   C11 4519   1.428   0.927  10.779 -0.4037 -0.0759  0.3824
   34POPC  H11A 4520   1.387   0.859  10.701  0.2966 -1.1656  0.9370
   34POPC  H11B 4521   1.377   0.907  10.876 -0.4579 -0.3289  0.3029
   34POPC     P 4522   1.673   0.898  10.678 -0.1216  0.2452 -0.1084
   34POPC   O13 4523   1.813   0.879  10.735  0.6618  0.1309  0.4204
   34POPC   O14 4524   1.656   1.003  10.583  0.5689  0.6450 -0.1674
   34POPC   O12 4525   1.564   0.925  10.793 -0.6977  0.6135  0.3598
   34POPC   O11 4526   1.619   0.763  10.617 -0.5320  1.0417 -0.1202
   34POPC    C1 4527   1.702   0.700  10.524  0.0763  0.0602  0.4023
   34POPC    HA 4528   1.811   0.714  10.536  0.0054  1.1771 -0.1216
   34POPC    HB 4529   1.685   0.754  10.428  0.1893  1.0463  0.9219
   34POPC    C2 4530   1.662   0.553  10.512 -0.3260 -0.2286  0.1930
   34POPC    HS 4531   1.687   0.507  10.610 -1.4632 -0.6238  0.3111
   34POPC   O21 4532   1.733   0.495  10.403 -0.5630  0.1458 -0.5842
   34POPC   C21 4533   1.850   0.451  10.439  0.7985  0.0344  0.1954
   34POPC   O22 4534   1.905   0.462  10.548  0.6273  0.2144  0.5580
   34POPC   C22 4535   1.902   0.372  10.317  0.7373  0.3291 -0.3687
   34POPC   H2R 4536   1.919   0.436  10.228 -0.2838 -1.5053 -1.9752
   34POPC   H2S 4537   1.822   0.297  10.299 -0.1841  1.3272 -0.4949
   34POPC    C3 4538   1.513   0.535  10.489 -0.4980  0.1742 -0.2433
   34POPC    HX 4539   1.450   0.571  10.573 -0.8395  1.9770 -1.2167
   34POPC    HY 4540   1.493   0.426  10.479 -0.3167  0.2496 -1.7544
   34POPC   O31 4541   1.461   0.592  10.364 -0.2258 -0.4306 -0.7987
   34POPC   C31 4542   1.470   0.512  10.251 -0.3915  0.3810 -0.6244
   34POPC   O32 4543   1.490   0.392  10.248 -0.5485 -0.0532 -0.7908
   34POPC   C32 4544   1.464   0.604  10.125 -0.8096 -0.0169 -0.0597
   34POPC   H2X 4545   1.569   0.629  10.102 -1.2779 -0.3175 -2.9147
   34POPC   H2Y 4546   1.396   0.689  10.149  1.7104  2.0759  0.1203
   34POPC   C23 4547   2.039   0.315  10.353 -0.0311 -0.1145 -0.0026
   34POPC   H3R 4548   2.025   0.237  10.430 -0.2148  1.4022  1.5794
   34POPC   H3S 4549   2.114   0.388  10.389  1.8161 -2.0021  0.1442
   34POPC   C24 4550   2.094   0.238  10.224 -0.6470 -0.9305 -0.0591
   34POPC   H4R 4551   2.117   0.308  10.141 -2.4620 -2.4674 -1.9538
   34POPC   H4S 4552   2.003   0.181  10.196 -3.2427  2.4934  0.8198
   34POPC   C25 4553   2.211   0.151  10.253  0.0650 -0.1854  0.1214
   34POPC   H5R 4554   2.183   0.083  10.336  1.0007  0.3883  0.9321
   34POPC   H5S 4555   2.305   0.203  10.281  0.6101 -0.7433 -0.6474
   34POPC   C26 4556   2.248   0.065  10.129 -0.2264  0.4249  0.0569
   34POPC   H6R 4557   2.160   0.045  10.064 -0.8321  3.5389 -0.2367
   34POPC   H6S 4558   2.283  -0.028  10.178 -1.8797 -0.2800 -0.0275
   34POPC   C27 4559   2.368   0.123  10.053  0.1633 -0.0877  0.2214
   34POPC   H7R 4560   2.458   0.119  10.117  1.7354  3.1041 -1.5484
   34POPC   H7S 4561   2.344   0.230  10.038 -1.5191 -0.2889  1.2375
   34POPC   C28 4562   2.402   0.052   9.922 -0.5493  0.2937 -0.2617
   34POPC   H8R 4563   2.413  -0.058   9.938 -1.1926  0.6594  3.3794
   34POPC   H8S 4564   2.503   0.077   9.883  0.0186 -2.2007 -0.5812
   34POPC   C29 4565   2.290   0.078   9.824  0.1067  0.6092  0.5650
   34POPC   H91 4566   2.207   0.010   9.847  0.7240 -0.4511 -0.2403
   34POPC  C210 4567   2.279   0.142   9.705 -0.1327 -0.8156 -0.4370
   34POPC  H101 4568   2.183   0.129   9.653 -2.0232  2.0200  2.0293
   34POPC  C211 4569   2.380   0.226   9.637  0.4915  1.0708 -0.2262
   34POPC  H11R 4570   2.476   0.209   9.692 -0.1565  1.6998  1.1572
   34POPC  H11S 4571   2.342   0.329   9.655 -1.0578  0.9267 -2.3491
   34POPC  C212 4572   2.377   0.208   9.488 -0.1808 -0.4786  0.0708
   34POPC  H12R 4573   2.390   0.101   9.462 -0.9611 -0.8909  1.3231
   34POPC  H12S 4574   2.461   0.264   9.441 -1.3361  0.6431 -0.7663
   34POPC  C213 4575   2.245   0.259   9.426  0.0296 -0.0499 -0.3077
   34POPC  H13R 4576   2.224   0.365   9.447  0.2992  0.0750 -0.6489
   34POPC  H13S 4577   2.162   0.201   9.471 -0.3841 -0.9480 -2.1453
   34POPC  C214 4578   2.227   0.238   9.277 -0.4196  0.1760 -0.1525
   34POPC  H14R 4579   2.126   0.276   9.251 -0.3934  0.2569 -0.1388
   34POPC  H14S 4580   2.239   0.131   9.252  0.2945  0.4849 -1.1877
   34POPC  C215 4581   2.326   0.322   9.191  0.0097 -0.4410 -0.5774
   34POPC  H15R 4582   2.427   0.312   9.237  0.5497  0.4680 -1.5475
   34POPC  H15S 4583   2.286   0.425   9.188  0.0566 -0.4163 -0.3852
   34POPC  C216 4584   2.327   0.266   9.056 -0.5449 -0.0287  0.5375
   34POPC  H16R 4585   2.238   0.310   9.008  0.8131  0.4174 -1.7260
   34POPC  H16S 4586   2.319   0.156   9.047  0.1871  0.0325 -1.3149
   34POPC  C217 4587   2.436   0.311   8.965 -0.3422 -0.5680 -0.0475
   34POPC  H17R 4588   2.399   0.274   8.867 -0.3466 -0.9611  0.0998
   34POPC  H17S 4589   2.521   0.243   8.987  0.4924 -0.1550 -1.7884
   34POPC  C218 4590   2.469   0.459   8.960 -0.2761  0.6594 -0.1049
   34POPC  H18R 4591   2.391   0.531   8.929 -1.7021 -1.1591 -0.9223
   34POPC  H18S 4592   2.556   0.479   8.894  1.7326 -2.7210  1.2420
   34POPC  H18T 4593   2.500   0.496   9.060  0.2119  1.8164 -0.6674
   34POPC   C33 4594   1.396   0.524  10.008 -0.2101  0.0650  0.6361
   34POPC   H3X 4595   1.291   0.501  10.038 -0.9594  0.7849 -1.2438
   34POPC   H3Y 4596   1.456   0.433   9.988  1.7324  0.5250  3.7322
   34POPC   C34 4597   1.381   0.606   9.886  0.2898 -0.1785  0.8870
   34POPC   H4X 4598   1.471   0.657   9.847 -0.9150  0.8052 -0.7614
   34POPC   H4Y 4599   1.309   0.687   9.911  0.3009 -0.5546  2.2113
   34POPC   C35 4600   1.327   0.535   9.759  0.2081  0.2273  0.4393
   34POPC   H5X 4601   1.223   0.513   9.790 -0.5528  1.5647 -1.0159
   34POPC   H5Y 4602   1.391   0.444   9.750  0.7244  0.6855 -0.6883
   34POPC   C36 4603   1.328   0.617   9.623 -1.1223 -0.3097  0.7477
   34POPC   H6X 4604   1.427   0.661   9.599 -0.8554 -1.5038 -0.4860
   34POPC   H6Y 4605   1.265   0.707   9.635  0.0621  0.4492  1.5126
   34POPC   C37 4606   1.285   0.531   9.504 -0.1170  0.3265  0.5766
   34POPC   H7X 4607   1.177   0.504   9.506 -0.4387  1.0069 -2.4083
   34POPC   H7Y 4608   1.342   0.436   9.506 -1.6125 -0.7008 -1.6872
   34POPC   C38 4609   1.296   0.596   9.367 -0.1325 -0.2673 -1.2583
   34POPC   H8X 4610   1.403   0.619   9.349  1.0599 -1.7149  2.9326
   34POPC   H8Y 4611   1.237   0.690   9.368  0.7175  0.2867  0.3960
   34POPC   C39 4612   1.244   0.510   9.253  0.3752  0.4094 -0.4476
   34POPC   H9X 4613   1.137   0.490   9.276  0.0674  0.4170 -1.7893
   34POPC   H9Y 4614   1.312   0.422   9.251  0.7679  0.5032  2.8395
   34POPC  C310 4615   1.242   0.584   9.121  0.4146 -0.1721 -0.5566
   34POPC  H10X 4616   1.176   0.672   9.138  0.7350 -0.2798  1.5179
   34POPC  H10Y 4617   1.194   0.516   9.047  1.0104 -1.8746  0.5581
   34POPC  C311 4618   1.376   0.634   9.071  0.0424 -0.1635  0.2492
   34POPC  H11X 4619   1.418   0.705   9.145 -4.2533  3.2683 -0.1973
   34POPC  H11Y 4620   1.344   0.696   8.984  0.2545 -0.4518 -0.0350
   34POPC  C312 4621   1.460   0.525   9.007  0.0390 -0.4280 -0.2130
   34POPC  H12X 4622   1.432   0.502   8.902 -0.1772  0.2287 -0.3025
   34POPC  H12Y 4623   1.479   0.444   9.081 -1.9738 -1.0049 -0.2651
   34POPC  C313 4624   1.609   0.570   8.993  0.4296 -0.3447 -0.6813
   34POPC  H13X 4625   1.640   0.635   9.078 -0.9708 -0.1490 -0.2927
   34POPC  H13Y 4626   1.612   0.636   8.904 -0.6326 -0.5991 -0.9165
   34POPC  C314 4627   1.706   0.448   8.975  0.3998 -0.2439  0.5072
   34POPC  H14X 4628   1.677   0.394   8.882  0.7339 -0.0170  0.2690
   34POPC  H14Y 4629   1.699   0.373   9.057  3.3858 -2.4229 -1.0165
   34POPC  C315 4630   1.852   0.500   8.961  0.7343  0.2452  0.3110
   34POPC  H15X 4631   1.870   0.562   9.051  0.0550 -0.0616  0.6649
   34POPC  H15Y 4632   1.868   0.559   8.868  1.4829 -0.2605  0.1078
   34POPC  C316 4633   1.953   0.388   8.949  0.5890 -0.2009 -0.6852
   34POPC  H16X 4634   1.934   0.315   8.869 -1.0766  0.7989 -1.2425
   34POPC  H16Y 4635   1.954   0.323   9.039  2.4828 -0.3790 -0.7848
   34POPC  H16Z 4636   2.054   0.428   8.923 -0.3707  1.4123 -2.1231
   35POPC     N 4637   1.590   5.592  11.185  0.1764 -0.5151  0.6276
   35POPC   C12 4638   1.521   5.723  11.144  0.4214 -0.3060  0.0565
   35POPC  H12A 4639   1.529   5.797  11.222 -0.8729 -0.4122  0.3270
   35POPC  H12B 4640   1.417   5.693  11.150  0.1170  0.1923 -2.1097
   35POPC   C13 4641   1.738   5.622  11.183 -0.6736 -0.4601 -0.0748
   35POPC  H13A 4642   1.802   5.536  11.171  2.8260  1.7790  0.9148
   35POPC  H13B 4643   1.758   5.669  11.088  2.4360 -1.4996 -0.0400
   35POPC  H13C 4644   1.771   5.673  11.273  0.6279  0.0890 -0.8300
   35POPC   C14 4645   1.554   5.556  11.328 -0.0335  0.0683  0.1164
   35POPC  H14A 4646   1.449   5.533  11.340 -0.0982  0.9951  1.5190
   35POPC  H14B 4647   1.605   5.462  11.344 -0.2557 -0.1572 -0.4561
   35POPC  H14C 4648   1.590   5.632  11.395  2.2629 -2.0125  1.3999
   35POPC   C15 4649   1.550   5.482  11.096 -0.1257  0.1664  0.1592
   35POPC  H15A 4650   1.586   5.489  10.995  0.5910 -0.6295  0.3517
   35POPC  H15B 4651   1.442   5.471  11.094 -0.1094 -0.0502  0.3909
   35POPC  H15C 4652   1.581   5.386  11.134  3.9098  0.5239 -1.7007
   35POPC   C11 4653   1.559   5.789  11.012  0.0257  0.2929  0.3252
   35POPC  H11A 4654   1.482   5.854  10.965  0.0706 -0.4372 -0.7878
   35POPC  H11B 4655   1.568   5.701  10.944  0.6426  1.7709 -1.6267
   35POPC     P 4656   1.712   6.000  11.067 -0.1535  0.1120 -0.3328
   35POPC   O13 4657   1.857   6.033  11.068 -0.1139  0.0830 -0.5745
   35POPC   O14 4658   1.650   6.020  11.200  0.4739 -0.1201 -0.3201
   35POPC   O12 4659   1.693   5.845  11.015  0.5286  0.2491 -0.5354
   35POPC   O11 4660   1.642   6.084  10.956  0.3078  0.4265  0.0154
   35POPC    C1 4661   1.684   6.083  10.817 -0.1052 -0.1186  0.0288
   35POPC    HA 4662   1.777   6.025  10.800 -1.2869 -1.7789 -1.2391
   35POPC    HB 4663   1.699   6.187  10.781 -0.3931 -0.3676 -0.8547
   35POPC    C2 4664   1.577   6.009  10.732 -0.1797 -0.7453  0.4381
   35POPC    HS 4665   1.572   5.904  10.770 -2.0815  0.0296  2.5908
   35POPC   O21 4666   1.615   6.020  10.594 -0.9565 -0.4946 -0.6057
   35POPC   C21 4667   1.724   5.947  10.558 -0.4593 -0.1806 -0.1074
   35POPC   O22 4668   1.777   5.860  10.625  0.0734  0.2531  0.4545
   35POPC   C22 4669   1.764   5.999  10.415 -0.1050 -0.2100 -0.0710
   35POPC   H2R 4670   1.802   6.103  10.424  0.4925 -0.4376  0.0621
   35POPC   H2S 4671   1.674   5.990  10.350 -0.2344 -1.5167  0.2642
   35POPC    C3 4672   1.439   6.070  10.748 -0.3552  0.5901  0.6815
   35POPC    HX 4673   1.438   6.179  10.726  1.2525  0.5816  0.4496
   35POPC    HY 4674   1.406   6.044  10.851 -2.8217 -4.8171 -1.0799
   35POPC   O31 4675   1.347   6.004  10.657  0.0418  0.1269 -0.4878
   35POPC   C31 4676   1.229   6.067  10.646 -0.5228 -0.3694  1.2180
   35POPC   O32 4677   1.193   6.169  10.708  0.2336  0.1964  0.5953
   35POPC   C32 4678   1.146   5.984  10.550  0.0204  0.4151 -0.6926
   35POPC   H2X 4679   1.039   6.002  10.576  0.3381 -2.0101  3.2296
   35POPC   H2Y 4680   1.162   5.877  10.576 -0.0294  0.2785 -1.2242
   35POPC   C23 4681   1.876   5.916  10.360  0.1395 -0.8498  0.0878
   35POPC   H3R 4682   1.859   5.806  10.358 -1.1252 -0.6640 -0.1939
   35POPC   H3S 4683   1.962   5.922  10.430 -1.4924 -2.5223  2.3855
   35POPC   C24 4684   1.913   5.957  10.218 -0.3565  0.4424 -0.5897
   35POPC   H4R 4685   1.950   6.061  10.212 -0.6370  0.5350 -0.7278
   35POPC   H4S 4686   1.817   5.952  10.163 -1.4434  4.9003  0.5693
   35POPC   C25 4687   2.032   5.886  10.153  0.3346  0.5223 -0.5627
   35POPC   H5R 4688   2.027   5.775  10.153  1.0075  0.4787 -0.9969
   35POPC   H5S 4689   2.118   5.917  10.216 -0.5002 -0.2890  1.0133
   35POPC   C26 4690   2.068   5.928  10.015  0.7829  0.3858  0.1957
   35POPC   H6R 4691   2.161   5.870   9.998  0.6833 -0.0909  1.2118
   35POPC   H6S 4692   2.081   6.038  10.017  0.2182  0.5067 -1.4434
   35POPC   C27 4693   1.965   5.884   9.912 -0.2070 -1.0665  0.4714
   35POPC   H7R 4694   1.874   5.945   9.929  1.0646  1.2457 -0.4421
   35POPC   H7S 4695   1.931   5.779   9.926  2.8587 -2.1919  0.3342
   35POPC   C28 4696   2.006   5.905   9.765  0.5000  0.1649 -1.0883
   35POPC   H8R 4697   1.936   5.836   9.713  0.8723  0.7921 -2.4591
   35POPC   H8S 4698   2.110   5.869   9.752 -0.5987 -2.1837 -5.3904
   35POPC   C29 4699   1.993   6.039   9.701  0.4989 -0.0584 -0.4105
   35POPC   H91 4700   1.993   6.119   9.777 -1.6663 -2.5541  2.4793
   35POPC  C210 4701   1.978   6.054   9.571 -1.3217 -0.6122 -0.0277
   35POPC  H101 4702   1.978   6.153   9.522  0.1759 -1.1206 -1.1027
   35POPC  C211 4703   1.978   5.946   9.465  0.2407  0.7085 -0.3220
   35POPC  H11R 4704   1.882   5.943   9.408 -0.1521  1.7129  0.2626
   35POPC  H11S 4705   1.991   5.845   9.508 -0.5538  0.2342 -1.1704
   35POPC  C212 4706   2.101   5.964   9.361  0.3106 -0.0424 -0.3969
   35POPC  H12R 4707   2.197   5.954   9.415 -0.3436 -0.6523  0.6922
   35POPC  H12S 4708   2.101   6.065   9.316  2.1126  0.6695  1.0876
   35POPC  C213 4709   2.093   5.864   9.238 -0.1826 -0.0166  0.1147
   35POPC  H13R 4710   2.083   5.764   9.285  0.9780 -0.8894 -1.3945
   35POPC  H13S 4711   2.192   5.863   9.186  1.3735  0.5128  2.8721
   35POPC  C214 4712   1.977   5.901   9.137  0.9656  0.4313 -0.7447
   35POPC  H14R 4713   1.890   5.932   9.199  0.4975  1.0959 -1.7145
   35POPC  H14S 4714   1.961   5.805   9.084  0.2879  0.8112 -1.2324
   35POPC  C215 4715   2.031   5.999   9.024 -0.0826  0.1018  0.1152
   35POPC  H15R 4716   2.110   5.946   8.968  1.0967 -0.3865  2.1197
   35POPC  H15S 4717   2.073   6.085   9.081  1.1743 -1.3592  1.4859
   35POPC  C216 4718   1.913   6.059   8.954 -0.2390 -0.2982  0.4651
   35POPC  H16R 4719   1.847   6.103   9.032  1.2364  0.0944  1.5250
   35POPC  H16S 4720   1.855   5.988   8.891 -1.8873  1.2123  0.1736
   35POPC  C217 4721   1.943   6.171   8.849  0.5260 -0.2504  0.2350
   35POPC  H17R 4722   1.997   6.130   8.760 -0.7807 -0.2386 -0.5854
   35POPC  H17S 4723   2.020   6.233   8.898  1.0195  0.9895 -1.9819
   35POPC  C218 4724   1.822   6.258   8.801 -0.9855  0.3950  0.0560
   35POPC  H18R 4725   1.840   6.315   8.707  1.8026 -0.7684 -0.2222
   35POPC  H18S 4726   1.794   6.326   8.884 -0.0911  0.7548  0.0727
   35POPC  H18T 4727   1.741   6.186   8.778 -0.0886 -0.4934 -0.3766
   35POPC   C33 4728   1.178   6.015  10.408 -0.1433 -0.1748 -0.1425
   35POPC   H3X 4729   1.288   6.033  10.403  0.1476 -2.0579 -2.0978
   35POPC   H3Y 4730   1.133   6.113  10.381  2.2020  0.4393 -2.1771
   35POPC   C34 4731   1.136   5.905  10.313 -0.3252  0.2881 -0.1447
   35POPC   H4X 4732   1.028   5.888  10.331 -0.3335  1.0528  0.5851
   35POPC   H4Y 4733   1.178   5.808  10.348  0.3458  1.0988  1.4183
   35POPC   C35 4734   1.184   5.926  10.167  1.0602 -0.1632 -0.5085
   35POPC   H5X 4735   1.291   5.900  10.151  1.4641 -0.5230  2.3143
   35POPC   H5Y 4736   1.171   6.031  10.134  1.9140  0.0363 -0.2081
   35POPC   C36 4737   1.102   5.836  10.073  0.1039 -0.3476 -0.7049
   35POPC   H6X 4738   1.006   5.891  10.064  1.4194  1.9465 -1.5378
   35POPC   H6Y 4739   1.081   5.734  10.113 -0.7293  0.1072  0.0313
   35POPC   C37 4740   1.154   5.826   9.926 -0.4035 -0.2492 -0.0899
   35POPC   H7X 4741   1.246   5.763   9.923 -0.1765 -0.1068  2.0643
   35POPC   H7Y 4742   1.178   5.932   9.902  1.8467 -0.2442  1.7865
   35POPC   C38 4743   1.081   5.759   9.810 -0.2711 -0.9297  0.6123
   35POPC   H8X 4744   0.972   5.775   9.811 -0.3356 -1.1870 -0.5636
   35POPC   H8Y 4745   1.099   5.650   9.821  2.2211 -0.9728 -2.3484
   35POPC   C39 4746   1.136   5.815   9.675 -0.4223 -0.4241 -0.3615
   35POPC   H9X 4747   1.229   5.876   9.684 -0.2472 -0.8277  0.6347
   35POPC   H9Y 4748   1.051   5.873   9.634 -0.1480  0.3732  0.1777
   35POPC  C310 4749   1.161   5.695   9.586  0.1173 -0.5289  0.2732
   35POPC  H10X 4750   1.070   5.634   9.571  0.2274 -0.6384  0.0371
   35POPC  H10Y 4751   1.239   5.624   9.622 -0.8198 -0.8254  1.7873
   35POPC  C311 4752   1.211   5.738   9.451  0.0395 -0.9286 -0.0391
   35POPC  H11X 4753   1.304   5.797   9.467 -1.0566  0.5409  1.4162
   35POPC  H11Y 4754   1.137   5.812   9.413  0.7514 -1.1628 -1.9906
   35POPC  C312 4755   1.229   5.623   9.352  0.1172  0.3772  0.1623
   35POPC  H12X 4756   1.152   5.543   9.362  1.8839 -1.6870 -1.6660
   35POPC  H12Y 4757   1.329   5.574   9.362 -0.1453 -0.0834  0.6005
   35POPC  C313 4758   1.218   5.676   9.208  0.4268  0.4929 -0.6720
   35POPC  H13X 4759   1.268   5.599   9.145  0.6361  1.4846 -1.7587
   35POPC  H13Y 4760   1.279   5.769   9.201  1.8280 -0.1567  1.8642
   35POPC  C314 4761   1.070   5.684   9.152  0.3540 -0.9065 -0.6364
   35POPC  H14X 4762   1.015   5.760   9.212  0.7483 -0.6368 -0.6139
   35POPC  H14Y 4763   1.014   5.588   9.156 -1.7358  0.2139 -1.5230
   35POPC  C315 4764   1.060   5.729   9.003 -0.3149 -0.8008 -0.1062
   35POPC  H15X 4765   1.107   5.830   9.003 -3.5748  0.8443 -0.0789
   35POPC  H15Y 4766   0.954   5.752   8.979 -0.0677 -1.0553 -1.5875
   35POPC  C316 4767   1.130   5.633   8.906 -0.7660 -0.3214  0.2801
   35POPC  H16X 4768   1.093   5.530   8.923  1.4159 -1.2273 -0.0905
   35POPC  H16Y 4769   1.240   5.623   8.917 -0.8243 -0.3184  0.9431
   35POPC  H16Z 4770   1.111   5.661   8.801 -1.0338  0.5198  0.5420
   36POPC     N 4771   1.935   4.812  11.162  0.2018 -0.6785 -0.2393
   36POPC   C12 4772   2.069   4.823  11.096  0.1197 -0.1443  0.8689
   36POPC  H12A 4773   2.117   4.727  11.108 -2.5439 -2.0195 -2.0143
   36POPC  H12B 4774   2.114   4.903  11.153 -2.2421  1.9657 -0.0106
   36POPC   C13 4775   1.851   4.930  11.126  0.4452 -0.1909 -0.0838
   36POPC  H13A 4776   1.746   4.911  11.137 -0.2577  3.3325  0.4954
   36POPC  H13B 4777   1.875   4.999  11.206 -2.6222  0.7441  0.1684
   36POPC  H13C 4778   1.872   4.976  11.030 -1.0580  0.0463 -0.3177
   36POPC   C14 4779   1.861   4.684  11.117 -0.1653 -0.6885  0.1128
   36POPC  H14A 4780   1.874   4.680  11.010  0.0781 -0.6361  0.1391
   36POPC  H14B 4781   1.905   4.597  11.162  0.6902  0.3023  1.2464
   36POPC  H14C 4782   1.757   4.680  11.147 -0.6394 -1.0013 -1.4863
   36POPC   C15 4783   1.950   4.812  11.309 -0.9523 -0.5022 -0.7188
   36POPC  H15A 4784   1.856   4.807  11.362 -1.0339  0.3728 -0.7684
   36POPC  H15B 4785   2.006   4.892  11.355 -0.6698 -0.6069 -0.8858
   36POPC  H15C 4786   1.995   4.723  11.351 -1.4286 -0.3604  0.1382
   36POPC   C11 4787   2.082   4.842  10.940 -0.6460 -0.0786 -0.1115
   36POPC  H11A 4788   2.190   4.847  10.914 -0.7477 -1.7217 -1.0096
   36POPC  H11B 4789   2.043   4.939  10.903 -0.6558 -0.7473 -1.9216
   36POPC     P 4790   2.072   4.598  10.841 -0.1431 -0.2215 -0.0070
   36POPC   O13 4791   1.962   4.503  10.848 -0.7373  0.4783  0.2623
   36POPC   O14 4792   2.190   4.575  10.925 -0.3816 -0.1021  0.3686
   36POPC   O12 4793   2.007   4.738  10.871 -0.2640  0.4561  0.1523
   36POPC   O11 4794   2.124   4.604  10.693 -0.2979 -0.3232 -0.1707
   36POPC    C1 4795   2.036   4.665  10.596 -0.0725 -0.1955  0.8861
   36POPC    HA 4796   2.018   4.774  10.613 -0.1164 -0.1592  0.6009
   36POPC    HB 4797   1.933   4.623  10.597 -1.0177  1.9633  0.0886
   36POPC    C2 4798   2.075   4.659  10.449  0.2331 -0.3549 -0.7086
   36POPC    HS 4799   2.071   4.553  10.413 -0.2522 -0.2033 -1.1166
   36POPC   O21 4800   2.197   4.722  10.418  0.3788  0.0524  0.6091
   36POPC   C21 4801   2.263   4.667  10.318 -0.5665  0.1177 -0.4737
   36POPC   O22 4802   2.227   4.578  10.245 -0.7385 -0.0107  0.3219
   36POPC   C22 4803   2.404   4.737  10.320 -0.1587  0.6417  0.2919
   36POPC   H2R 4804   2.449   4.724  10.420  1.2575  0.0197 -0.3964
   36POPC   H2S 4805   2.391   4.847  10.317  0.0451  0.7403  2.2226
   36POPC    C3 4806   1.966   4.723  10.369  0.3120  0.3596 -0.0779
   36POPC    HX 4807   1.974   4.831  10.394 -0.4932  0.8091 -1.6785
   36POPC    HY 4808   1.858   4.707  10.391  0.1661  1.8245  0.3606
   36POPC   O31 4809   1.983   4.710  10.225  0.4514  0.3870  0.0148
   36POPC   C31 4810   1.942   4.586  10.189 -0.0125 -0.1647  0.4412
   36POPC   O32 4811   1.893   4.500  10.270  0.3146  0.0634 -0.3386
   36POPC   C32 4812   1.936   4.576  10.038  0.0875 -0.0912 -0.1336
   36POPC   H2X 4813   2.035   4.597   9.990 -1.6818  2.0429 -3.1730
   36POPC   H2Y 4814   1.863   4.647   9.994 -0.6227  0.1732  1.3932
   36POPC   C23 4815   2.499   4.702  10.200  0.5464 -0.0367  0.3876
   36POPC   H3R 4816   2.456   4.739  10.104  1.5481 -0.8555 -0.4037
   36POPC   H3S 4817   2.511   4.594  10.175 -1.2767  0.2305 -2.0373
   36POPC   C24 4818   2.641   4.758  10.235 -0.0814  0.4837  1.6121
   36POPC   H4R 4819   2.654   4.744  10.344 -1.0962  0.0329  1.6970
   36POPC   H4S 4820   2.644   4.867  10.215  1.3716  0.4099  1.3363
   36POPC   C25 4821   2.756   4.698  10.150  0.2287  0.2550  0.2056
   36POPC   H5R 4822   2.783   4.604  10.203  0.1322  1.8143  3.2126
   36POPC   H5S 4823   2.851   4.755  10.155  1.3883 -1.5870  0.2103
   36POPC   C26 4824   2.733   4.695   9.994 -0.3819  0.3805  0.2538
   36POPC   H6R 4825   2.725   4.798   9.952 -0.4329  0.4867  0.5216
   36POPC   H6S 4826   2.648   4.637   9.953 -0.4059  1.7880 -1.8594
   36POPC   C27 4827   2.851   4.628   9.934  0.3888 -0.3911  0.0211
   36POPC   H7R 4828   2.858   4.531   9.989  0.8834 -0.1552  0.3905
   36POPC   H7S 4829   2.942   4.691   9.948  0.2563 -0.4043  1.0277
   36POPC   C28 4830   2.836   4.612   9.781 -0.5055 -0.1973 -0.3361
   36POPC   H8R 4831   2.825   4.713   9.736  1.1183  0.0018 -0.3404
   36POPC   H8S 4832   2.739   4.559   9.771  0.3127 -2.3101  1.9943
   36POPC   C29 4833   2.941   4.527   9.713  0.1444 -0.0774  0.2863
   36POPC   H91 4834   3.044   4.538   9.751 -0.2234  0.8280  1.0464
   36POPC  C210 4835   2.923   4.439   9.618  0.4688 -0.8719  0.4426
   36POPC  H101 4836   3.015   4.387   9.586  1.3810  1.8986 -1.8559
   36POPC  C211 4837   2.801   4.388   9.552  0.6823 -0.1515  0.1772
   36POPC  H11R 4838   2.706   4.426   9.593 -1.7922 -1.7805 -3.5250
   36POPC  H11S 4839   2.788   4.279   9.568 -0.1210  0.0189  0.7060
   36POPC  C212 4840   2.795   4.399   9.402 -0.5079  0.5445 -0.6877
   36POPC  H12R 4841   2.712   4.332   9.371 -1.2507  0.6904  0.8613
   36POPC  H12S 4842   2.890   4.358   9.363 -1.0712 -0.2802 -1.2280
   36POPC  C213 4843   2.772   4.535   9.355 -0.2474 -0.4428 -0.1025
   36POPC  H13R 4844   2.844   4.606   9.400 -0.7730 -0.0950  0.1833
   36POPC  H13S 4845   2.670   4.568   9.380 -0.0275 -0.4459  0.8142
   36POPC  C214 4846   2.795   4.549   9.209  0.2185 -0.4258 -0.1591
   36POPC  H14R 4847   2.897   4.514   9.186  1.7264  3.0041  0.6099
   36POPC  H14S 4848   2.801   4.658   9.186 -0.5990 -0.0551  1.2521
   36POPC  C215 4849   2.697   4.492   9.107  0.1913  0.2226 -0.1996
   36POPC  H15R 4850   2.605   4.554   9.113  0.5607  1.0160 -2.0499
   36POPC  H15S 4851   2.684   4.383   9.120 -0.4908  0.3013 -0.1832
   36POPC  C216 4852   2.733   4.520   8.954 -0.1056 -0.9386 -0.3659
   36POPC  H16R 4853   2.820   4.453   8.938  0.6040 -0.4009  1.0701
   36POPC  H16S 4854   2.764   4.627   8.945  2.5927 -1.5006  1.0549
   36POPC  C217 4855   2.628   4.494   8.847 -0.5862 -0.4634  0.5845
   36POPC  H17R 4856   2.545   4.564   8.868  0.8538  1.6507 -0.4383
   36POPC  H17S 4857   2.584   4.392   8.849  0.5786 -1.0623 -1.4870
   36POPC  C218 4858   2.677   4.526   8.712  0.2840  0.0223  0.1072
   36POPC  H18R 4859   2.717   4.630   8.712 -0.4988  0.3315  0.1859
   36POPC  H18S 4860   2.607   4.512   8.627  1.5713  1.5621 -1.2650
   36POPC  H18T 4861   2.767   4.466   8.688  2.1053  3.3277 -2.2569
   36POPC   C33 4862   1.884   4.432  10.000 -0.2683 -0.4210 -0.1539
   36POPC   H3X 4863   1.784   4.409  10.041 -0.0047  0.1210  0.8208
   36POPC   H3Y 4864   1.954   4.357  10.043 -1.1977  0.0150  2.2592
   36POPC   C34 4865   1.885   4.397   9.845  0.2608 -0.0993  0.1437
   36POPC   H4X 4866   1.881   4.287   9.830 -1.7503  0.2449 -2.5330
   36POPC   H4Y 4867   1.977   4.443   9.801  0.0494  1.7635  1.4901
   36POPC   C35 4868   1.772   4.453   9.760 -1.2267  0.0971  0.2893
   36POPC   H5X 4869   1.781   4.564   9.770 -2.5062  0.4663 -2.0031
   36POPC   H5Y 4870   1.678   4.415   9.805 -0.7744 -2.5451 -0.8176
   36POPC   C36 4871   1.790   4.411   9.616 -0.3845  0.1393  0.4768
   36POPC   H6X 4872   1.757   4.305   9.611  0.0095  0.0647 -2.1136
   36POPC   H6Y 4873   1.897   4.425   9.589  0.0717 -1.6531  1.2100
   36POPC   C37 4874   1.707   4.480   9.497 -0.5595 -0.0794 -0.2358
   36POPC   H7X 4875   1.706   4.591   9.503  1.4941 -0.0835  1.6031
   36POPC   H7Y 4876   1.601   4.448   9.500 -0.8017  0.7050 -0.1861
   36POPC   C38 4877   1.768   4.447   9.358  0.3374 -0.1796 -0.6192
   36POPC   H8X 4878   1.794   4.339   9.362  0.8989 -0.0194  2.0686
   36POPC   H8Y 4879   1.863   4.505   9.348 -0.1809  0.4131 -2.4675
   36POPC   C39 4880   1.668   4.479   9.246 -0.2702 -0.9781  0.3324
   36POPC   H9X 4881   1.658   4.589   9.250 -1.5639 -1.0406 -0.4060
   36POPC   H9Y 4882   1.570   4.429   9.260 -1.1697  0.7134  0.3398
   36POPC  C310 4883   1.746   4.428   9.119  0.1136 -0.2011 -0.0077
   36POPC  H10X 4884   1.783   4.324   9.131 -1.8403 -0.8636  0.6348
   36POPC  H10Y 4885   1.836   4.488   9.096 -0.5108  0.7510 -0.0587
   36POPC  C311 4886   1.657   4.437   8.989  0.3418  0.0264 -0.4093
   36POPC  H11X 4887   1.649   4.547   8.975  0.6173  0.3646  1.7145
   36POPC  H11Y 4888   1.551   4.411   9.012  1.0386 -0.6915  2.4839
   36POPC  C312 4889   1.715   4.368   8.868 -0.4492 -0.1604 -0.9775
   36POPC  H12X 4890   1.732   4.261   8.892  0.2910 -0.1534 -1.4308
   36POPC  H12Y 4891   1.822   4.395   8.855  0.4421 -2.3699  1.0311
   36POPC  C313 4892   1.639   4.366   8.730 -0.3196 -0.3516 -0.3323
   36POPC  H13X 4893   1.554   4.296   8.744  1.4869 -2.2647  1.8105
   36POPC  H13Y 4894   1.706   4.320   8.654 -0.1071 -1.9060  0.7491
   36POPC  C314 4895   1.592   4.502   8.688  0.3129  0.3648 -0.1960
   36POPC  H14X 4896   1.518   4.542   8.760 -1.8372  2.6979 -3.4606
   36POPC  H14Y 4897   1.542   4.494   8.589  1.8124  2.6050 -1.2407
   36POPC  C315 4898   1.704   4.607   8.673  0.5723 -0.1726  0.1115
   36POPC  H15X 4899   1.747   4.650   8.765  0.8639  1.3670 -0.7119
   36POPC  H15Y 4900   1.651   4.694   8.629 -0.8556 -0.4195  1.2799
   36POPC  C316 4901   1.815   4.557   8.578 -0.3026  0.2798  0.8160
   36POPC  H16X 4902   1.772   4.519   8.483  0.5141  2.5710 -0.5370
   36POPC  H16Y 4903   1.892   4.483   8.607  0.5960  0.9106  0.1009
   36POPC  H16Z 4904   1.885   4.638   8.547 -1.2694  0.6545 -0.4992
   37POPC     N 4905   4.069   5.574   5.895 -0.2105 -0.4476  0.5817
   37POPC   C12 4906   4.092   5.686   5.999 -0.6848  0.0730  0.2246
   37POPC  H12A 4907   4.027   5.672   6.084  1.1335 -2.1977  1.3853
   37POPC  H12B 4908   4.072   5.778   5.947 -0.8397 -1.6036 -2.9444
   37POPC   C13 4909   4.127   5.613   5.762 -0.2158 -0.1905 -0.9900
   37POPC  H13A 4910   4.093   5.552   5.679  1.3148 -0.5830 -1.3709
   37POPC  H13B 4911   4.103   5.716   5.741  0.7500  0.3257  0.3273
   37POPC  H13C 4912   4.235   5.608   5.762 -0.2452 -1.0562 -0.7518
   37POPC   C14 4913   4.139   5.450   5.934  0.6848 -1.1819 -0.2321
   37POPC  H14A 4914   4.082   5.406   6.015 -0.7073  0.4283 -0.2939
   37POPC  H14B 4915   4.151   5.380   5.853 -0.5820 -0.6924 -0.8601
   37POPC  H14C 4916   4.234   5.475   5.979  0.0598  0.4550  0.2262
   37POPC   C15 4917   3.928   5.544   5.870  0.3554 -0.1517  0.2143
   37POPC  H15A 4918   3.917   5.477   5.787  1.3490  0.9021 -0.8163
   37POPC  H15B 4919   3.866   5.632   5.863 -1.5957 -1.5755 -1.2730
   37POPC  H15C 4920   3.895   5.495   5.961  3.4945 -3.9739 -0.4072
   37POPC   C11 4921   4.241   5.715   6.058  0.7606  0.4838  0.3106
   37POPC  H11A 4922   4.296   5.739   5.964 -1.0244  0.9275 -0.6551
   37POPC  H11B 4923   4.278   5.623   6.108  0.7008 -1.0269 -2.2715
   37POPC     P 4924   4.168   5.809   6.294  0.4251  0.1573 -0.0468
   37POPC   O13 4925   4.025   5.778   6.276 -0.3141 -0.6165 -0.1294
   37POPC   O14 4926   4.201   5.932   6.368  0.3460  0.1146 -0.0603
   37POPC   O12 4927   4.223   5.824   6.144 -0.9763  0.1644  0.2855
   37POPC   O11 4928   4.247   5.685   6.351 -0.3638  0.0892  0.2616
   37POPC    C1 4929   4.193   5.549   6.357 -0.6237  0.7257  0.0413
   37POPC    HA 4930   4.265   5.484   6.303  0.7358  0.1583  2.4397
   37POPC    HB 4931   4.095   5.553   6.304 -0.4576 -0.6311 -0.3881
   37POPC    C2 4932   4.185   5.493   6.499 -0.0359 -0.0786 -0.3231
   37POPC    HS 4933   4.143   5.392   6.483  1.0440 -1.2301  3.1038
   37POPC   O21 4934   4.107   5.582   6.585 -0.8391  0.1888 -0.6471
   37POPC   C21 4935   3.985   5.541   6.613  1.2339 -0.4933  0.1863
   37POPC   O22 4936   3.940   5.431   6.581  0.1155 -0.5324 -0.0383
   37POPC   C22 4937   3.910   5.644   6.699 -0.0276 -0.5290 -0.0700
   37POPC   H2R 4938   3.825   5.684   6.641  0.0915  1.0108  0.7775
   37POPC   H2S 4939   3.977   5.731   6.716 -1.2411  0.3251  0.4944
   37POPC    C3 4940   4.324   5.465   6.569  0.2699 -0.0701 -0.8361
   37POPC    HX 4941   4.385   5.558   6.578 -0.9743  0.6225  1.1628
   37POPC    HY 4942   4.385   5.392   6.511 -1.3936 -0.7903 -1.7566
   37POPC   O31 4943   4.291   5.413   6.706  0.4945  0.2057  0.4031
   37POPC   C31 4944   4.282   5.498   6.807 -0.1863  0.1849 -0.6455
   37POPC   O32 4945   4.304   5.619   6.806  0.1592  0.3247 -0.0979
   37POPC   C32 4946   4.217   5.417   6.919 -0.3823  0.7269 -0.5816
   37POPC   H2X 4947   4.273   5.321   6.917 -0.0563  0.8393  1.2101
   37POPC   H2Y 4948   4.111   5.387   6.901 -1.0147  0.6281  2.6524
   37POPC   C23 4949   3.865   5.590   6.834 -0.3881  0.7579  0.1365
   37POPC   H3R 4950   3.954   5.560   6.894 -1.2368 -1.1426  0.5231
   37POPC   H3S 4951   3.797   5.503   6.822  1.9789 -1.2083  0.2754
   37POPC   C24 4952   3.793   5.695   6.915 -0.4627  0.3294 -0.2990
   37POPC   H4R 4953   3.707   5.727   6.852  0.5230  0.4143 -1.6241
   37POPC   H4S 4954   3.856   5.785   6.930  0.5635 -0.5006  0.5318
   37POPC   C25 4955   3.749   5.636   7.048  0.3673 -0.3190 -1.0916
   37POPC   H5R 4956   3.829   5.596   7.114 -0.3197  0.1035  0.0377
   37POPC   H5S 4957   3.680   5.550   7.029 -0.9165 -0.2225  2.3394
   37POPC   C26 4958   3.682   5.757   7.123  0.2972  0.3328  0.4823
   37POPC   H6R 4959   3.620   5.707   7.200 -0.1500  0.8001  0.4281
   37POPC   H6S 4960   3.605   5.798   7.055 -0.3166 -0.1256  0.8937
   37POPC   C27 4961   3.783   5.849   7.184 -0.6737 -0.3224 -0.3910
   37POPC   H7R 4962   3.827   5.913   7.104 -0.6160 -0.6066 -0.5890
   37POPC   H7S 4963   3.864   5.784   7.222 -1.1663 -1.0431 -0.5603
   37POPC   C28 4964   3.727   5.934   7.302  0.1461  0.0476 -0.3861
   37POPC   H8R 4965   3.702   5.856   7.377 -1.4721  0.0316 -0.9022
   37POPC   H8S 4966   3.640   5.989   7.261 -0.9719 -0.0258  1.7831
   37POPC   C29 4967   3.834   6.031   7.343  0.2761  0.6039 -0.0567
   37POPC   H91 4968   3.935   5.990   7.323 -0.1011 -1.0368  1.1339
   37POPC  C210 4969   3.817   6.145   7.409  0.2843 -0.3767  0.9076
   37POPC  H101 4970   3.906   6.206   7.434  1.5637 -1.0464 -1.6576
   37POPC  C211 4971   3.680   6.211   7.443  0.1447  0.0796  0.2432
   37POPC  H11R 4972   3.617   6.142   7.502  0.3663 -0.6415 -0.3520
   37POPC  H11S 4973   3.619   6.232   7.352  1.0575  1.6332 -0.0425
   37POPC  C212 4974   3.709   6.342   7.516 -0.1463 -0.8711  0.0136
   37POPC  H12R 4975   3.620   6.405   7.541  1.1204  1.0960 -0.2263
   37POPC  H12S 4976   3.781   6.401   7.456  0.8304 -1.2534  0.7806
   37POPC  C213 4977   3.766   6.317   7.660 -0.7993 -0.8056 -0.0869
   37POPC  H13R 4978   3.826   6.405   7.692  0.2714 -1.2335 -0.8550
   37POPC  H13S 4979   3.828   6.226   7.654  3.9639  2.0814  0.2870
   37POPC  C214 4980   3.653   6.283   7.761  0.5578  0.3425 -0.1439
   37POPC  H14R 4981   3.603   6.185   7.745 -1.3581  0.8123  2.4426
   37POPC  H14S 4982   3.570   6.356   7.771 -1.0506 -1.5907  1.6489
   37POPC  C215 4983   3.715   6.265   7.903  0.1688 -0.0017  0.6761
   37POPC  H15R 4984   3.757   6.360   7.942 -2.0774  0.1020  3.1189
   37POPC  H15S 4985   3.805   6.201   7.891  1.5159  1.8770  0.3452
   37POPC  C216 4986   3.615   6.210   8.003 -0.8041 -0.1618 -0.5346
   37POPC  H16R 4987   3.529   6.279   8.013 -0.7232 -0.3921  2.8517
   37POPC  H16S 4988   3.661   6.207   8.104 -4.0612 -1.0429  1.0437
   37POPC  C217 4989   3.572   6.060   7.973  0.1784 -0.8069  0.2694
   37POPC  H17R 4990   3.511   6.067   7.881  0.0793  1.9767  0.4614
   37POPC  H17S 4991   3.500   6.037   8.055  0.0781 -0.2278  0.3497
   37POPC  C218 4992   3.688   5.962   7.979 -1.1143  0.3602  0.2072
   37POPC  H18R 4993   3.646   5.860   7.963  1.1216 -0.5480 -0.1696
   37POPC  H18S 4994   3.742   5.956   8.075 -2.1085  0.0873  0.7585
   37POPC  H18T 4995   3.770   5.996   7.912  0.6085 -0.1495  1.9893
   37POPC   C33 4996   4.236   5.477   7.058  0.9815  0.1526  0.2005
   37POPC   H3X 4997   4.155   5.553   7.056  0.1115 -0.6718  1.9690
   37POPC   H3Y 4998   4.332   5.532   7.068  1.8548 -1.4828  0.9929
   37POPC   C34 4999   4.228   5.383   7.169 -0.1856 -0.3428 -0.2175
   37POPC   H4X 5000   4.274   5.287   7.138 -0.2282 -0.6064  0.5206
   37POPC   H4Y 5001   4.121   5.356   7.178 -0.7429  1.0348 -2.0101
   37POPC   C35 5002   4.289   5.441   7.297  0.2695  0.8704 -0.0316
   37POPC   H5X 5003   4.258   5.548   7.304 -0.3318  0.6526  0.7864
   37POPC   H5Y 5004   4.399   5.438   7.288  0.3586  1.2852  0.7821
   37POPC   C36 5005   4.242   5.362   7.425 -0.6554  0.0475  0.0587
   37POPC   H6X 5006   4.326   5.291   7.443  1.1814  1.8726 -0.8969
   37POPC   H6Y 5007   4.157   5.296   7.401  0.3607 -0.9627 -0.8776
   37POPC   C37 5008   4.221   5.442   7.557 -1.0630  0.3639  0.8719
   37POPC   H7X 5009   4.127   5.501   7.549  0.8435  3.6316  0.6635
   37POPC   H7Y 5010   4.299   5.520   7.553 -2.1145  1.3945 -0.6300
   37POPC   C38 5011   4.232   5.342   7.676  0.1478  0.1586 -0.5009
   37POPC   H8X 5012   4.328   5.288   7.663 -1.7946 -3.7863  0.1335
   37POPC   H8Y 5013   4.159   5.258   7.676  0.1680  0.1102  1.1902
   37POPC   C39 5014   4.237   5.407   7.815  0.1674 -0.3555 -0.4100
   37POPC   H9X 5015   4.244   5.320   7.883  0.4180  0.9170  1.2671
   37POPC   H9Y 5016   4.149   5.469   7.843  0.6116  0.6146 -1.0793
   37POPC  C310 5017   4.367   5.483   7.839  0.2430  0.8112  0.4150
   37POPC  H10X 5018   4.372   5.575   7.776  1.1059 -0.7090 -1.8919
   37POPC  H10Y 5019   4.458   5.424   7.813  0.9915  1.7116  0.9542
   37POPC  C311 5020   4.395   5.527   7.980 -0.3749  0.2941 -0.0262
   37POPC  H11X 5021   4.419   5.429   8.028  1.9928 -1.0318 -3.5231
   37POPC  H11Y 5022   4.301   5.567   8.025 -1.6482 -3.1543  0.6904
   37POPC  C312 5023   4.521   5.613   7.993 -0.8569  0.3120 -0.1224
   37POPC  H12X 5024   4.518   5.715   7.948  0.2715  0.7692  0.8020
   37POPC  H12Y 5025   4.601   5.553   7.946 -0.2216  0.1397  1.1517
   37POPC  C313 5026   4.562   5.641   8.140 -0.3814  0.0309  0.4357
   37POPC  H13X 5027   4.655   5.702   8.148 -0.8012  0.6908  0.3321
   37POPC  H13Y 5028   4.588   5.542   8.183  0.2716  0.1100  0.2452
   37POPC  C314 5029   4.463   5.707   8.239 -0.5697  0.0443  0.0093
   37POPC  H14X 5030   4.368   5.661   8.203 -0.6129  0.2679 -0.1621
   37POPC  H14Y 5031   4.451   5.814   8.213 -0.5818 -0.0851 -0.5257
   37POPC  C315 5032   4.487   5.687   8.389  0.2804  0.4513 -0.5431
   37POPC  H15X 5033   4.556   5.770   8.415 -0.2217  1.1550 -1.4129
   37POPC  H15Y 5034   4.547   5.595   8.409  1.9566  2.0997  2.7982
   37POPC  C316 5035   4.377   5.713   8.493 -0.2668 -0.1031  0.1447
   37POPC  H16X 5036   4.294   5.769   8.446 -0.1365  1.1278  1.3199
   37POPC  H16Y 5037   4.404   5.761   8.590 -3.0290  1.4236  0.2385
   37POPC  H16Z 5038   4.322   5.620   8.517 -2.4794  1.1211  0.0831
   38POPC     N 5039   1.780   1.574   5.947 -0.3718 -0.1525  0.5758
   38POPC   C12 5040   1.861   1.664   6.043 -0.2979  0.9398  0.0289
   38POPC  H12A 5041   1.794   1.736   6.088 -1.5435  1.3893 -2.3839
   38POPC  H12B 5042   1.932   1.723   5.988  0.6854  2.2463  2.5365
   38POPC   C13 5043   1.861   1.466   5.876 -0.3910 -0.4794  0.3148
   38POPC  H13A 5044   1.963   1.494   5.856  0.1116 -0.4777  2.6190
   38POPC  H13B 5045   1.875   1.375   5.933  0.6717 -1.1192 -0.9283
   38POPC  H13C 5046   1.813   1.435   5.784  0.0223  0.1131 -0.1109
   38POPC   C14 5047   1.673   1.502   6.018 -0.9741 -0.2375 -0.1085
   38POPC  H14A 5048   1.616   1.439   5.952 -2.2272  0.1277  0.5956
   38POPC  H14B 5049   1.716   1.426   6.082  0.8550  0.0957 -0.8934
   38POPC  H14C 5050   1.598   1.560   6.070 -0.7155 -0.1039  0.1200
   38POPC   C15 5051   1.717   1.662   5.848  0.2360 -0.0472 -0.0530
   38POPC  H15A 5052   1.661   1.738   5.901 -0.3357 -0.8206  0.4722
   38POPC  H15B 5053   1.656   1.593   5.791  2.3646 -1.0131 -1.3174
   38POPC  H15C 5054   1.790   1.708   5.783  1.0979 -1.7148 -0.3237
   38POPC   C11 5055   1.945   1.599   6.167 -0.3573 -0.0351  0.5680
   38POPC  H11A 5056   1.999   1.688   6.208 -0.1381  0.1045  0.0011
   38POPC  H11B 5057   2.017   1.536   6.111  0.3713 -0.1065  1.5648
   38POPC     P 5058   1.763   1.619   6.360 -0.2343 -0.1511 -0.1415
   38POPC   O13 5059   1.659   1.527   6.405 -0.5021  0.0653  0.0877
   38POPC   O14 5060   1.723   1.740   6.290  0.1099 -0.2291 -0.4043
   38POPC   O12 5061   1.856   1.533   6.259  0.1643 -0.0153  0.1771
   38POPC   O11 5062   1.864   1.668   6.477 -0.4639 -0.4270 -0.5178
   38POPC    C1 5063   1.968   1.584   6.530 -0.2008  0.1812  0.0910
   38POPC    HA 5064   2.052   1.644   6.571  0.8835 -1.0190 -0.2991
   38POPC    HB 5065   2.009   1.523   6.447 -3.4399  0.8336 -2.1370
   38POPC    C2 5066   1.909   1.485   6.631  0.1267  0.5496 -0.6317
   38POPC    HS 5067   1.807   1.451   6.606  1.2945 -2.4709 -1.8711
   38POPC   O21 5068   1.910   1.548   6.767 -0.2694  0.1206 -0.3325
   38POPC   C21 5069   1.834   1.482   6.860 -1.2591  0.0124 -0.9052
   38POPC   O22 5070   1.773   1.381   6.843 -0.1892  0.6404  0.1444
   38POPC   C22 5071   1.850   1.549   6.990  0.4920 -0.8964  0.2849
   38POPC   H2R 5072   1.805   1.650   6.987  1.3627 -0.3622  2.8142
   38POPC   H2S 5073   1.959   1.569   6.996  0.7641 -2.3014  0.2777
   38POPC    C3 5074   1.993   1.353   6.632 -0.4812 -0.2307  0.2145
   38POPC    HX 5075   1.998   1.310   6.530 -3.5042 -0.3058  0.0210
   38POPC    HY 5076   1.935   1.281   6.694  0.2279 -2.1232 -1.2129
   38POPC   O31 5077   2.131   1.374   6.675  0.2724  0.1955  0.0106
   38POPC   C31 5078   2.165   1.338   6.800 -0.1627 -0.1195 -0.1192
   38POPC   O32 5079   2.104   1.267   6.879  0.2916 -0.1614  0.1857
   38POPC   C32 5080   2.309   1.384   6.825  0.0085 -0.0137 -0.3391
   38POPC   H2X 5081   2.329   1.478   6.769 -0.6187  0.0597 -0.4464
   38POPC   H2Y 5082   2.383   1.310   6.789 -0.3683  0.5929 -2.5766
   38POPC   C23 5083   1.799   1.469   7.112  0.7855  0.5163  0.5056
   38POPC   H3R 5084   1.837   1.365   7.107  0.8755  0.5398  0.7193
   38POPC   H3S 5085   1.688   1.478   7.102  0.9191  2.6472  0.4252
   38POPC   C24 5086   1.834   1.527   7.248  0.7126  0.1724  0.0249
   38POPC   H4R 5087   1.782   1.625   7.254 -0.3360 -0.4321  1.4876
   38POPC   H4S 5088   1.939   1.555   7.272 -0.2091  1.7606  2.7493
   38POPC   C25 5089   1.772   1.437   7.358 -0.0863 -0.0311  0.3194
   38POPC   H5R 5090   1.830   1.342   7.358  0.1091  0.0860 -0.7882
   38POPC   H5S 5091   1.665   1.419   7.331 -0.0474  2.4592 -1.8177
   38POPC   C26 5092   1.769   1.502   7.494 -0.3322 -0.3600 -0.2786
   38POPC   H6R 5093   1.704   1.592   7.488  0.0411  0.0976  1.8189
   38POPC   H6S 5094   1.876   1.526   7.509 -0.0245 -0.3716 -2.2356
   38POPC   C27 5095   1.717   1.408   7.601 -0.6764  0.4611  0.6804
   38POPC   H7R 5096   1.792   1.327   7.615  0.5243  1.5979  1.0918
   38POPC   H7S 5097   1.623   1.362   7.565 -0.0829  0.5664 -1.1329
   38POPC   C28 5098   1.689   1.466   7.738  0.2851 -0.2209 -0.4829
   38POPC   H8R 5099   1.640   1.393   7.805 -0.7186  0.6005 -0.3022
   38POPC   H8S 5100   1.615   1.545   7.713  1.2715  0.0377 -2.8371
   38POPC   C29 5101   1.805   1.530   7.799 -0.1034 -0.8037 -0.4713
   38POPC   H91 5102   1.845   1.617   7.745 -1.5683 -0.9222 -1.8372
   38POPC  C210 5103   1.874   1.488   7.907 -0.1952  0.4331  0.1971
   38POPC  H101 5104   1.965   1.537   7.944 -0.3021  0.0521  0.9830
   38POPC  C211 5105   1.845   1.368   7.995 -0.0588  0.0139  0.9655
   38POPC  H11R 5106   1.942   1.320   8.021  0.2009  0.8333  1.5564
   38POPC  H11S 5107   1.784   1.299   7.934  2.1623 -0.5444 -0.7475
   38POPC  C212 5108   1.781   1.404   8.128 -0.0392 -0.3507  0.1010
   38POPC  H12R 5109   1.857   1.467   8.180  0.4134 -1.5618  0.9488
   38POPC  H12S 5110   1.779   1.316   8.196  4.1663  1.5024  3.0938
   38POPC  C213 5111   1.646   1.475   8.124 -0.1281 -0.5094 -0.0049
   38POPC  H13R 5112   1.582   1.422   8.051 -0.0649  2.5454 -2.5025
   38POPC  H13S 5113   1.667   1.575   8.080  2.2432 -0.8464  0.2055
   38POPC  C214 5114   1.596   1.489   8.272 -0.2466  0.1091  0.2440
   38POPC  H14R 5115   1.683   1.514   8.335 -0.1264 -1.1561  0.6110
   38POPC  H14S 5116   1.577   1.389   8.319  1.5350  1.1957  3.5917
   38POPC  C215 5117   1.469   1.573   8.288 -0.6170  0.2095  0.0952
   38POPC  H15R 5118   1.442   1.569   8.395 -0.4275 -0.0892  0.1325
   38POPC  H15S 5119   1.383   1.532   8.230  0.3227 -0.7203 -0.6870
   38POPC  C216 5120   1.501   1.720   8.255  0.7327  0.1913 -0.4458
   38POPC  H16R 5121   1.539   1.727   8.150  1.1854 -0.0310 -0.2979
   38POPC  H16S 5122   1.577   1.751   8.330  1.4912  1.1743 -1.5584
   38POPC  C217 5123   1.380   1.821   8.261 -0.3872  0.7667  0.5077
   38POPC  H17R 5124   1.337   1.797   8.361 -1.1004  0.8607  0.2282
   38POPC  H17S 5125   1.306   1.807   8.179  1.0227 -2.7921 -0.3538
   38POPC  C218 5126   1.404   1.969   8.274 -0.0007 -0.6122  0.4245
   38POPC  H18R 5127   1.312   2.020   8.311 -1.1296 -2.2406 -0.0239
   38POPC  H18S 5128   1.425   2.015   8.175  2.0304 -1.8754  0.2285
   38POPC  H18T 5129   1.492   1.981   8.341 -1.6705 -0.4711  2.7329
   38POPC   C33 5130   2.328   1.412   6.974  0.3881 -0.7949 -0.6636
   38POPC   H3X 5131   2.437   1.429   6.992  0.0468 -0.2126  0.9260
   38POPC   H3Y 5132   2.299   1.330   7.043 -0.2823  0.9492  1.1917
   38POPC   C34 5133   2.248   1.547   7.014 -0.0624 -0.1029 -0.5229
   38POPC   H4X 5134   2.146   1.507   7.028 -0.7757  1.5311 -0.8696
   38POPC   H4Y 5135   2.233   1.625   6.936 -0.6381 -0.0150 -0.3209
   38POPC   C35 5136   2.328   1.613   7.132  0.0567 -0.6562  0.4065
   38POPC   H5X 5137   2.274   1.705   7.163 -0.1487 -1.7793  3.7381
   38POPC   H5Y 5138   2.425   1.650   7.092  0.6031  0.0842  2.2812
   38POPC   C36 5139   2.360   1.521   7.251  0.2867 -0.4615 -0.8285
   38POPC   H6X 5140   2.425   1.579   7.320 -1.9676  1.5370 -0.2295
   38POPC   H6Y 5141   2.410   1.427   7.221  0.4594 -0.9495  0.8782
   38POPC   C37 5142   2.233   1.471   7.321  0.1298  0.8442 -0.0753
   38POPC   H7X 5143   2.165   1.435   7.241  0.1173 -1.4877  0.9032
   38POPC   H7Y 5144   2.197   1.557   7.380  0.1192  0.7337  0.0800
   38POPC   C38 5145   2.254   1.355   7.422  0.6278  0.0752 -0.3238
   38POPC   H8X 5146   2.342   1.381   7.485  0.6523  1.9016 -1.0538
   38POPC   H8Y 5147   2.283   1.254   7.386 -0.2937 -0.7352  1.1360
   38POPC   C39 5148   2.128   1.326   7.508 -0.8010  0.8473  0.0079
   38POPC   H9X 5149   2.139   1.219   7.535 -2.2027  0.3044 -1.3808
   38POPC   H9Y 5150   2.036   1.327   7.446 -0.2818 -0.5996 -0.8450
   38POPC  C310 5151   2.105   1.409   7.629  0.2244 -0.1003 -0.8370
   38POPC  H10X 5152   2.009   1.378   7.676  1.4376 -0.2023  1.7738
   38POPC  H10Y 5153   2.092   1.518   7.610  0.9841  0.4730  1.5386
   38POPC  C311 5154   2.229   1.408   7.728 -0.7819  0.2564  0.4535
   38POPC  H11X 5155   2.300   1.479   7.682 -3.1417  1.4452 -1.5666
   38POPC  H11Y 5156   2.275   1.307   7.737 -1.7398 -0.3476 -1.0328
   38POPC  C312 5157   2.203   1.467   7.866  0.1724 -0.4039 -0.1202
   38POPC  H12X 5158   2.126   1.416   7.927  1.5738  1.0809  3.0813
   38POPC  H12Y 5159   2.161   1.570   7.857  0.1840 -0.3605  0.3317
   38POPC  C313 5160   2.322   1.473   7.958 -0.1098 -0.5153  0.2550
   38POPC  H13X 5161   2.394   1.542   7.909 -0.3032 -0.4079  0.1232
   38POPC  H13Y 5162   2.359   1.369   7.969 -2.5542 -1.6809 -1.6443
   38POPC  C314 5163   2.281   1.532   8.099 -0.0579  0.7511  0.7013
   38POPC  H14X 5164   2.196   1.479   8.146 -0.1051 -0.5659 -0.7752
   38POPC  H14Y 5165   2.242   1.636   8.089  0.9899  1.0412 -0.7530
   38POPC  C315 5166   2.393   1.546   8.203  0.3137  0.0331 -0.3379
   38POPC  H15X 5167   2.477   1.605   8.160 -0.4666  1.4227  0.0032
   38POPC  H15Y 5168   2.428   1.443   8.225 -3.5530 -0.6454  4.3567
   38POPC  C316 5169   2.355   1.605   8.338  0.2901 -0.1441 -0.4757
   38POPC  H16X 5170   2.261   1.558   8.374 -0.3923  0.4918 -1.3781
   38POPC  H16Y 5171   2.326   1.712   8.331 -1.0611 -0.3664  1.0265
   38POPC  H16Z 5172   2.441   1.592   8.407  0.9295  0.9241 -1.0502
   39POPC     N 5173   4.458   6.490   6.118  0.2043  0.2386  0.3753
   39POPC   C12 5174   4.411   6.627   6.150 -0.8363 -0.9079 -1.2064
   39POPC  H12A 5175   4.333   6.650   6.080 -0.2700  0.2885 -1.4609
   39POPC  H12B 5176   4.495   6.690   6.124  0.6789 -1.9577  0.8003
   39POPC   C13 5177   4.591   6.458   6.173 -0.1745  0.0639 -0.4901
   39POPC  H13A 5178   4.674   6.521   6.142  0.8509  0.0530  1.9996
   39POPC  H13B 5179   4.597   6.467   6.281 -0.9401 -1.3509 -0.3106
   39POPC  H13C 5180   4.622   6.356   6.160 -0.8693  0.0737 -2.7498
   39POPC   C14 5181   4.353   6.390   6.162 -0.4762 -0.2513  0.0304
   39POPC  H14A 5182   4.403   6.304   6.203 -0.4026  0.1984  0.9213
   39POPC  H14B 5183   4.296   6.429   6.246  0.1837 -1.5629  1.1178
   39POPC  H14C 5184   4.292   6.354   6.081  1.1063 -1.7459 -0.5681
   39POPC   C15 5185   4.467   6.462   5.971 -0.4847  0.4650 -0.0961
   39POPC  H15A 5186   4.368   6.450   5.929 -0.3689  1.2625 -0.6328
   39POPC  H15B 5187   4.526   6.374   5.951  1.2111  1.1180  1.6464
   39POPC  H15C 5188   4.512   6.543   5.914  0.8844 -0.2472 -0.0639
   39POPC   C11 5189   4.342   6.660   6.295 -0.4564  0.6263 -0.0327
   39POPC  H11A 5190   4.249   6.600   6.304 -0.5628  0.9474  1.1551
   39POPC  H11B 5191   4.315   6.768   6.298 -0.6213  0.6387 -1.3726
   39POPC     P 5192   4.528   6.731   6.474 -0.1734  0.1304 -0.0046
   39POPC   O13 5193   4.526   6.857   6.397 -0.2602  0.3062 -0.1532
   39POPC   O14 5194   4.662   6.668   6.498 -0.0594 -0.1819  0.8413
   39POPC   O12 5195   4.427   6.622   6.399 -0.8938 -0.1744  0.4571
   39POPC   O11 5196   4.465   6.746   6.617 -0.4809  0.1350  0.4357
   39POPC    C1 5197   4.474   6.630   6.703 -0.2967  0.2561  0.7001
   39POPC    HA 5198   4.506   6.539   6.649  1.7444  2.2576 -1.7476
   39POPC    HB 5199   4.374   6.620   6.750 -0.7308  0.5977 -0.1269
   39POPC    C2 5200   4.555   6.655   6.836 -0.4427 -0.7391  0.0857
   39POPC    HS 5201   4.661   6.659   6.802 -1.1641 -0.9585 -2.4340
   39POPC   O21 5202   4.534   6.560   6.940 -0.0176  0.3917 -0.6381
   39POPC   C21 5203   4.560   6.432   6.921  0.6990  0.5252  0.0477
   39POPC   O22 5204   4.619   6.381   6.823 -0.3712 -0.3752  0.4795
   39POPC   C22 5205   4.521   6.351   7.054  0.1077  0.3676 -0.0367
   39POPC   H2R 5206   4.555   6.252   7.016 -0.7657 -0.0343  0.2077
   39POPC   H2S 5207   4.411   6.354   7.069  0.1584 -2.4890  1.6472
   39POPC    C3 5208   4.518   6.796   6.886 -0.5389  0.9996 -0.3989
   39POPC    HX 5209   4.416   6.781   6.925 -0.4903  0.5692 -0.4374
   39POPC    HY 5210   4.500   6.874   6.808 -0.0918  2.7300  1.1462
   39POPC   O31 5211   4.610   6.846   6.984  0.4760  0.1012  0.0600
   39POPC   C31 5212   4.555   6.941   7.059 -0.1913 -0.2474  0.0826
   39POPC   O32 5213   4.441   6.978   7.046 -0.0401 -0.4530 -0.6158
   39POPC   C32 5214   4.657   6.988   7.155 -0.2503 -0.0136  0.6015
   39POPC   H2X 5215   4.684   6.899   7.216 -0.4034 -2.4304 -2.6008
   39POPC   H2Y 5216   4.755   7.006   7.105 -1.0870 -1.6720 -1.7884
   39POPC   C23 5217   4.602   6.392   7.178 -0.3758  0.5335 -0.0824
   39POPC   H3R 5218   4.583   6.495   7.213 -1.8257  0.1578  0.2755
   39POPC   H3S 5219   4.710   6.379   7.154 -0.7158 -0.5511 -1.1069
   39POPC   C24 5220   4.586   6.299   7.297 -0.2267  0.0859  0.2356
   39POPC   H4R 5221   4.582   6.192   7.267 -0.3280  0.2410 -0.3238
   39POPC   H4S 5222   4.490   6.332   7.343  1.6105  2.7110  2.4727
   39POPC   C25 5223   4.693   6.309   7.403  0.4863 -0.3169 -0.2226
   39POPC   H5R 5224   4.697   6.414   7.438 -1.3297 -1.1282  2.8183
   39POPC   H5S 5225   4.788   6.278   7.355  0.2109  1.2970 -1.9186
   39POPC   C26 5226   4.662   6.214   7.519  0.4412 -0.5019 -0.3282
   39POPC   H6R 5227   4.668   6.106   7.496  0.1769 -0.5505 -0.1711
   39POPC   H6S 5228   4.562   6.240   7.559  0.1971  0.1027 -1.3030
   39POPC   C27 5229   4.763   6.237   7.632  0.3167 -0.2570  0.5506
   39POPC   H7R 5230   4.782   6.346   7.645 -0.2311 -0.1134  0.1566
   39POPC   H7S 5231   4.864   6.192   7.620  0.4138  0.3506 -1.1002
   39POPC   C28 5232   4.717   6.200   7.780  0.2713  0.3606 -0.0815
   39POPC   H8R 5233   4.625   6.260   7.797  1.3428  1.9155  0.3913
   39POPC   H8S 5234   4.794   6.247   7.843  0.5538  1.5747 -1.2772
   39POPC   C29 5235   4.698   6.051   7.806 -0.2225 -0.8095  0.2663
   39POPC   H91 5236   4.642   6.001   7.726 -0.5829  1.7930 -1.2247
   39POPC  C210 5237   4.754   5.993   7.914  0.3233  0.3095 -0.5868
   39POPC  H101 5238   4.735   5.885   7.910 -2.8123  0.8231 -2.5480
   39POPC  C211 5239   4.851   6.045   8.023 -0.3928  0.0741  0.3303
   39POPC  H11R 5240   4.928   6.115   7.984  0.7011 -1.4841 -0.4333
   39POPC  H11S 5241   4.909   5.955   8.053  0.0248  0.3476  0.3626
   39POPC  C212 5242   4.797   6.109   8.151  0.8590  0.4137 -0.3384
   39POPC  H12R 5243   4.799   6.218   8.131  1.7578  0.3622 -0.5954
   39POPC  H12S 5244   4.874   6.098   8.231 -1.0090  0.9129  1.6139
   39POPC  C213 5245   4.662   6.054   8.204  0.5040 -0.2408 -1.3652
   39POPC  H13R 5246   4.658   5.947   8.232 -0.3561  0.3729  1.1389
   39POPC  H13S 5247   4.575   6.077   8.140  0.0100  0.5414 -0.4480
   39POPC  C214 5248   4.642   6.125   8.343 -0.4968  0.2435  0.8638
   39POPC  H14R 5249   4.652   6.230   8.307 -0.2864 -0.0013  0.1754
   39POPC  H14S 5250   4.732   6.108   8.405 -1.5770  0.3956  2.5244
   39POPC  C215 5251   4.502   6.101   8.415 -0.3968 -0.3141 -0.1790
   39POPC  H15R 5252   4.479   5.993   8.404  2.6659 -1.3627  2.2164
   39POPC  H15S 5253   4.435   6.155   8.345 -0.4040  1.2510  0.9671
   39POPC  C216 5254   4.493   6.151   8.557  0.3298  0.4184 -0.4644
   39POPC  H16R 5255   4.386   6.156   8.584 -0.0502  0.9518 -1.9272
   39POPC  H16S 5256   4.540   6.252   8.561 -0.5139  0.8077 -0.0910
   39POPC  C217 5257   4.565   6.059   8.657  0.0014  0.3166  0.2670
   39POPC  H17R 5258   4.673   6.054   8.632 -0.3732 -0.3614 -1.3246
   39POPC  H17S 5259   4.519   5.958   8.655  0.5292  0.0018  2.0283
   39POPC  C218 5260   4.549   6.118   8.795 -0.1356  0.9726 -0.4527
   39POPC  H18R 5261   4.443   6.129   8.823  0.0212  2.3906 -0.3105
   39POPC  H18S 5262   4.594   6.220   8.801  1.0160  0.4585 -0.0425
   39POPC  H18T 5263   4.601   6.042   8.857 -0.8466 -1.3502 -2.5604
   39POPC   C33 5264   4.606   7.101   7.248  0.2442  0.7004  0.2110
   39POPC   H3X 5265   4.507   7.074   7.290  0.0615 -0.8402 -1.1343
   39POPC   H3Y 5266   4.576   7.190   7.188 -1.8954 -0.1616 -0.0679
   39POPC   C34 5267   4.719   7.140   7.348 -0.2993 -1.0726 -0.3017
   39POPC   H4X 5268   4.783   7.218   7.300 -1.4479  1.0730  1.5281
   39POPC   H4Y 5269   4.780   7.051   7.376  0.7908  0.6191  3.1787
   39POPC   C35 5270   4.664   7.193   7.480  0.4064 -0.1087  0.0352
   39POPC   H5X 5271   4.579   7.261   7.457  0.5319 -0.3749 -1.3285
   39POPC   H5Y 5272   4.726   7.252   7.551 -0.4874  0.6987  0.1746
   39POPC   C36 5273   4.603   7.075   7.563  0.4131 -0.6860 -0.8047
   39POPC   H6X 5274   4.692   7.010   7.573  0.1470 -1.1972 -1.6787
   39POPC   H6Y 5275   4.516   7.031   7.510 -2.0689  1.3063  1.3509
   39POPC   C37 5276   4.550   7.128   7.696  0.0657  0.5725 -0.6198
   39POPC   H7X 5277   4.458   7.189   7.688  1.0451  2.2035  0.0330
   39POPC   H7Y 5278   4.622   7.192   7.752  0.1732  2.3209 -2.6301
   39POPC   C38 5279   4.515   7.009   7.806  0.1062 -0.3760 -0.6163
   39POPC   H8X 5280   4.608   6.950   7.812 -1.2429 -2.4194  3.1578
   39POPC   H8Y 5281   4.437   6.948   7.756 -0.3736 -0.9843  0.8213
   39POPC   C39 5282   4.475   7.049   7.950  0.5265 -0.5579  0.6519
   39POPC   H9X 5283   4.377   7.102   7.949  0.0654 -1.3982 -0.6199
   39POPC   H9Y 5284   4.554   7.117   7.988  1.1679 -2.4298  2.8935
   39POPC  C310 5285   4.457   6.930   8.051 -0.0054 -0.1488  0.3800
   39POPC  H10X 5286   4.549   6.872   8.071 -0.7107 -1.8456 -0.9727
   39POPC  H10Y 5287   4.379   6.863   8.008  0.6125 -2.7208  2.9913
   39POPC  C311 5288   4.405   6.993   8.181  0.2551 -0.6900 -0.7415
   39POPC  H11X 5289   4.366   6.914   8.249  0.6132 -0.5976 -0.4262
   39POPC  H11Y 5290   4.322   7.066   8.168 -0.4541 -0.8961  1.9264
   39POPC  C312 5291   4.516   7.064   8.260  0.0356  0.6654 -0.4075
   39POPC  H12X 5292   4.563   7.139   8.192 -0.3688  0.8053 -0.5388
   39POPC  H12Y 5293   4.594   6.989   8.285 -1.2334 -0.6020 -0.1574
   39POPC  C313 5294   4.456   7.115   8.392 -0.1406 -0.2433  0.3943
   39POPC  H13X 5295   4.396   7.041   8.450 -1.8995  2.1761  1.8333
   39POPC  H13Y 5296   4.388   7.198   8.363 -0.6855 -0.5650  0.7167
   39POPC  C314 5297   4.569   7.158   8.485 -0.6445 -0.2988 -0.0153
   39POPC  H14X 5298   4.645   7.213   8.426 -0.5696 -1.2920 -0.8720
   39POPC  H14Y 5299   4.627   7.077   8.533 -1.5934 -2.3363 -2.1692
   39POPC  C315 5300   4.506   7.239   8.599  0.6121  0.3632  0.2343
   39POPC  H15X 5301   4.586   7.264   8.672 -0.8168  0.2663  1.9087
   39POPC  H15Y 5302   4.432   7.182   8.661 -2.0024  1.5621 -1.5814
   39POPC  C316 5303   4.440   7.374   8.565 -1.8686 -0.1533 -0.2624
   39POPC  H16X 5304   4.491   7.422   8.479 -2.5320 -0.4744 -0.8456
   39POPC  H16Y 5305   4.457   7.439   8.653 -2.8953 -0.1049 -0.0797
   39POPC  H16Z 5306   4.332   7.369   8.540 -1.7858  0.3890 -0.7537
   40POPC     N 5307   3.314   4.307   6.308 -0.3837 -0.4550  0.2350
   40POPC   C12 5308   3.451   4.226   6.297 -0.2709 -0.0150 -0.2151
   40POPC  H12A 5309   3.536   4.287   6.322  0.7543 -0.3743 -2.6161
   40POPC  H12B 5310   3.456   4.184   6.198  0.6041 -2.8161  0.9173
   40POPC   C13 5311   3.207   4.211   6.276  0.5740 -0.4821 -0.4207
   40POPC  H13A 5312   3.209   4.140   6.357  2.2156 -0.2873 -0.2447
   40POPC  H13B 5313   3.112   4.258   6.294  0.8374 -0.5054  1.1582
   40POPC  H13C 5314   3.215   4.161   6.181  2.8779 -1.2910  0.1325
   40POPC   C14 5315   3.297   4.358   6.453  0.0305 -0.5399 -0.9747
   40POPC  H14A 5316   3.201   4.404   6.471  0.6999 -0.2397  2.3997
   40POPC  H14B 5317   3.301   4.280   6.527 -1.4021 -0.6884 -1.0225
   40POPC  H14C 5318   3.385   4.418   6.474  0.4146 -1.7058  0.9490
   40POPC   C15 5319   3.310   4.417   6.210 -0.9583 -0.3725 -0.3236
   40POPC  H15A 5320   3.381   4.496   6.228 -0.7529  0.3197 -3.6027
   40POPC  H15B 5321   3.209   4.454   6.219 -1.2472 -0.9761 -0.9196
   40POPC  H15C 5322   3.313   4.375   6.110 -0.0983 -2.0886  0.3770
   40POPC   C11 5323   3.474   4.102   6.393 -0.2598 -0.1008  0.2107
   40POPC  H11A 5324   3.467   4.134   6.499 -1.3787 -2.2664  0.8607
   40POPC  H11B 5325   3.579   4.073   6.371  0.3871  2.0367  0.2348
   40POPC     P 5326   3.388   3.851   6.392  0.4351  0.4463  0.3834
   40POPC   O13 5327   3.515   3.804   6.337 -0.5294 -0.1629 -0.3010
   40POPC   O14 5328   3.263   3.777   6.355  0.2638 -0.0709  0.1062
   40POPC   O12 5329   3.375   4.004   6.371 -0.4258  0.7219  0.5340
   40POPC   O11 5330   3.403   3.846   6.546  0.1889  0.6295 -0.4076
   40POPC    C1 5331   3.329   3.904   6.650  0.1372  0.0868  0.8038
   40POPC    HA 5332   3.249   3.971   6.611  3.3014  4.2195  0.7378
   40POPC    HB 5333   3.394   3.974   6.706  1.0658 -0.9734  1.0869
   40POPC    C2 5334   3.260   3.805   6.751 -0.2052  0.0682  0.3672
   40POPC    HS 5335   3.192   3.858   6.820  0.8335  0.8924  0.7902
   40POPC   O21 5336   3.359   3.741   6.836  0.1503 -0.3871  0.0497
   40POPC   C21 5337   3.408   3.815   6.934 -1.1347 -0.2865 -0.7169
   40POPC   O22 5338   3.370   3.926   6.964 -0.3026  0.6700 -0.0123
   40POPC   C22 5339   3.520   3.751   7.004 -0.3666 -0.1930  0.2865
   40POPC   H2R 5340   3.529   3.645   6.971  0.4645  0.0938 -0.4368
   40POPC   H2S 5341   3.499   3.751   7.113 -1.0845  0.5288  0.1596
   40POPC    C3 5342   3.170   3.700   6.672 -0.1805 -0.4872  0.2918
   40POPC    HX 5343   3.229   3.646   6.594  0.0454 -0.3769  0.3828
   40POPC    HY 5344   3.091   3.755   6.617 -2.1107 -3.6722 -0.3590
   40POPC   O31 5345   3.117   3.591   6.754 -0.2762  0.1674  0.1823
   40POPC   C31 5346   3.015   3.628   6.825 -0.0181  0.4882 -0.3085
   40POPC   O32 5347   2.972   3.742   6.834 -0.3875 -0.0042 -0.1682
   40POPC   C32 5348   2.973   3.502   6.910 -0.3703 -0.4531  0.7210
   40POPC   H2X 5349   2.981   3.418   6.838 -0.7847  1.4827 -1.7146
   40POPC   H2Y 5350   2.865   3.509   6.936 -0.0640  2.9729  1.4505
   40POPC   C23 5351   3.654   3.831   6.987  0.6240  0.0414  0.7713
   40POPC   H3R 5352   3.650   3.940   6.965  1.1710 -0.4365 -2.0896
   40POPC   H3S 5353   3.692   3.794   6.889  0.0758  1.3227  0.0516
   40POPC   C24 5354   3.759   3.785   7.085  0.4488  0.0403 -0.5026
   40POPC   H4R 5355   3.861   3.810   7.050 -0.3142  3.6094 -0.5623
   40POPC   H4S 5356   3.750   3.676   7.107 -0.1023  0.3100  0.7359
   40POPC   C25 5357   3.756   3.870   7.219 -0.5119 -0.2825 -0.7103
   40POPC   H5R 5358   3.658   3.869   7.271  0.9553 -2.4054  2.3292
   40POPC   H5S 5359   3.782   3.975   7.193 -1.0669  0.1694  0.4642
   40POPC   C26 5360   3.852   3.805   7.318  0.2853 -0.1122  0.6612
   40POPC   H6R 5361   3.954   3.798   7.274 -0.0181 -2.8127  0.2046
   40POPC   H6S 5362   3.824   3.700   7.337 -0.1987 -0.2602 -0.7238
   40POPC   C27 5363   3.870   3.888   7.450  0.3995  0.3413  0.0332
   40POPC   H7R 5364   3.780   3.851   7.504 -0.9574 -1.1642 -3.0004
   40POPC   H7S 5365   3.857   3.993   7.417 -2.4995 -0.1190 -0.6412
   40POPC   C28 5366   4.002   3.858   7.514 -0.1596  0.1869 -0.4279
   40POPC   H8R 5367   4.075   3.886   7.436  2.0162 -0.0953  1.4170
   40POPC   H8S 5368   4.008   3.752   7.547  0.5522 -0.1468 -1.5814
   40POPC   C29 5369   4.029   3.963   7.623  0.4123 -0.1235 -0.1829
   40POPC   H91 5370   4.022   4.065   7.584 -0.1214 -0.6357 -1.4753
   40POPC  C210 5371   4.056   3.934   7.752 -0.4000  0.2130 -0.2061
   40POPC  H101 5372   4.068   4.014   7.826  0.7965  0.4779 -0.6747
   40POPC  C211 5373   4.062   3.797   7.812  0.3470  0.0733 -0.4700
   40POPC  H11R 5374   4.144   3.791   7.888 -0.5743 -0.1531  0.5364
   40POPC  H11S 5375   4.083   3.712   7.743 -0.4673 -1.8661  1.5230
   40POPC  C212 5376   3.931   3.765   7.883 -0.4328 -0.8364 -0.0735
   40POPC  H12R 5377   3.942   3.657   7.907 -1.2949 -0.5739  1.6844
   40POPC  H12S 5378   3.844   3.781   7.817 -0.3379 -1.0066 -0.2407
   40POPC  C213 5379   3.910   3.844   8.020  0.1588  0.2219  0.1579
   40POPC  H13R 5380   3.893   3.951   7.995  1.4393  0.0314 -1.6355
   40POPC  H13S 5381   4.007   3.840   8.074  0.6636  2.7058 -0.4197
   40POPC  C214 5382   3.807   3.784   8.105  0.1532 -0.4482 -0.3306
   40POPC  H14R 5383   3.827   3.675   8.113 -1.7268 -0.7887  0.2407
   40POPC  H14S 5384   3.708   3.786   8.055 -0.0682 -1.3090  0.0545
   40POPC  C215 5385   3.799   3.857   8.240  0.4025 -0.0131 -0.4312
   40POPC  H15R 5386   3.749   3.955   8.225 -2.3098 -1.4588 -1.5577
   40POPC  H15S 5387   3.906   3.874   8.265  0.7310 -2.9477  0.4398
   40POPC  C216 5388   3.745   3.781   8.358  0.3483  0.3128  0.3055
   40POPC  H16R 5389   3.714   3.844   8.444 -0.5250 -0.5573  0.6497
   40POPC  H16S 5390   3.823   3.710   8.391  1.9284  0.9222 -1.8987
   40POPC  C217 5391   3.622   3.692   8.325 -1.0077 -0.0150  0.7379
   40POPC  H17R 5392   3.651   3.630   8.237  1.1544  2.4074 -0.3916
   40POPC  H17S 5393   3.537   3.747   8.279 -0.0727  1.0570  0.2479
   40POPC  C218 5394   3.568   3.608   8.438  0.2925  0.2931 -0.0199
   40POPC  H18R 5395   3.506   3.527   8.394 -0.4239  0.2842  0.9712
   40POPC  H18S 5396   3.498   3.659   8.507 -0.3307 -0.5595 -0.0094
   40POPC  H18T 5397   3.649   3.560   8.497  0.6091  1.1878  0.2935
   40POPC   C33 5398   3.062   3.480   7.030 -0.6238 -0.4865  0.5693
   40POPC   H3X 5399   3.173   3.485   7.020 -0.7005  3.4878  0.2455
   40POPC   H3Y 5400   3.043   3.375   7.063  2.5703 -0.6506  2.2592
   40POPC   C34 5401   3.025   3.573   7.148  0.7698 -0.3420 -0.7166
   40POPC   H4X 5402   2.919   3.549   7.172  0.7961 -0.0312 -0.2824
   40POPC   H4Y 5403   3.018   3.680   7.120 -1.1371  0.1583  1.3782
   40POPC   C35 5404   3.131   3.571   7.254  0.3696 -0.1099  0.2601
   40POPC   H5X 5405   3.222   3.622   7.216  0.3575 -0.7161 -0.6086
   40POPC   H5Y 5406   3.165   3.466   7.266 -0.5816 -0.4010  0.4925
   40POPC   C36 5407   3.096   3.633   7.390  0.7319 -0.9620 -0.0037
   40POPC   H6X 5408   3.003   3.594   7.437  0.3771 -0.7972 -0.5526
   40POPC   H6Y 5409   3.083   3.741   7.369  0.6844 -0.3262  2.8608
   40POPC   C37 5410   3.225   3.623   7.477  0.5182  1.1661 -0.4368
   40POPC   H7X 5411   3.314   3.668   7.430  2.2606 -0.4015  1.1549
   40POPC   H7Y 5412   3.250   3.514   7.477 -0.4309  0.9202  0.7146
   40POPC   C38 5413   3.215   3.667   7.625  0.5442  0.1366  0.1005
   40POPC   H8X 5414   3.155   3.760   7.615 -0.3462 -0.5003 -0.6692
   40POPC   H8Y 5415   3.318   3.695   7.655  0.9929  1.9300 -2.7365
   40POPC   C39 5416   3.150   3.566   7.730 -0.0626 -0.6413  0.0630
   40POPC   H9X 5417   3.226   3.485   7.727  1.8604  1.0400  0.9549
   40POPC   H9Y 5418   3.052   3.536   7.688  0.5391  0.4192 -2.3385
   40POPC  C310 5419   3.146   3.629   7.868 -0.1496 -0.2979  0.4211
   40POPC  H10X 5420   3.069   3.707   7.884  0.0324  0.4636 -2.0073
   40POPC  H10Y 5421   3.240   3.683   7.893 -1.0217  1.1594  0.6520
   40POPC  C311 5422   3.141   3.536   7.984  0.4105 -0.0182 -0.1238
   40POPC  H11X 5423   3.211   3.455   7.958 -1.6214 -1.1753 -2.4578
   40POPC  H11Y 5424   3.037   3.496   7.986  0.1694  0.5964 -0.0210
   40POPC  C312 5425   3.174   3.584   8.127 -0.1208  0.2264  0.5615
   40POPC  H12X 5426   3.113   3.676   8.135  0.0499  0.8602 -3.4025
   40POPC  H12Y 5427   3.279   3.620   8.123  0.1712 -0.7017 -0.8148
   40POPC  C313 5428   3.126   3.484   8.236 -0.3007 -0.3001 -0.4659
   40POPC  H13X 5429   3.201   3.402   8.233 -0.6450 -0.7769  1.9211
   40POPC  H13Y 5430   3.024   3.445   8.212 -0.6661 -0.7281  1.6161
   40POPC  C314 5431   3.114   3.557   8.368  0.5212  0.2002  0.1364
   40POPC  H14X 5432   3.008   3.590   8.375 -0.1275 -1.6949 -0.2093
   40POPC  H14Y 5433   3.173   3.651   8.373  0.2755  0.5382 -2.2931
   40POPC  C315 5434   3.142   3.463   8.488  0.5056 -0.2431 -0.0334
   40POPC  H15X 5435   3.251   3.441   8.485  0.8970  1.6128 -0.8792
   40POPC  H15Y 5436   3.087   3.369   8.464 -0.6375  0.5163 -0.4287
   40POPC  C316 5437   3.076   3.501   8.622 -0.7747 -0.3979  0.2726
   40POPC  H16X 5438   3.110   3.604   8.647 -1.9095  0.8207 -2.7555
   40POPC  H16Y 5439   3.092   3.437   8.711 -2.2792 -1.5437 -0.2467
   40POPC  H16Z 5440   2.967   3.515   8.606 -0.4451 -1.1156 -3.5924
   41CHL1    C3 5441   4.379   1.651  10.134  0.1710  0.5358 -0.0016
   41CHL1    H3 5442   4.448   1.738  10.132  1.3030 -0.3434 -1.8693
   41CHL1    O3 5443   4.330   1.622  10.262  0.0487  0.2896  0.2794
   41CHL1   H3' 5444   4.256   1.563  10.245  1.0121 -0.8119 -0.2303
   41CHL1    C4 5445   4.261   1.681  10.037 -0.3004  0.5128  0.7514
   41CHL1   H4A 5446   4.196   1.593  10.023 -0.2339  0.7609 -1.6051
   41CHL1   H4B 5447   4.200   1.763  10.081 -1.6029  0.2140 -0.4507
   41CHL1    C5 5448   4.320   1.718   9.904 -0.1496  0.7000  0.5758
   41CHL1    C6 5449   4.282   1.840   9.849 -0.1489  0.3295 -0.2466
   41CHL1    H6 5450   4.218   1.912   9.903  0.9382  1.1280  0.0264
   41CHL1    C7 5451   4.326   1.890   9.713  0.1425  0.1484  0.5943
   41CHL1   H7A 5452   4.241   1.925   9.650 -0.3556 -0.7337  0.7647
   41CHL1   H7B 5453   4.402   1.968   9.734 -0.7351  0.9684  0.8042
   41CHL1    C8 5454   4.400   1.775   9.632  0.4490  0.3406  0.0475
   41CHL1    H8 5455   4.322   1.714   9.582  0.5344 -0.8738  1.3227
   41CHL1   C14 5456   4.487   1.842   9.528 -0.8370 -0.0244  0.5424
   41CHL1   H14 5457   4.571   1.885   9.587 -0.3047 -1.8887  1.2399
   41CHL1   C15 5458   4.426   1.950   9.449 -0.3745 -0.3335  1.0161
   41CHL1  H15A 5459   4.335   1.904   9.404  1.0628 -2.8830  0.5788
   41CHL1  H15B 5460   4.396   2.051   9.484  1.5765  0.2910  0.9899
   41CHL1   C16 5461   4.525   1.978   9.330  0.4636 -0.2261 -0.4812
   41CHL1  H16A 5462   4.469   1.990   9.235 -1.1755 -0.2025  0.4585
   41CHL1  H16B 5463   4.587   2.069   9.349 -0.0481 -0.0136  0.2171
   41CHL1   C17 5464   4.620   1.854   9.330 -0.6737  0.6875  0.8649
   41CHL1   H17 5465   4.713   1.886   9.382  0.1737 -0.6555  0.2242
   41CHL1   C13 5466   4.552   1.746   9.429 -0.5534 -0.3726  0.7247
   41CHL1   C18 5467   4.445   1.653   9.359  0.1710  0.3525  0.0504
   41CHL1  H18A 5468   4.394   1.594   9.439  0.9631 -1.1908 -0.5488
   41CHL1  H18B 5469   4.375   1.717   9.301 -0.1579 -0.1540 -0.1190
   41CHL1  H18C 5470   4.502   1.576   9.304  1.9599 -0.8490  3.2860
   41CHL1   C12 5471   4.649   1.660   9.513  0.4440  0.4441  0.3575
   41CHL1  H12A 5472   4.688   1.581   9.445  2.0506 -0.0968  1.8361
   41CHL1  H12B 5473   4.734   1.721   9.548  1.9978 -0.8331 -1.0325
   41CHL1   C11 5474   4.576   1.593   9.634  0.3727 -0.1677 -0.9189
   41CHL1  H11A 5475   4.519   1.509   9.588  1.6454  0.4048 -3.7847
   41CHL1  H11B 5476   4.641   1.545   9.710 -0.9619 -2.2206 -0.9865
   41CHL1    C9 5477   4.487   1.685   9.719  0.2854  0.0721 -0.4467
   41CHL1    H9 5478   4.554   1.754   9.775 -0.7393 -2.0268  3.7074
   41CHL1   C10 5479   4.417   1.617   9.833  0.5564  0.6847 -0.6923
   41CHL1   C19 5480   4.334   1.506   9.777  0.6286 -0.1084  0.1973
   41CHL1  H19A 5481   4.395   1.431   9.723 -0.2470 -0.0585 -0.9109
   41CHL1  H19B 5482   4.262   1.466   9.852  0.9779 -0.9893  0.0798
   41CHL1  H19C 5483   4.261   1.556   9.709  1.4743  0.4007 -0.3601
   41CHL1    C1 5484   4.515   1.558   9.937  0.9172  0.1737  0.6188
   41CHL1   H1A 5485   4.572   1.473   9.893  1.4126  1.1410 -0.6495
   41CHL1   H1B 5486   4.588   1.642   9.945 -0.2709  1.4297 -1.0259
   41CHL1    C2 5487   4.458   1.526  10.075 -0.2613 -0.2817 -0.1397
   41CHL1   H2A 5488   4.538   1.506  10.149 -0.8384  4.3085  2.1063
   41CHL1   H2B 5489   4.384   1.443  10.076  0.0396 -0.5544  1.0211
   41CHL1   C20 5490   4.658   1.820   9.184 -0.0981  0.2735 -0.2093
   41CHL1   H20 5491   4.567   1.800   9.124 -1.3656  1.0898  1.3573
   41CHL1   C21 5492   4.744   1.690   9.181  0.3442  0.1383 -0.4061
   41CHL1  H21A 5493   4.774   1.681   9.074 -2.2265  0.0511 -1.1841
   41CHL1  H21B 5494   4.676   1.607   9.207  0.6944  0.8245  3.1172
   41CHL1  H21C 5495   4.833   1.696   9.248 -0.5462 -1.2024  0.9449
   41CHL1   C22 5496   4.740   1.935   9.119 -0.1250 -0.2083  0.2226
   41CHL1  H22A 5497   4.716   2.037   9.154  0.7183  0.4890 -1.1374
   41CHL1  H22B 5498   4.846   1.916   9.148  0.5372  2.5030 -0.2121
   41CHL1   C23 5499   4.739   1.950   8.958 -0.2041 -0.0853 -0.3958
   41CHL1  H23A 5500   4.748   1.844   8.928  1.6306  0.7272 -3.0792
   41CHL1  H23B 5501   4.641   1.987   8.923  0.9868  1.6592 -2.1044
   41CHL1   C24 5502   4.849   2.046   8.907  0.8601  0.0999  0.0004
   41CHL1  H24A 5503   4.822   2.134   8.969 -0.4188 -0.9656  1.0207
   41CHL1  H24B 5504   4.949   2.025   8.950  0.8164  1.6943  0.9326
   41CHL1   C25 5505   4.857   2.080   8.754  0.1374  0.4474  0.1851
   41CHL1   H25 5506   4.924   2.004   8.709 -0.6308 -0.4179  0.4871
   41CHL1   C26 5507   4.720   2.065   8.685  0.1938  0.2230 -0.2797
   41CHL1  H26A 5508   4.659   2.150   8.722  3.2220  1.5900  1.9817
   41CHL1  H26B 5509   4.731   2.071   8.575 -0.6241 -1.8775 -0.5256
   41CHL1  H26C 5510   4.660   1.975   8.710 -2.4800  2.0412  0.2791
   41CHL1   C27 5511   4.907   2.215   8.730  0.4460 -0.2466  0.3188
   41CHL1  H27A 5512   5.013   2.213   8.762  1.4907 -1.2301 -2.8301
   41CHL1  H27B 5513   4.896   2.255   8.626 -0.3327  0.9608  0.8331
   41CHL1  H27C 5514   4.850   2.295   8.782  0.3111  0.0206 -0.2261
   42CHL1    C3 5515   2.550   2.064   9.939 -0.1679 -0.4199  0.4061
   42CHL1    H3 5516   2.655   2.028   9.941  0.1187  0.1954 -1.4019
   42CHL1    O3 5517   2.498   2.020  10.065 -0.6551 -0.8875  0.0772
   42CHL1   H3' 5518   2.403   2.011  10.060 -0.6066 -1.2848 -0.2027
   42CHL1    C4 5519   2.540   2.217   9.928  0.5323 -0.0358  0.1355
   42CHL1   H4A 5520   2.441   2.261   9.951  0.0928  0.1529 -1.9687
   42CHL1   H4B 5521   2.600   2.266  10.008 -1.2883  2.6470 -0.0024
   42CHL1    C5 5522   2.598   2.266   9.790 -0.4973  0.5717  0.0337
   42CHL1    C6 5523   2.710   2.345   9.781 -0.5265  0.6058 -0.3531
   42CHL1    H6 5524   2.745   2.391   9.875  0.4147  0.4327 -0.6124
   42CHL1    C7 5525   2.778   2.384   9.652 -0.3328  0.5832 -0.2539
   42CHL1   H7A 5526   2.797   2.493   9.651  0.6176  0.4319 -1.2816
   42CHL1   H7B 5527   2.871   2.326   9.636 -0.9019 -0.0660 -1.3906
   42CHL1    C8 5528   2.693   2.343   9.523  0.0314  0.0643 -0.4193
   42CHL1    H8 5529   2.611   2.418   9.515 -0.1338 -0.2925 -3.2828
   42CHL1   C14 5530   2.774   2.343   9.397 -0.1783 -0.1293  0.1711
   42CHL1   H14 5531   2.855   2.270   9.417 -0.4351  0.4269  3.9264
   42CHL1   C15 5532   2.853   2.474   9.373  0.8485 -0.3497 -0.3772
   42CHL1  H15A 5533   2.781   2.558   9.385 -1.1631 -1.6330 -2.4796
   42CHL1  H15B 5534   2.928   2.496   9.451 -1.5237  1.5213  1.5407
   42CHL1   C16 5535   2.895   2.458   9.225 -0.0288 -0.1576  0.4380
   42CHL1  H16A 5536   2.855   2.548   9.175 -1.6904 -0.7227  0.7104
   42CHL1  H16B 5537   3.005   2.447   9.212  0.0170  1.9111 -1.7389
   42CHL1   C17 5538   2.820   2.333   9.170  0.0756  0.7897  0.8645
   42CHL1   H17 5539   2.885   2.243   9.176 -0.6902  0.2872  2.0557
   42CHL1   C13 5540   2.702   2.309   9.270 -0.9802  0.7438 -0.1317
   42CHL1   C18 5541   2.583   2.410   9.241  0.2090  0.4465  0.2506
   42CHL1  H18A 5542   2.617   2.515   9.249 -0.4538  0.6125  1.0417
   42CHL1  H18B 5543   2.551   2.397   9.136 -1.5806 -1.1903  0.9311
   42CHL1  H18C 5544   2.501   2.395   9.314  0.2261 -0.3755  0.1164
   42CHL1   C12 5545   2.640   2.165   9.276 -0.0799 -0.3140  0.3072
   42CHL1  H12A 5546   2.577   2.137   9.189  2.3777 -0.7641 -1.4418
   42CHL1  H12B 5547   2.724   2.094   9.292  0.7129  0.5672  0.1642
   42CHL1   C11 5548   2.553   2.160   9.404 -0.6179  0.9421 -0.0463
   42CHL1  H11A 5549   2.458   2.216   9.393 -0.7802  0.5641 -0.5794
   42CHL1  H11B 5550   2.526   2.052   9.399  3.0751 -0.0729 -0.8817
   42CHL1    C9 5551   2.628   2.205   9.533  0.7291  0.6647  0.1151
   42CHL1    H9 5552   2.707   2.129   9.546 -0.3419 -0.2630  1.5692
   42CHL1   C10 5553   2.547   2.187   9.669 -0.1959  0.1607  0.5551
   42CHL1   C19 5554   2.405   2.241   9.651 -0.2930  0.2345 -0.3340
   42CHL1  H19A 5555   2.354   2.233   9.750  1.6390 -1.4414  0.5984
   42CHL1  H19B 5556   2.410   2.347   9.618 -0.1689  0.0579 -0.8905
   42CHL1  H19C 5557   2.355   2.175   9.577  0.2344  0.2587 -0.7194
   42CHL1    C1 5558   2.534   2.032   9.684 -0.5664  0.6177 -0.0539
   42CHL1   H1A 5559   2.466   1.999   9.603 -1.2278  1.1919  0.2544
   42CHL1   H1B 5560   2.631   1.978   9.678 -1.5630 -1.0704 -2.7237
   42CHL1    C2 5561   2.478   1.997   9.827  0.4585 -0.0361 -0.9310
   42CHL1   H2A 5562   2.500   1.889   9.843  1.4272  0.0576 -1.5432
   42CHL1   H2B 5563   2.368   2.009   9.822  0.2977 -0.7448  0.3906
   42CHL1   C20 5564   2.800   2.343   9.016 -0.2943  1.1706  0.4495
   42CHL1   H20 5565   2.751   2.441   8.998  1.0709  1.6887 -0.5857
   42CHL1   C21 5566   2.711   2.225   8.959 -0.3212  0.2558  0.0625
   42CHL1  H21A 5567   2.755   2.131   8.999  1.8895  0.4857 -1.6390
   42CHL1  H21B 5568   2.716   2.226   8.848 -0.7482  0.6330  0.0403
   42CHL1  H21C 5569   2.607   2.241   8.994 -0.8260  0.2785 -1.3793
   42CHL1   C22 5570   2.935   2.352   8.933 -0.6146 -0.2705  0.1921
   42CHL1  H22A 5571   3.003   2.417   8.993 -0.2845 -0.6403  0.2260
   42CHL1  H22B 5572   2.983   2.252   8.934  0.4408  0.2135  1.3400
   42CHL1   C23 5573   2.915   2.394   8.789 -0.3402  0.4278 -0.6776
   42CHL1  H23A 5574   2.862   2.316   8.730  1.2954 -1.6441  0.4606
   42CHL1  H23B 5575   2.843   2.479   8.784 -1.9442 -0.8879 -0.7320
   42CHL1   C24 5576   3.037   2.426   8.710 -0.1948 -0.3498 -1.0006
   42CHL1  H24A 5577   3.097   2.496   8.771 -0.1759  0.3537 -1.8170
   42CHL1  H24B 5578   3.104   2.337   8.700 -0.6953 -0.6617 -1.6736
   42CHL1   C25 5579   3.010   2.467   8.569 -1.1777  0.2278 -0.3925
   42CHL1   H25 5580   2.960   2.382   8.516 -0.3377 -1.0325  0.7843
   42CHL1   C26 5581   2.903   2.581   8.555 -0.5235 -0.4294  0.3446
   42CHL1  H26A 5582   2.794   2.562   8.547 -0.6020 -0.3178  1.1514
   42CHL1  H26B 5583   2.910   2.644   8.646 -1.1479 -1.8658  1.4151
   42CHL1  H26C 5584   2.936   2.644   8.469 -2.6243  0.3095  0.0385
   42CHL1   C27 5585   3.141   2.500   8.497  0.1310  0.9230  0.4487
   42CHL1  H27A 5586   3.196   2.583   8.546  0.9439  1.8094 -1.8118
   42CHL1  H27B 5587   3.211   2.415   8.485  1.6705  2.0694  0.9370
   42CHL1  H27C 5588   3.126   2.548   8.398 -0.0427 -3.0242 -1.6108
   43CHL1    C3 5589   2.635   1.625  10.002 -0.6339  0.0726 -0.1752
   43CHL1    H3 5590   2.569   1.712   9.980 -0.6028 -0.3192 -1.9789
   43CHL1    O3 5591   2.605   1.579  10.134  0.1242  0.5853  0.7710
   43CHL1   H3' 5592   2.562   1.493  10.139 -1.4900  1.2592 -0.5756
   43CHL1    C4 5593   2.612   1.518   9.896 -0.3755 -0.5634 -0.1793
   43CHL1   H4A 5594   2.667   1.428   9.931 -0.0241  0.3906  1.8700
   43CHL1   H4B 5595   2.503   1.498   9.900 -0.2075 -1.3656  0.6914
   43CHL1    C5 5596   2.661   1.572   9.760  0.4506  0.4724  0.0210
   43CHL1    C6 5597   2.570   1.567   9.664 -0.4590 -0.7718  0.3085
   43CHL1    H6 5598   2.475   1.514   9.684 -0.3064 -0.9714  0.4963
   43CHL1    C7 5599   2.589   1.619   9.521 -0.1117  0.4578  0.1165
   43CHL1   H7A 5600   2.541   1.549   9.449 -2.7745  1.0638  1.1512
   43CHL1   H7B 5601   2.549   1.720   9.497  0.3629  1.8708  4.4896
   43CHL1    C8 5602   2.741   1.646   9.490 -0.2981  0.4621  0.5161
   43CHL1    H8 5603   2.793   1.549   9.479  1.3835  1.2159  1.3914
   43CHL1   C14 5604   2.756   1.729   9.363 -0.1079  0.0891  0.0717
   43CHL1   H14 5605   2.695   1.821   9.374 -2.4731 -1.0818 -2.1754
   43CHL1   C15 5606   2.700   1.656   9.232 -0.3690  0.0629  0.0107
   43CHL1  H15A 5607   2.749   1.556   9.227  2.4942  1.3790 -0.7606
   43CHL1  H15B 5608   2.591   1.645   9.244 -0.0647 -2.8243  0.8103
   43CHL1   C16 5609   2.759   1.749   9.121 -0.5519 -0.2170 -0.4566
   43CHL1  H16A 5610   2.807   1.698   9.034  1.5416 -0.6663  0.8963
   43CHL1  H16B 5611   2.677   1.821   9.103  1.2241  1.9175 -0.3925
   43CHL1   C17 5612   2.862   1.841   9.192 -0.3088 -0.2478 -0.0599
   43CHL1   H17 5613   2.816   1.940   9.211 -1.0012 -0.4862 -0.4632
   43CHL1   C13 5614   2.893   1.774   9.325  0.6135 -0.3917  0.1770
   43CHL1   C18 5615   2.980   1.647   9.288  0.6499  0.0259  0.0814
   43CHL1  H18A 5616   2.949   1.601   9.192 -4.0400  0.5530  1.1382
   43CHL1  H18B 5617   3.086   1.678   9.274  0.6896 -1.1549 -2.7407
   43CHL1  H18C 5618   2.979   1.564   9.362  2.3705 -0.4435 -0.3656
   43CHL1   C12 5619   2.952   1.852   9.440 -0.3067  0.1480 -0.1370
   43CHL1  H12A 5620   3.057   1.875   9.412  0.2742 -2.2575 -0.1821
   43CHL1  H12B 5621   2.894   1.942   9.468 -0.6047 -0.6394  1.9744
   43CHL1   C11 5622   2.953   1.763   9.571 -0.4372  0.1166 -0.5423
   43CHL1  H11A 5623   3.020   1.678   9.545 -0.1407  0.4693 -0.9483
   43CHL1  H11B 5624   3.000   1.818   9.656 -1.9100 -0.5354  0.7468
   43CHL1    C9 5625   2.809   1.715   9.609  0.3926  0.0308 -0.5387
   43CHL1    H9 5626   2.747   1.806   9.622 -2.0305 -1.7290  1.0713
   43CHL1   C10 5627   2.799   1.640   9.742  0.3618  0.2450 -0.5994
   43CHL1   C19 5628   2.905   1.523   9.743  0.2022  1.1697 -0.5326
   43CHL1  H19A 5629   2.888   1.456   9.657  0.4583 -0.8257  0.8978
   43CHL1  H19B 5630   3.010   1.557   9.750  0.5993  0.6518 -3.1211
   43CHL1  H19C 5631   2.884   1.452   9.826  0.0150 -0.4457 -1.9116
   43CHL1    C1 5632   2.825   1.730   9.868 -0.0218 -0.5689 -0.0856
   43CHL1   H1A 5633   2.930   1.769   9.873 -0.5509  1.1509 -1.3171
   43CHL1   H1B 5634   2.776   1.827   9.844  1.1815 -0.1290 -0.9130
   43CHL1    C2 5635   2.782   1.677  10.007  0.8743  0.2068 -0.6880
   43CHL1   H2A 5636   2.775   1.753  10.087  1.1466 -1.1455  0.6711
   43CHL1   H2B 5637   2.859   1.600  10.030  1.3192  0.8582  0.0358
   43CHL1   C20 5638   2.978   1.876   9.097 -0.6226  0.7882 -0.0546
   43CHL1   H20 5639   3.024   1.777   9.074 -2.2619 -0.5714  2.0744
   43CHL1   C21 5640   3.085   1.954   9.177  1.0818 -0.3120 -0.5255
   43CHL1  H21A 5641   3.154   2.006   9.107  0.4680 -1.1938 -1.8320
   43CHL1  H21B 5642   3.149   1.891   9.242 -0.2430  0.8656  2.0673
   43CHL1  H21C 5643   3.035   2.032   9.239  0.7175  0.3092 -1.5734
   43CHL1   C22 5644   2.942   1.946   8.964  0.0733  0.0314 -0.3735
   43CHL1  H22A 5645   2.834   1.919   8.958 -0.0767  0.5461 -0.0428
   43CHL1  H22B 5646   2.954   2.055   8.983  1.8732 -0.2868  0.5186
   43CHL1   C23 5647   3.037   1.906   8.851  0.4940 -0.2084 -0.3944
   43CHL1  H23A 5648   3.139   1.940   8.877  0.6456  0.5942 -1.9679
   43CHL1  H23B 5649   3.028   1.796   8.839  0.3267 -0.3075  0.5500
   43CHL1   C24 5650   2.998   1.974   8.718 -0.1975  0.5286  0.1017
   43CHL1  H24A 5651   2.909   1.921   8.678 -1.2854  2.5285 -0.2670
   43CHL1  H24B 5652   2.980   2.078   8.755 -1.5188 -0.4902  2.5231
   43CHL1   C25 5653   3.108   1.989   8.607 -0.4813 -0.4641  0.6645
   43CHL1   H25 5654   3.198   2.052   8.629 -1.5989  2.1524 -1.6820
   43CHL1   C26 5655   3.169   1.855   8.555 -0.3174  0.1895 -0.0402
   43CHL1  H26A 5656   3.230   1.886   8.468  0.9341 -1.7209  0.0899
   43CHL1  H26B 5657   3.235   1.803   8.628  0.9759  0.7896 -0.7540
   43CHL1  H26C 5658   3.090   1.790   8.512 -0.8650  0.7424  0.1186
   43CHL1   C27 5659   3.045   2.074   8.488 -0.1294 -0.2511  0.2592
   43CHL1  H27A 5660   3.001   2.162   8.540 -0.9383 -1.1791  1.2042
   43CHL1  H27B 5661   3.109   2.094   8.399  1.6400 -0.3970  1.4445
   43CHL1  H27C 5662   2.967   2.003   8.452  1.3110 -0.9480 -1.6862
   44CHL1    C3 5663   5.418   3.654  10.212  0.5515 -0.6125  1.0362
   44CHL1    H3 5664   5.515   3.708  10.205 -0.2432  0.6503 -2.0568
   44CHL1    O3 5665   5.386   3.633  10.349 -0.0010  0.2999  0.3709
   44CHL1   H3' 5666   5.365   3.540  10.356 -2.3807  0.8901  2.5256
   44CHL1    C4 5667   5.313   3.747  10.158  0.1792 -0.8637  0.4480
   44CHL1   H4A 5668   5.211   3.704  10.172 -1.0022  1.3285 -0.7903
   44CHL1   H4B 5669   5.321   3.846  10.209 -0.2405 -0.5680 -0.0451
   44CHL1    C5 5670   5.335   3.772  10.011  0.2274 -0.3474  0.2683
   44CHL1    C6 5671   5.349   3.887   9.955 -0.2005 -0.1464 -0.0246
   44CHL1    H6 5672   5.332   3.970  10.025  2.1550 -1.0146  1.7105
   44CHL1    C7 5673   5.370   3.918   9.806  0.2396  0.1477  0.5469
   44CHL1   H7A 5674   5.306   4.003   9.774  0.4547  0.3874  0.7440
   44CHL1   H7B 5675   5.475   3.944   9.779  0.0910 -0.9081 -1.1840
   44CHL1    C8 5676   5.325   3.796   9.717 -0.2184  0.2560 -0.4863
   44CHL1    H8 5677   5.215   3.782   9.712 -0.2361  0.7867 -3.8682
   44CHL1   C14 5678   5.368   3.808   9.567 -0.4756  0.6884 -0.3443
   44CHL1   H14 5679   5.477   3.788   9.572 -0.3696  1.2663 -0.2685
   44CHL1   C15 5680   5.353   3.945   9.497  0.2097  0.6221 -0.4052
   44CHL1  H15A 5681   5.257   3.998   9.512 -0.1800  0.5098 -2.1922
   44CHL1  H15B 5682   5.433   4.015   9.527  0.8268  0.5369 -1.7590
   44CHL1   C16 5683   5.364   3.897   9.345  0.6412  1.2153  0.2311
   44CHL1  H16A 5684   5.270   3.925   9.293 -0.5311 -1.8304  0.5075
   44CHL1  H16B 5685   5.456   3.939   9.298  1.8844 -0.6478  0.8818
   44CHL1   C17 5686   5.376   3.743   9.350 -0.5156  0.1922  0.0636
   44CHL1   H17 5687   5.486   3.728   9.357 -0.8573 -2.0122  2.3148
   44CHL1   C13 5688   5.313   3.696   9.477 -0.1957 -0.6341 -0.5350
   44CHL1   C18 5689   5.155   3.704   9.467  0.3221 -0.0552  0.5518
   44CHL1  H18A 5690   5.104   3.692   9.564  1.4263  0.6958  1.2554
   44CHL1  H18B 5691   5.134   3.797   9.409  2.6374  1.0360  1.3243
   44CHL1  H18C 5692   5.123   3.616   9.407 -0.8864  1.0537 -0.4815
   44CHL1   C12 5693   5.371   3.566   9.539 -0.3807  0.6030 -0.0052
   44CHL1  H12A 5694   5.345   3.471   9.488 -0.8224  1.5981 -1.7347
   44CHL1  H12B 5695   5.481   3.581   9.543 -0.3138  0.0053  0.3766
   44CHL1   C11 5696   5.331   3.546   9.687 -0.0493 -0.3721 -0.4189
   44CHL1  H11A 5697   5.220   3.548   9.678 -0.0521 -0.2616 -0.3650
   44CHL1  H11B 5698   5.362   3.447   9.725  0.7584  1.0552  3.0157
   44CHL1    C9 5699   5.380   3.667   9.775  0.3032  0.1129 -0.0088
   44CHL1    H9 5700   5.490   3.674   9.769  0.4605 -2.4508 -1.6370
   44CHL1   C10 5701   5.350   3.643   9.927  0.7965 -0.4425  0.4462
   44CHL1   C19 5702   5.208   3.564   9.936 -0.4611 -0.1901 -0.9791
   44CHL1  H19A 5703   5.187   3.541  10.043  2.4906 -0.7593 -0.4346
   44CHL1  H19B 5704   5.129   3.622   9.885 -0.9515  0.5500  0.5650
   44CHL1  H19C 5705   5.217   3.467   9.883  0.1135 -0.7291  0.0589
   44CHL1    C1 5706   5.461   3.542   9.987  0.5503  0.2993  0.3253
   44CHL1   H1A 5707   5.462   3.447   9.930 -3.0946 -0.5881  1.5210
   44CHL1   H1B 5708   5.561   3.588   9.972  0.3331  0.4227 -0.8892
   44CHL1    C2 5709   5.440   3.523  10.138 -1.0781 -0.7564  0.3488
   44CHL1   H2A 5710   5.527   3.463  10.173 -0.2184  0.6644  0.7278
   44CHL1   H2B 5711   5.351   3.459  10.155 -2.0189  0.7596  1.4330
   44CHL1   C20 5712   5.337   3.661   9.225  0.1319  0.6997  0.1123
   44CHL1   H20 5713   5.230   3.630   9.228  0.3689 -0.1134  0.1620
   44CHL1   C21 5714   5.411   3.515   9.226 -0.2315 -0.4474 -0.0586
   44CHL1  H21A 5715   5.514   3.514   9.269 -0.3232 -1.1403  0.1641
   44CHL1  H21B 5716   5.422   3.480   9.121 -1.1967 -0.6184 -0.1086
   44CHL1  H21C 5717   5.349   3.442   9.282 -2.5471 -0.4554 -2.4379
   44CHL1   C22 5718   5.357   3.739   9.086  0.6701  0.3736 -0.8479
   44CHL1  H22A 5719   5.322   3.844   9.087  0.2163  0.2320  0.7373
   44CHL1  H22B 5720   5.464   3.738   9.056 -0.0100 -0.3113 -3.4833
   44CHL1   C23 5721   5.276   3.674   8.970 -0.0653 -0.2290 -0.1417
   44CHL1  H23A 5722   5.302   3.569   8.948 -1.7981 -0.8186  0.4134
   44CHL1  H23B 5723   5.171   3.665   9.007 -0.7433 -1.9086 -2.2748
   44CHL1   C24 5724   5.273   3.761   8.847 -0.8142 -0.0622 -0.5937
   44CHL1  H24A 5725   5.239   3.862   8.877 -0.8572  0.4559 -2.2895
   44CHL1  H24B 5726   5.367   3.755   8.788 -0.1517 -1.2680  0.5246
   44CHL1   C25 5727   5.163   3.714   8.752  0.6674  0.8281 -0.2818
   44CHL1   H25 5728   5.073   3.698   8.816 -0.0670 -2.5776 -1.9423
   44CHL1   C26 5729   5.137   3.817   8.646  0.1097  0.1820 -0.1484
   44CHL1  H26A 5730   5.215   3.823   8.566 -1.4302  3.3924 -1.6161
   44CHL1  H26B 5731   5.037   3.801   8.600 -1.1517 -1.1777  2.8470
   44CHL1  H26C 5732   5.156   3.922   8.678  0.8279 -0.3572  1.2564
   44CHL1   C27 5733   5.202   3.584   8.690  0.6911 -0.8611  0.4181
   44CHL1  H27A 5734   5.113   3.549   8.633  0.0061 -0.2248  1.0791
   44CHL1  H27B 5735   5.293   3.595   8.627  0.6731  0.9383  0.6613
   44CHL1  H27C 5736   5.225   3.499   8.759  0.1599 -0.2789  1.3273
   45CHL1    C3 5737   1.284   1.204  10.288 -0.4516  0.7645  0.1168
   45CHL1    H3 5738   1.247   1.309  10.280 -0.8990  0.5533 -0.6885
   45CHL1    O3 5739   1.324   1.174  10.423  0.4767 -0.8190 -0.1688
   45CHL1   H3' 5740   1.257   1.216  10.478  0.6475  1.5491 -1.6247
   45CHL1    C4 5741   1.174   1.108  10.227  0.1018  0.0937 -0.7024
   45CHL1   H4A 5742   1.200   1.000  10.233 -0.0054 -0.0232 -1.9564
   45CHL1   H4B 5743   1.077   1.132  10.274  0.3532  1.0195 -0.6530
   45CHL1    C5 5744   1.161   1.135  10.082  0.5850  0.2814  0.8050
   45CHL1    C6 5745   1.044   1.169  10.018  0.6432  0.2516 -0.2186
   45CHL1    H6 5746   0.949   1.191  10.070 -0.2872  2.1419 -2.5294
   45CHL1    C7 5747   1.015   1.199   9.876 -0.8643  0.6356 -0.0333
   45CHL1   H7A 5748   0.962   1.116   9.824  0.6501  0.7299 -1.8210
   45CHL1   H7B 5749   0.943   1.283   9.870  0.6117  2.0322  1.2803
   45CHL1    C8 5750   1.150   1.222   9.811 -0.1945 -0.3884  0.5425
   45CHL1    H8 5751   1.199   1.318   9.837 -0.3032 -0.8729  2.6844
   45CHL1   C14 5752   1.150   1.238   9.656  0.8538 -0.1656 -0.1837
   45CHL1   H14 5753   1.067   1.305   9.626  2.0957  1.9271  0.8731
   45CHL1   C15 5754   1.263   1.321   9.597  0.4966  0.8822 -0.1842
   45CHL1  H15A 5755   1.277   1.419   9.648  2.1147  1.1178 -1.0136
   45CHL1  H15B 5756   1.356   1.270   9.630 -1.2367 -1.5216  1.3890
   45CHL1   C16 5757   1.246   1.313   9.443  0.6778  0.0080 -0.5257
   45CHL1  H16A 5758   1.173   1.388   9.406  1.1554  0.6407 -0.1929
   45CHL1  H16B 5759   1.340   1.335   9.388  0.0732  0.8543 -1.2443
   45CHL1   C17 5760   1.194   1.166   9.428  0.0123 -0.0698  0.0226
   45CHL1   H17 5761   1.290   1.111   9.417 -0.6969 -1.2306 -0.5700
   45CHL1   C13 5762   1.128   1.116   9.566 -0.2938 -0.1133  1.1817
   45CHL1   C18 5763   0.979   1.084   9.547  0.3183 -0.6920 -0.4466
   45CHL1  H18A 5764   0.932   1.054   9.643 -1.8902  0.9094 -0.9452
   45CHL1  H18B 5765   0.922   1.177   9.527 -0.2918 -0.1568  3.0764
   45CHL1  H18C 5766   0.975   0.994   9.482  2.6457 -0.2272 -1.3409
   45CHL1   C12 5767   1.211   0.995   9.618  0.3137 -0.5778 -0.0997
   45CHL1  H12A 5768   1.173   0.902   9.570 -1.6408 -0.1435  0.4919
   45CHL1  H12B 5769   1.318   0.998   9.588 -0.3261 -0.6329 -2.5841
   45CHL1   C11 5770   1.214   0.986   9.765 -0.2593  0.1306  0.5205
   45CHL1  H11A 5771   1.109   0.955   9.788 -1.0751  1.2282 -1.4709
   45CHL1  H11B 5772   1.277   0.898   9.789 -0.2277 -0.0768 -0.3093
   45CHL1    C9 5773   1.255   1.116   9.846  0.7923  0.1401 -0.2906
   45CHL1    H9 5774   1.349   1.149   9.797  0.2657  0.3835 -1.1673
   45CHL1   C10 5775   1.282   1.108   9.998  0.2760 -0.7617 -0.2308
   45CHL1   C19 5776   1.348   0.972  10.021  0.2325  0.3293 -0.2825
   45CHL1  H19A 5777   1.410   0.976  10.113 -1.3171  1.3629  0.7769
   45CHL1  H19B 5778   1.269   0.895  10.037 -1.6896  2.0264 -1.2175
   45CHL1  H19C 5779   1.415   0.930   9.943 -0.6332 -0.3110 -0.7087
   45CHL1    C1 5780   1.378   1.226  10.045 -0.4629  0.0306 -0.4221
   45CHL1   H1A 5781   1.477   1.225   9.995  1.5835  3.1478  3.0585
   45CHL1   H1B 5782   1.335   1.327  10.027  1.5618  0.8084 -1.2321
   45CHL1    C2 5783   1.415   1.214  10.196  0.0187 -0.8227  0.2841
   45CHL1   H2A 5784   1.468   1.306  10.227  0.9768 -1.2751  0.0113
   45CHL1   H2B 5785   1.481   1.127  10.219  0.5183 -0.4806  0.1530
   45CHL1   C20 5786   1.107   1.147   9.296 -0.6670 -0.0850 -0.0834
   45CHL1   H20 5787   1.001   1.166   9.323 -0.9861 -1.4312 -0.3133
   45CHL1   C21 5788   1.130   0.998   9.249 -0.0753  0.4222 -0.7534
   45CHL1  H21A 5789   1.239   0.979   9.246  0.0031 -0.6238  3.2536
   45CHL1  H21B 5790   1.068   0.962   9.164 -0.0184 -1.6719  0.0298
   45CHL1  H21C 5791   1.104   0.931   9.334  0.0239  3.5252  1.8979
   45CHL1   C22 5792   1.154   1.236   9.178  0.2748  0.3518  0.0610
   45CHL1  H22A 5793   1.136   1.344   9.196  1.3171  1.3290 -3.7881
   45CHL1  H22B 5794   1.264   1.227   9.174  0.0853 -2.4803 -2.9676
   45CHL1   C23 5795   1.104   1.209   9.042 -0.4192  0.6519  0.0613
   45CHL1  H23A 5796   1.159   1.126   8.993  0.2134  1.6566 -0.9700
   45CHL1  H23B 5797   0.995   1.191   9.030  0.0861 -1.8964 -1.7734
   45CHL1   C24 5798   1.128   1.341   8.957  0.2471 -0.2043  0.2493
   45CHL1  H24A 5799   1.058   1.422   8.985 -0.2298 -0.1208 -1.0980
   45CHL1  H24B 5800   1.225   1.382   8.989  0.0650  1.0794 -0.7803
   45CHL1   C25 5801   1.123   1.332   8.803 -0.4257  0.5837 -0.0773
   45CHL1   H25 5802   1.188   1.246   8.776 -0.7776  0.5467 -0.8323
   45CHL1   C26 5803   0.980   1.296   8.755 -0.0328 -0.6818  0.4268
   45CHL1  H26A 5804   0.921   1.386   8.783 -0.3621  0.0883 -2.4241
   45CHL1  H26B 5805   0.969   1.277   8.646  1.6313 -0.4662  0.1888
   45CHL1  H26C 5806   0.949   1.207   8.815  0.3103 -0.6886  0.5989
   45CHL1   C27 5807   1.170   1.457   8.741  0.5371 -0.1398 -0.0081
   45CHL1  H27A 5808   1.105   1.547   8.740  0.9297  0.1728  1.3888
   45CHL1  H27B 5809   1.265   1.487   8.790 -0.2935  3.0144 -0.0887
   45CHL1  H27C 5810   1.190   1.432   8.634 -2.6524  2.9267 -1.5386
   46CHL1    C3 5811   3.720   2.991  10.210  1.2259  0.4521  0.5199
   46CHL1    H3 5812   3.617   2.994  10.169  0.9687  0.4687  1.1575
   46CHL1    O3 5813   3.721   2.946  10.344  0.0624  0.7086 -0.0445
   46CHL1   H3' 5814   3.703   3.023  10.398 -0.4006  0.2098  0.5185
   46CHL1    C4 5815   3.796   2.896  10.112  0.8551  0.3289  0.0839
   46CHL1   H4A 5816   3.897   2.894  10.159  0.4649  1.8076  1.0589
   46CHL1   H4B 5817   3.749   2.795  10.112 -0.7572  1.0441  0.2411
   46CHL1    C5 5818   3.809   2.953   9.972  0.8308  0.2849  0.0323
   46CHL1    C6 5819   3.754   2.884   9.871 -0.1681  0.1691 -0.4664
   46CHL1    H6 5820   3.716   2.783   9.897  1.1396  0.0425  1.1156
   46CHL1    C7 5821   3.752   2.929   9.730  0.2572 -0.7146 -0.5414
   46CHL1   H7A 5822   3.783   2.843   9.666 -1.6909 -2.4229  0.7198
   46CHL1   H7B 5823   3.646   2.949   9.706  0.6481  1.0856 -0.9313
   46CHL1    C8 5824   3.850   3.053   9.704 -0.0987 -0.2964 -1.2140
   46CHL1    H8 5825   3.956   3.020   9.692 -0.6122 -1.7536 -2.0047
   46CHL1   C14 5826   3.818   3.131   9.567 -0.8622  0.3048 -0.0331
   46CHL1   H14 5827   3.715   3.170   9.582 -0.4687  1.9108 -1.2576
   46CHL1   C15 5828   3.811   3.061   9.432  0.4770 -0.4682  0.2527
   46CHL1  H15A 5829   3.909   3.015   9.407 -0.4223 -1.2152 -2.2037
   46CHL1  H15B 5830   3.733   2.981   9.426 -0.0323  0.1086 -1.1748
   46CHL1   C16 5831   3.797   3.176   9.327 -0.4990 -0.7586  0.1524
   46CHL1  H16A 5832   3.866   3.170   9.240 -4.6999  0.6396 -3.6984
   46CHL1  H16B 5833   3.693   3.188   9.288 -0.0015  3.3788 -0.2772
   46CHL1   C17 5834   3.832   3.308   9.411 -0.3635  0.5182  0.0733
   46CHL1   H17 5835   3.730   3.342   9.439 -0.6909 -1.5178  1.5493
   46CHL1   C13 5836   3.898   3.262   9.540 -0.1803 -0.4954  0.4810
   46CHL1   C18 5837   4.050   3.242   9.512 -0.3193  0.0139  0.5468
   46CHL1  H18A 5838   4.070   3.224   9.404 -2.2672  0.0064  0.1314
   46CHL1  H18B 5839   4.095   3.339   9.541 -1.3856  1.1525 -1.3858
   46CHL1  H18C 5840   4.094   3.163   9.575  2.0294  0.4660 -0.4467
   46CHL1   C12 5841   3.874   3.354   9.661 -0.0464  0.2109  0.3574
   46CHL1  H12A 5842   3.927   3.451   9.657 -1.8385  1.1953 -0.8378
   46CHL1  H12B 5843   3.767   3.385   9.665 -0.0287  0.1267  1.9439
   46CHL1   C11 5844   3.920   3.283   9.791  1.2248  0.2130  0.3255
   46CHL1  H11A 5845   4.028   3.257   9.778  1.1565  0.7544 -1.6349
   46CHL1  H11B 5846   3.904   3.349   9.879 -1.0862 -1.4332  1.2474
   46CHL1    C9 5847   3.843   3.155   9.818  0.3799  0.2704 -0.4674
   46CHL1    H9 5848   3.739   3.192   9.820 -0.0516 -0.9331  0.8767
   46CHL1   C10 5849   3.861   3.096   9.966 -0.4798  0.0058  0.1449
   46CHL1   C19 5850   4.016   3.106  10.001  0.1869  0.0225 -0.1338
   46CHL1  H19A 5851   4.029   3.067  10.104 -0.0095 -0.7762 -0.3956
   46CHL1  H19B 5852   4.083   3.057   9.926  2.4603  0.4357  1.5338
   46CHL1  H19C 5853   4.047   3.212   9.994  0.6156 -0.1771 -1.7223
   46CHL1    C1 5854   3.783   3.186  10.061  0.1904  0.0592  0.0896
   46CHL1   H1A 5855   3.840   3.282  10.068  3.2854 -1.6762  0.4876
   46CHL1   H1B 5856   3.678   3.201  10.029  1.2934  1.7226 -3.1684
   46CHL1    C2 5857   3.778   3.133  10.208  0.2150 -0.2655 -0.1935
   46CHL1   H2A 5858   3.712   3.200  10.266  0.4576 -0.4578  0.3113
   46CHL1   H2B 5859   3.879   3.138  10.254 -0.1363  0.9316  0.4949
   46CHL1   C20 5860   3.901   3.415   9.322 -0.1695  0.3392 -0.6082
   46CHL1   H20 5861   3.998   3.374   9.287  0.4541 -0.0831  1.5337
   46CHL1   C21 5862   3.927   3.538   9.406 -0.2714  0.1623 -0.0277
   46CHL1  H21A 5863   3.971   3.627   9.357 -0.4317  0.5580  0.5341
   46CHL1  H21B 5864   4.007   3.520   9.482 -0.9233 -3.3646  0.0170
   46CHL1  H21C 5865   3.832   3.569   9.453 -1.5698 -0.4590 -2.1309
   46CHL1   C22 5866   3.820   3.448   9.195  0.0290 -0.0668 -0.2510
   46CHL1  H22A 5867   3.795   3.354   9.140 -1.7352 -0.4541  1.1172
   46CHL1  H22B 5868   3.727   3.496   9.229 -0.1140 -1.0380  0.7889
   46CHL1   C23 5869   3.902   3.521   9.079 -0.9760  0.0231  0.7301
   46CHL1  H23A 5870   3.899   3.625   9.116 -0.8942 -0.4477  2.1108
   46CHL1  H23B 5871   4.007   3.483   9.079 -0.7561  0.4998 -1.2558
   46CHL1   C24 5872   3.847   3.493   8.937 -0.3177 -0.8133  0.7176
   46CHL1  H24A 5873   3.842   3.384   8.916 -2.8751 -1.0120  1.9200
   46CHL1  H24B 5874   3.747   3.542   8.933  0.9489  1.8992 -1.0430
   46CHL1   C25 5875   3.918   3.568   8.816 -0.3655 -0.3960  0.4370
   46CHL1   H25 5876   3.958   3.660   8.864  1.6059 -0.9406 -0.0910
   46CHL1   C26 5877   4.032   3.478   8.762 -0.1012  0.5217  0.5955
   46CHL1  H26A 5878   4.103   3.527   8.691 -1.2439  1.4729  0.0883
   46CHL1  H26B 5879   4.091   3.435   8.846  0.2989 -1.2848 -0.5548
   46CHL1  H26C 5880   3.993   3.392   8.705  2.7428 -0.3121 -0.2715
   46CHL1   C27 5881   3.829   3.605   8.696  0.4317  0.3488  0.2743
   46CHL1  H27A 5882   3.754   3.685   8.717 -0.3663 -0.0146 -1.0602
   46CHL1  H27B 5883   3.892   3.640   8.611 -0.1013  0.3143 -0.1436
   46CHL1  H27C 5884   3.769   3.516   8.671  0.0206  0.4804  0.7732
   47CHL1    C3 5885   5.542   2.968  10.233 -0.2680  0.1497 -0.0833
   47CHL1    H3 5886   5.643   2.925  10.248 -0.1817  0.0939 -0.7640
   47CHL1    O3 5887   5.479   2.980  10.359 -0.1962  0.5530 -0.2325
   47CHL1   H3' 5888   5.418   2.908  10.375 -0.6237  0.6052 -1.5229
   47CHL1    C4 5889   5.569   3.116  10.182  0.4957 -0.2717 -0.0929
   47CHL1   H4A 5890   5.477   3.175  10.196  1.1417  0.3383  1.9933
   47CHL1   H4B 5891   5.653   3.160  10.241  0.9685  1.2395 -1.8313
   47CHL1    C5 5892   5.615   3.124  10.036  0.6506 -0.4254 -0.1303
   47CHL1    C6 5893   5.718   3.203  10.006 -0.7279 -0.8029  0.6156
   47CHL1    H6 5894   5.762   3.274  10.079 -2.4388 -0.0552  0.9733
   47CHL1    C7 5895   5.748   3.229   9.862 -0.2148  0.2802  0.0116
   47CHL1   H7A 5896   5.741   3.337   9.838 -0.7945  0.1114 -0.6083
   47CHL1   H7B 5897   5.846   3.188   9.830 -1.0030 -0.3694 -1.6802
   47CHL1    C8 5898   5.637   3.171   9.763 -0.6485 -0.2288  0.8481
   47CHL1    H8 5899   5.558   3.248   9.756 -1.5155 -1.1773 -0.4785
   47CHL1   C14 5900   5.691   3.167   9.620 -0.7216 -0.0756  0.4169
   47CHL1   H14 5901   5.772   3.090   9.614  1.1160  1.8443 -0.9965
   47CHL1   C15 5902   5.764   3.291   9.569  0.3057  0.1040  0.0063
   47CHL1  H15A 5903   5.705   3.381   9.598  0.6477 -0.3885  2.4550
   47CHL1  H15B 5904   5.869   3.298   9.605  0.1629 -2.4108  1.1033
   47CHL1   C16 5905   5.749   3.277   9.419 -0.0963 -0.1032 -0.4262
   47CHL1  H16A 5906   5.680   3.359   9.388 -1.5832 -0.9163  0.6653
   47CHL1  H16B 5907   5.845   3.292   9.365 -1.3093  2.4877 -2.1063
   47CHL1   C17 5908   5.676   3.141   9.388 -0.0153 -0.2159  0.0608
   47CHL1   H17 5909   5.754   3.063   9.379  0.0041 -0.3501  1.2541
   47CHL1   C13 5910   5.589   3.116   9.512  0.3554  0.2762 -0.3209
   47CHL1   C18 5911   5.475   3.218   9.498 -0.0873  0.4621  0.1483
   47CHL1  H18A 5912   5.504   3.325   9.497  1.0964  0.1648  0.8829
   47CHL1  H18B 5913   5.399   3.196   9.420  0.8911  1.2660 -1.0690
   47CHL1  H18C 5914   5.430   3.197   9.597  0.8896 -0.6620  0.3755
   47CHL1   C12 5915   5.546   2.968   9.551  0.2102 -0.0221 -0.3545
   47CHL1  H12A 5916   5.459   2.939   9.487  2.0066 -0.5121 -2.7105
   47CHL1  H12B 5917   5.629   2.895   9.554 -0.8378 -1.3205  3.9573
   47CHL1   C11 5918   5.500   2.959   9.699 -0.0432 -0.5771  0.0131
   47CHL1  H11A 5919   5.401   3.008   9.705  0.1143 -0.3157  0.4639
   47CHL1  H11B 5920   5.483   2.851   9.718  1.8398 -1.2784 -1.8366
   47CHL1    C9 5921   5.590   3.030   9.802  0.1266  0.1982 -0.2999
   47CHL1    H9 5922   5.670   2.954   9.813  0.2724  0.3826 -0.0626
   47CHL1   C10 5923   5.529   3.039   9.942  0.2474 -0.4057 -1.0240
   47CHL1   C19 5924   5.381   3.105   9.938 -0.7870  0.2923  0.2639
   47CHL1  H19A 5925   5.377   3.207   9.894  0.4540 -0.8075 -2.6311
   47CHL1  H19B 5926   5.306   3.037   9.892 -1.0723  1.7005 -1.4622
   47CHL1  H19C 5927   5.341   3.108  10.042  0.4196 -1.6430  0.8331
   47CHL1    C1 5928   5.518   2.893  10.000  0.5684 -0.5585 -0.7914
   47CHL1   H1A 5929   5.453   2.840   9.928 -1.8516  2.2578 -0.8470
   47CHL1   H1B 5930   5.614   2.838  10.000  1.3594  0.5574  2.7631
   47CHL1    C2 5931   5.461   2.884  10.137  0.3739  0.4865  0.1658
   47CHL1   H2A 5932   5.453   2.776  10.161  1.5751  0.4408  0.3828
   47CHL1   H2B 5933   5.353   2.912  10.133  0.2827  0.3786  1.4408
   47CHL1   C20 5934   5.606   3.144   9.251 -0.4437  0.3115 -0.8398
   47CHL1   H20 5935   5.512   3.203   9.257 -1.6113 -1.4059 -1.4473
   47CHL1   C21 5936   5.574   3.003   9.208 -0.5094  0.0902  0.3632
   47CHL1  H21A 5937   5.516   2.999   9.113  0.3181 -1.5554 -0.1075
   47CHL1  H21B 5938   5.502   2.977   9.288 -0.9173 -0.7002 -0.2467
   47CHL1  H21C 5939   5.667   2.943   9.207 -1.3741 -1.3379  1.2446
   47CHL1   C22 5940   5.698   3.209   9.142 -0.2495 -0.5235 -0.3876
   47CHL1  H22A 5941   5.741   3.307   9.173 -0.0510 -0.5381 -0.6054
   47CHL1  H22B 5942   5.788   3.144   9.134  0.2193  0.1099 -0.3981
   47CHL1   C23 5943   5.642   3.216   8.998  0.1728 -0.0126 -0.5363
   47CHL1  H23A 5944   5.603   3.118   8.961  1.2152 -0.1144 -1.4071
   47CHL1  H23B 5945   5.549   3.277   9.000 -0.8388 -1.3241 -2.9887
   47CHL1   C24 5946   5.743   3.276   8.898  0.7893  0.2323  0.5975
   47CHL1  H24A 5947   5.777   3.374   8.937  0.7573  0.5794 -0.2295
   47CHL1  H24B 5948   5.826   3.202   8.895  0.7595  0.2227 -0.8124
   47CHL1   C25 5949   5.684   3.297   8.757 -0.4286 -0.0690  0.2219
   47CHL1   H25 5950   5.639   3.201   8.726  1.7819 -0.6741 -1.3912
   47CHL1   C26 5951   5.576   3.407   8.757 -0.2261 -0.7091 -0.5936
   47CHL1  H26A 5952   5.532   3.406   8.655 -1.2244 -3.5615 -0.2190
   47CHL1  H26B 5953   5.618   3.504   8.791 -0.4674 -1.8572  3.5003
   47CHL1  H26C 5954   5.495   3.367   8.822 -0.3015 -0.2082 -0.3696
   47CHL1   C27 5955   5.801   3.341   8.660  0.6781 -0.6545  0.7435
   47CHL1  H27A 5956   5.864   3.420   8.708  1.3685 -1.3475  0.9867
   47CHL1  H27B 5957   5.859   3.255   8.623  0.0639 -1.5862  1.8733
   47CHL1  H27C 5958   5.760   3.388   8.568 -2.3017 -0.9700  1.8094
   48CHL1    C3 5959   0.323   1.639  10.159 -1.1408 -0.1569  0.7757
   48CHL1    H3 5960   0.433   1.643  10.146 -1.1112  2.9402  1.2799
   48CHL1    O3 5961   0.302   1.657  10.300 -0.5996  0.2513 -0.1219
   48CHL1   H3' 5962   0.347   1.586  10.347 -3.1579 -1.6753 -0.3390
   48CHL1    C4 5963   0.259   1.754  10.084 -0.6873  1.2865 -0.0919
   48CHL1   H4A 5964   0.152   1.764  10.113 -0.3179  2.3480  0.9716
   48CHL1   H4B 5965   0.312   1.842  10.125 -0.1350  0.2348  1.5588
   48CHL1    C5 5966   0.273   1.732   9.927 -0.5464  0.4756 -0.1646
   48CHL1    C6 5967   0.331   1.823   9.849  0.1849 -0.1930  0.6604
   48CHL1    H6 5968   0.376   1.914   9.890  1.1725  1.2512 -3.1751
   48CHL1    C7 5969   0.335   1.816   9.698 -0.3649 -0.4946 -0.3236
   48CHL1   H7A 5970   0.292   1.909   9.654  1.1306  0.5854  0.3834
   48CHL1   H7B 5971   0.432   1.805   9.645  0.0989  2.2588 -0.2028
   48CHL1    C8 5972   0.244   1.700   9.642 -0.2108  0.5319 -0.2370
   48CHL1    H8 5973   0.137   1.728   9.648  0.3927  3.4174 -1.2654
   48CHL1   C14 5974   0.286   1.668   9.500  0.6696 -0.5820  0.7250
   48CHL1   H14 5975   0.389   1.629   9.511  0.9942  0.0037 -0.1229
   48CHL1   C15 5976   0.292   1.778   9.388 -0.3893  0.5146  0.0722
   48CHL1  H15A 5977   0.198   1.838   9.392 -1.6075 -1.1287 -2.0537
   48CHL1  H15B 5978   0.379   1.846   9.403  0.6130 -0.1622 -2.2586
   48CHL1   C16 5979   0.296   1.705   9.258 -0.8736  0.4442  0.2373
   48CHL1  H16A 5980   0.218   1.762   9.202  1.0342  3.2479  0.2448
   48CHL1  H16B 5981   0.392   1.704   9.203 -0.9865 -4.2909 -0.2774
   48CHL1   C17 5982   0.272   1.555   9.292  0.5028  0.5010  0.1331
   48CHL1   H17 5983   0.374   1.514   9.303 -0.2553 -2.4951 -2.4041
   48CHL1   C13 5984   0.201   1.557   9.429  0.0740  0.6302 -0.2092
   48CHL1   C18 5985   0.048   1.589   9.422 -0.2491  0.0826  0.5013
   48CHL1  H18A 5986   0.025   1.670   9.349  0.9042  0.2788  0.3396
   48CHL1  H18B 5987  -0.008   1.494   9.402  1.0424 -1.2816  2.9438
   48CHL1  H18C 5988   0.012   1.638   9.515 -0.1905  1.2450 -0.0698
   48CHL1   C12 5989   0.220   1.426   9.515 -0.3329 -0.4152 -0.3503
   48CHL1  H12A 5990   0.159   1.341   9.478  0.1615 -0.9836  0.1263
   48CHL1  H12B 5991   0.327   1.397   9.524 -0.6004 -1.8918 -1.5031
   48CHL1   C11 5992   0.179   1.443   9.662 -0.0090 -0.3347  0.0288
   48CHL1  H11A 5993   0.070   1.439   9.684  0.3314  0.0671  1.9591
   48CHL1  H11B 5994   0.214   1.355   9.720  0.7318 -0.4571 -0.5803
   48CHL1    C9 5995   0.254   1.567   9.722 -0.6649  0.0825 -0.4008
   48CHL1    H9 5996   0.362   1.539   9.721 -1.1545 -1.9742 -0.5786
   48CHL1   C10 5997   0.219   1.600   9.876  0.3882 -0.0157  0.1984
   48CHL1   C19 5998   0.066   1.611   9.881 -0.7258 -0.1756  0.3292
   48CHL1  H19A 5999   0.014   1.671   9.803 -3.1043 -0.1185  1.8297
   48CHL1  H19B 6000   0.024   1.508   9.888 -1.7941  0.2252  0.0116
   48CHL1  H19C 6001   0.038   1.655   9.979 -0.7812 -0.0769  0.2688
   48CHL1    C1 6002   0.270   1.487   9.964  0.3845  0.0528 -0.3605
   48CHL1   H1A 6003   0.205   1.402   9.935 -1.0079  1.0269 -0.2098
   48CHL1   H1B 6004   0.374   1.464   9.931  0.5501 -1.1126  0.8806
   48CHL1    C2 6005   0.255   1.508  10.115  0.4973  0.2836 -0.3936
   48CHL1   H2A 6006   0.290   1.421  10.175 -1.0615 -0.7225 -0.8788
   48CHL1   H2B 6007   0.146   1.518  10.134  0.6619  1.3178  0.0793
   48CHL1   C20 6008   0.208   1.477   9.168 -0.2130 -0.0786  0.1569
   48CHL1   H20 6009   0.103   1.509   9.150 -1.0669 -2.4912  0.4630
   48CHL1   C21 6010   0.206   1.333   9.204 -0.0817 -0.1954 -0.5028
   48CHL1  H21A 6011   0.133   1.299   9.281  0.1950  0.2980 -0.0217
   48CHL1  H21B 6012   0.303   1.293   9.238  0.5517 -1.4354 -3.4654
   48CHL1  H21C 6013   0.188   1.264   9.119  1.1941 -1.0433 -0.1176
   48CHL1   C22 6014   0.289   1.488   9.036 -0.4616 -0.3372  0.0320
   48CHL1  H22A 6015   0.317   1.595   9.027  0.8898 -0.6047  0.8222
   48CHL1  H22B 6016   0.380   1.430   9.059  0.0427  0.3188 -0.2555
   48CHL1   C23 6017   0.228   1.449   8.899 -0.1360 -0.1470 -0.2961
   48CHL1  H23A 6018   0.206   1.340   8.898 -1.4853  0.0800  0.8121
   48CHL1  H23B 6019   0.128   1.495   8.879  0.3072 -0.2903 -3.3589
   48CHL1   C24 6020   0.312   1.480   8.773 -0.6175  0.1997 -0.3513
   48CHL1  H24A 6021   0.324   1.590   8.759  0.9976  0.3558  1.7717
   48CHL1  H24B 6022   0.409   1.433   8.797 -1.5514 -1.3486  0.5483
   48CHL1   C25 6023   0.259   1.416   8.647  0.1245 -0.0870 -0.1053
   48CHL1   H25 6024   0.273   1.306   8.661  2.3275  0.2419  0.6479
   48CHL1   C26 6025   0.122   1.466   8.621  1.1045  0.0269  0.1994
   48CHL1  H26A 6026   0.128   1.577   8.622  2.1082  0.0241  2.9717
   48CHL1  H26B 6027   0.091   1.437   8.518 -0.1731  1.1079  0.2563
   48CHL1  H26C 6028   0.040   1.431   8.687 -0.0280  1.8598 -0.1584
   48CHL1   C27 6029   0.351   1.452   8.531 -0.1334 -0.0802  0.2935
   48CHL1  H27A 6030   0.353   1.562   8.519  2.5018  0.0543  1.3202
   48CHL1  H27B 6031   0.456   1.415   8.542  0.1389  0.9158  1.2779
   48CHL1  H27C 6032   0.316   1.407   8.436 -0.7200 -2.2907  1.4928
   49CHL1    C3 6033   2.266   5.147  10.198 -0.3821  0.2024 -0.0090
   49CHL1    H3 6034   2.246   5.254  10.175  0.2490 -0.2137 -2.8598
   49CHL1    O3 6035   2.328   5.142  10.323  0.8758  0.1449  0.6557
   49CHL1   H3' 6036   2.289   5.208  10.381 -1.5214  0.3280 -1.0407
   49CHL1    C4 6037   2.139   5.066  10.205 -0.0390  0.0809 -0.0451
   49CHL1   H4A 6038   2.153   4.959  10.233 -0.2415  0.0486 -0.0643
   49CHL1   H4B 6039   2.067   5.104  10.281 -2.8373 -2.4045 -1.2177
   49CHL1    C5 6040   2.077   5.052  10.074  0.0458 -0.8467 -0.8211
   49CHL1    C6 6041   1.950   5.086  10.062  0.4764  0.1935  0.1548
   49CHL1    H6 6042   1.898   5.096  10.158  1.2113 -2.1189  0.8352
   49CHL1    C7 6043   1.866   5.068   9.931 -0.6884 -0.5891 -1.0461
   49CHL1   H7A 6044   1.765   5.028   9.955 -1.1105  1.6140  1.4444
   49CHL1   H7B 6045   1.857   5.171   9.891 -1.8262 -0.2711 -0.0446
   49CHL1    C8 6046   1.944   4.975   9.828 -0.8285 -0.6669  0.2100
   49CHL1    H8 6047   1.931   4.871   9.865 -0.5384 -0.1660  1.7906
   49CHL1   C14 6048   1.874   4.989   9.690 -0.0861  0.5933  0.4133
   49CHL1   H14 6049   1.891   5.095   9.659  1.3332  0.0046 -0.9756
   49CHL1   C15 6050   1.722   4.974   9.684 -0.0332  0.7834  0.2139
   49CHL1  H15A 6051   1.690   4.879   9.731  1.0867  1.5396  2.6858
   49CHL1  H15B 6052   1.667   5.066   9.713 -0.1746  0.3298  1.4314
   49CHL1   C16 6053   1.705   4.961   9.531  0.5371 -0.0824 -0.1313
   49CHL1  H16A 6054   1.666   4.861   9.502  0.8703 -0.3832  0.4511
   49CHL1  H16B 6055   1.646   5.048   9.493 -1.5888 -2.0204 -1.6016
   49CHL1   C17 6056   1.846   4.950   9.470 -0.5849 -0.0047 -0.6381
   49CHL1   H17 6057   1.864   5.057   9.446 -0.7810  0.2649  0.3750
   49CHL1   C13 6058   1.941   4.902   9.580  0.1615  0.1273 -0.4889
   49CHL1   C18 6059   1.936   4.753   9.611  0.3627 -0.0314  0.0128
   49CHL1  H18A 6060   1.836   4.721   9.646  1.3289 -3.5046 -0.0466
   49CHL1  H18B 6061   1.947   4.682   9.526 -2.3151 -1.2788  0.5912
   49CHL1  H18C 6062   2.011   4.741   9.692  0.6013 -0.2244 -0.2332
   49CHL1   C12 6063   2.087   4.946   9.571 -0.5068 -0.1476  0.4915
   49CHL1  H12A 6064   2.132   4.873   9.500 -1.4876 -0.2395 -0.0497
   49CHL1  H12B 6065   2.096   5.053   9.542  0.3111 -0.8987 -2.3344
   49CHL1   C11 6066   2.167   4.937   9.704 -0.4234 -0.1301 -0.6542
   49CHL1  H11A 6067   2.179   4.831   9.736  0.0472  0.3596  0.8812
   49CHL1  H11B 6068   2.264   4.991   9.694 -1.0070  1.6799  2.4330
   49CHL1    C9 6069   2.097   5.007   9.819  0.2718 -0.6621  0.1914
   49CHL1    H9 6070   2.101   5.116   9.800 -0.8695  0.2190  4.0748
   49CHL1   C10 6071   2.169   4.995   9.959 -0.3860 -0.0969 -0.3297
   49CHL1   C19 6072   2.210   4.847   9.986  0.4000  0.4440 -0.0202
   49CHL1  H19A 6073   2.129   4.774   9.960  1.0889 -0.3460 -0.0007
   49CHL1  H19B 6074   2.298   4.823   9.923 -1.3566 -1.9646 -1.7395
   49CHL1  H19C 6075   2.239   4.828  10.092  0.8118 -2.1301 -0.5251
   49CHL1    C1 6076   2.305   5.076   9.958 -0.0949 -0.0636  0.1128
   49CHL1   H1A 6077   2.372   5.039   9.877  0.2135  0.4919  0.1103
   49CHL1   H1B 6078   2.272   5.179   9.932 -1.5152 -0.2710  0.9596
   49CHL1    C2 6079   2.371   5.080  10.096  0.3169  0.1799 -0.4530
   49CHL1   H2A 6080   2.466   5.136  10.083 -0.9949  2.6911  0.1019
   49CHL1   H2B 6081   2.395   4.979  10.136 -2.8960  0.1323  1.7123
   49CHL1   C20 6082   1.849   4.876   9.342  0.4204 -0.5277  0.5447
   49CHL1   H20 6083   1.802   4.778   9.365  1.8563 -1.3155  0.2684
   49CHL1   C21 6084   1.989   4.837   9.282  0.6625  0.0219 -0.1887
   49CHL1  H21A 6085   1.981   4.784   9.184  2.7525 -1.9382  0.6246
   49CHL1  H21B 6086   2.043   4.767   9.350  0.8991  0.9188  0.5574
   49CHL1  H21C 6087   2.046   4.932   9.276  0.6651  0.1150  1.1378
   49CHL1   C22 6088   1.765   4.953   9.230 -0.2175  1.2114 -0.2182
   49CHL1  H22A 6089   1.661   4.980   9.258 -0.2858  2.1679 -1.2901
   49CHL1  H22B 6090   1.815   5.049   9.205 -1.0062  2.3589  2.2733
   49CHL1   C23 6091   1.747   4.871   9.094  0.4849 -0.7931 -0.0205
   49CHL1  H23A 6092   1.835   4.891   9.028 -0.0139  1.9978  0.0414
   49CHL1  H23B 6093   1.739   4.762   9.112 -0.1551 -0.7376  0.0258
   49CHL1   C24 6094   1.617   4.928   9.028 -0.5950 -0.0892 -0.1987
   49CHL1  H24A 6095   1.532   4.907   9.097  1.0449 -1.4589  1.5194
   49CHL1  H24B 6096   1.620   5.039   9.028 -1.8193 -0.0364  1.0119
   49CHL1   C25 6097   1.585   4.880   8.882  0.3797 -0.4820 -0.4561
   49CHL1   H25 6098   1.598   4.770   8.893  1.8658 -0.1677  1.3449
   49CHL1   C26 6099   1.448   4.928   8.832  0.1448 -0.3035  0.1127
   49CHL1  H26A 6100   1.365   4.869   8.877 -0.3123 -1.1900 -1.7899
   49CHL1  H26B 6101   1.444   5.039   8.833 -0.1453 -0.2084 -2.8092
   49CHL1  H26C 6102   1.451   4.898   8.725  1.5743 -1.8880  0.5543
   49CHL1   C27 6103   1.689   4.922   8.777 -0.0902  0.1948  0.5496
   49CHL1  H27A 6104   1.669   4.886   8.674 -1.4132 -1.7122  1.4125
   49CHL1  H27B 6105   1.692   5.033   8.766  1.0709  0.0999 -0.2671
   49CHL1  H27C 6106   1.785   4.883   8.817 -0.3220  0.5881  1.5382
   50CHL1    C3 6107   6.369   5.178  10.323  0.9119 -0.5770  0.0189
   50CHL1    H3 6108   6.388   5.074  10.288 -0.5429 -0.6176 -0.7274
   50CHL1    O3 6109   6.378   5.185  10.465  0.0770  0.4899  0.1708
   50CHL1   H3' 6110   6.425   5.265  10.490  0.8723  0.8300 -2.1779
   50CHL1    C4 6111   6.460   5.277  10.263  0.7017 -0.5167 -0.3910
   50CHL1   H4A 6112   6.435   5.376  10.306  2.1605  0.0214 -0.7154
   50CHL1   H4B 6113   6.565   5.250  10.286 -0.5544 -5.0648  1.0252
   50CHL1    C5 6114   6.445   5.274  10.107 -0.2013  0.1608 -0.1587
   50CHL1    C6 6115   6.548   5.236  10.031  0.2845 -0.0605  0.7318
   50CHL1    H6 6116   6.649   5.229  10.075  1.5184  1.3847 -1.6188
   50CHL1    C7 6117   6.551   5.238   9.883 -0.0115  0.2775  0.6885
   50CHL1   H7A 6118   6.642   5.290   9.845  1.2929 -1.1861  1.6832
   50CHL1   H7B 6119   6.562   5.132   9.850 -1.4269 -0.5224  2.6242
   50CHL1    C8 6120   6.420   5.301   9.824  0.9989 -0.4844  0.9114
   50CHL1    H8 6121   6.425   5.411   9.817  0.8214 -0.5986 -2.3038
   50CHL1   C14 6122   6.408   5.262   9.675 -0.2758 -0.1358  0.4764
   50CHL1   H14 6123   6.407   5.151   9.671 -0.4606 -0.1150 -0.3895
   50CHL1   C15 6124   6.531   5.297   9.592  0.3864  0.0506  0.1909
   50CHL1  H15A 6125   6.566   5.400   9.612  0.8141  0.2525 -1.4302
   50CHL1  H15B 6126   6.618   5.230   9.609  1.3540  0.8239 -1.5363
   50CHL1   C16 6127   6.477   5.275   9.449  0.0614  0.4313  0.4401
   50CHL1  H16A 6128   6.501   5.351   9.372 -0.6719 -2.1822 -2.6264
   50CHL1  H16B 6129   6.525   5.182   9.409 -0.4310  0.2713  0.2064
   50CHL1   C17 6130   6.322   5.266   9.464 -0.8834  0.4057 -0.2511
   50CHL1   H17 6131   6.298   5.157   9.469 -0.1354  0.2488 -0.0237
   50CHL1   C13 6132   6.293   5.318   9.599  0.0618  0.0846 -0.4772
   50CHL1   C18 6133   6.292   5.472   9.606 -0.0456 -0.2374 -0.3532
   50CHL1  H18A 6134   6.287   5.505   9.712  2.7170 -0.8543  0.0294
   50CHL1  H18B 6135   6.386   5.520   9.571  0.5417 -0.9956  0.1506
   50CHL1  H18C 6136   6.208   5.523   9.553 -0.6837 -1.4865 -0.5774
   50CHL1   C12 6137   6.166   5.252   9.670 -0.1085  0.0786  0.0495
   50CHL1  H12A 6138   6.069   5.283   9.626 -0.7503 -2.5186 -0.5280
   50CHL1  H12B 6139   6.164   5.142   9.652 -0.3668  0.1793 -0.5528
   50CHL1   C11 6140   6.161   5.284   9.820 -0.5451 -0.1246 -0.0068
   50CHL1  H11A 6141   6.145   5.394   9.824 -4.1680 -0.5090 -1.0660
   50CHL1  H11B 6142   6.077   5.232   9.870 -1.2527  0.1806 -0.8632
   50CHL1    C9 6143   6.299   5.242   9.894 -0.5468 -0.1604  0.2858
   50CHL1    H9 6144   6.295   5.132   9.886 -2.8077 -0.0360 -1.8390
   50CHL1   C10 6145   6.304   5.278  10.049 -0.5213 -0.0015  0.2976
   50CHL1   C19 6146   6.274   5.427  10.077  0.0186 -0.0661 -0.1608
   50CHL1  H19A 6147   6.181   5.449  10.021  1.8708 -1.1085 -4.0056
   50CHL1  H19B 6148   6.265   5.447  10.186  1.2782 -0.1864 -0.0168
   50CHL1  H19C 6149   6.349   5.494  10.029  0.5212 -2.1859 -2.5691
   50CHL1    C1 6150   6.202   5.186  10.131  0.3598 -0.5153 -0.1450
   50CHL1   H1A 6151   6.103   5.218  10.093  0.5666 -0.9082 -1.0445
   50CHL1   H1B 6152   6.223   5.084  10.091 -0.0664  0.0266 -1.8422
   50CHL1    C2 6153   6.220   5.203  10.288  0.1374  0.1162  0.4352
   50CHL1   H2A 6154   6.161   5.119  10.330 -0.6181 -0.1137 -1.0296
   50CHL1   H2B 6155   6.190   5.303  10.328 -2.1196 -0.6648  0.8487
   50CHL1   C20 6156   6.254   5.319   9.346 -0.1818  0.7896 -0.4408
   50CHL1   H20 6157   6.284   5.422   9.316  1.7352 -0.0488 -1.5947
   50CHL1   C21 6158   6.100   5.310   9.372  0.3292 -0.4664  0.5830
   50CHL1  H21A 6159   6.070   5.207   9.401  1.3531 -0.5178  1.5821
   50CHL1  H21B 6160   6.045   5.323   9.277  0.3798 -1.5554  0.3952
   50CHL1  H21C 6161   6.059   5.379   9.449 -2.4948 -1.3809  0.0104
   50CHL1   C22 6162   6.282   5.240   9.212 -0.5029 -0.2537 -0.5732
   50CHL1  H22A 6163   6.392   5.242   9.204 -0.3614  0.8387  1.1283
   50CHL1  H22B 6164   6.237   5.140   9.227 -1.1650  0.4748  3.5927
   50CHL1   C23 6165   6.228   5.306   9.092  0.2839 -0.3697  0.5890
   50CHL1  H23A 6166   6.119   5.283   9.096  0.6217 -2.7386 -1.3846
   50CHL1  H23B 6167   6.232   5.417   9.091 -2.3864 -0.1818  1.2538
   50CHL1   C24 6168   6.276   5.231   8.961  0.2285 -0.4714  0.5147
   50CHL1  H24A 6169   6.380   5.193   8.964  1.1011  1.7991  0.6947
   50CHL1  H24B 6170   6.223   5.135   8.946  3.3983 -2.2598 -0.2153
   50CHL1   C25 6171   6.251   5.302   8.821  0.0919 -0.8672 -0.7627
   50CHL1   H25 6172   6.142   5.323   8.821  0.3825  1.1646  1.8682
   50CHL1   C26 6173   6.327   5.440   8.817  0.0796  0.0125 -0.5195
   50CHL1  H26A 6174   6.325   5.483   8.715  0.2840 -0.3530 -0.6768
   50CHL1  H26B 6175   6.287   5.508   8.896  1.1312  1.2702 -1.0378
   50CHL1  H26C 6176   6.433   5.436   8.848 -0.1516  0.0727  0.3310
   50CHL1   C27 6177   6.287   5.201   8.715  0.1977 -0.1823  0.2590
   50CHL1  H27A 6178   6.396   5.180   8.708  0.2934 -0.1992  1.6351
   50CHL1  H27B 6179   6.243   5.099   8.722 -1.9284  0.6742 -0.0022
   50CHL1  H27C 6180   6.247   5.240   8.619  3.0481  0.7346 -0.6633
   51CHL1    C3 6181   6.330   3.349  10.380  0.4027  0.1306 -1.1130
   51CHL1    H3 6182   6.439   3.370  10.367  1.7006 -4.8258 -0.5501
   51CHL1    O3 6183   6.305   3.328  10.522  0.0542  0.4688 -0.5575
   51CHL1   H3' 6184   6.212   3.342  10.542  0.5931  2.2490  0.8878
   51CHL1    C4 6185   6.234   3.454  10.334 -0.2277 -0.8466 -0.3007
   51CHL1   H4A 6186   6.132   3.420  10.361 -0.8470  0.3416 -1.0258
   51CHL1   H4B 6187   6.251   3.544  10.397  0.9883 -0.2528 -1.4233
   51CHL1    C5 6188   6.258   3.482  10.188 -0.3428 -0.1875 -0.2510
   51CHL1    C6 6189   6.296   3.602  10.142  0.1358  0.0513  1.1369
   51CHL1    H6 6190   6.304   3.690  10.208  0.7142 -0.0866  1.2491
   51CHL1    C7 6191   6.338   3.626   9.997 -0.1752 -0.0146 -1.1152
   51CHL1   H7A 6192   6.299   3.722   9.955 -1.7330 -1.1916 -2.4987
   51CHL1   H7B 6193   6.449   3.631   9.995 -0.1015 -1.4713 -2.6003
   51CHL1    C8 6194   6.292   3.516   9.902  0.7261  0.5826  0.9432
   51CHL1    H8 6195   6.184   3.533   9.882  0.9204  0.2453 -0.4885
   51CHL1   C14 6196   6.371   3.522   9.767 -0.4248 -0.5945  0.8858
   51CHL1   H14 6197   6.473   3.519   9.813  0.3991 -2.7435 -0.9041
   51CHL1   C15 6198   6.384   3.662   9.702  0.8252 -0.5074  0.1429
   51CHL1  H15A 6199   6.281   3.703   9.697  0.3694 -1.7799 -3.0104
   51CHL1  H15B 6200   6.458   3.732   9.747 -0.8713  0.3519  1.7372
   51CHL1   C16 6201   6.439   3.639   9.564  0.2699 -0.7677  0.1815
   51CHL1  H16A 6202   6.368   3.678   9.489  0.8505 -0.1033 -0.0339
   51CHL1  H16B 6203   6.540   3.678   9.537  0.5771 -0.3615  1.7991
   51CHL1   C17 6204   6.453   3.486   9.554 -0.5400 -0.0905 -0.9698
   51CHL1   H17 6205   6.549   3.455   9.601 -1.4533  0.3094  1.3104
   51CHL1   C13 6206   6.357   3.417   9.658 -0.0736  0.0279 -0.0381
   51CHL1   C18 6207   6.211   3.423   9.603 -0.2870  0.3653  0.4751
   51CHL1  H18A 6208   6.194   3.520   9.553  2.0470  2.4491  3.3821
   51CHL1  H18B 6209   6.203   3.339   9.531  3.8839  1.0634 -1.0719
   51CHL1  H18C 6210   6.137   3.421   9.686 -0.6301 -1.5291  0.1829
   51CHL1   C12 6211   6.393   3.274   9.724  0.3312 -0.3638  0.3879
   51CHL1  H12A 6212   6.368   3.197   9.647 -2.8933  1.0031 -0.1224
   51CHL1  H12B 6213   6.500   3.275   9.753 -0.1748  0.7089  2.4204
   51CHL1   C11 6214   6.302   3.264   9.849  0.1500  0.0157 -0.2975
   51CHL1  H11A 6215   6.197   3.265   9.814 -0.4138 -2.5888  1.0203
   51CHL1  H11B 6216   6.312   3.161   9.891 -1.1469 -1.4412 -3.2773
   51CHL1    C9 6217   6.322   3.377   9.959 -0.3715  0.2733 -0.3619
   51CHL1    H9 6218   6.431   3.381   9.979 -0.5055  0.4835  0.3240
   51CHL1   C10 6219   6.252   3.354  10.094  0.6643  0.0492  0.7110
   51CHL1   C19 6220   6.099   3.333  10.076 -0.0132 -0.1062 -0.2688
   51CHL1  H19A 6221   6.073   3.240  10.021 -0.4486  0.5246 -1.1745
   51CHL1  H19B 6222   6.058   3.325  10.179  0.6949 -0.1847  0.0129
   51CHL1  H19C 6223   6.061   3.422  10.020  1.2960  0.4435 -0.3275
   51CHL1    C1 6224   6.318   3.229  10.159  1.0132 -0.5126  0.1960
   51CHL1   H1A 6225   6.289   3.137  10.105  2.5234 -1.8023  1.4517
   51CHL1   H1B 6226   6.427   3.236  10.141  0.7410 -1.2595 -1.9397
   51CHL1    C2 6227   6.297   3.217  10.310 -0.1292  0.6912  0.1409
   51CHL1   H2A 6228   6.361   3.138  10.353 -1.7847 -0.1933  1.0909
   51CHL1   H2B 6229   6.194   3.177  10.321 -0.6221  1.3913 -1.5862
   51CHL1   C20 6230   6.462   3.423   9.419  0.3194  0.0962  1.1419
   51CHL1   H20 6231   6.441   3.314   9.424 -0.8214  0.1990 -0.5989
   51CHL1   C21 6232   6.614   3.423   9.370 -0.0506 -0.2840  0.3301
   51CHL1  H21A 6233   6.631   3.378   9.270  4.5275 -0.5453  1.0096
   51CHL1  H21B 6234   6.679   3.369   9.443 -0.2394 -1.1398 -0.1249
   51CHL1  H21C 6235   6.657   3.525   9.365 -0.1421 -0.3083 -1.5593
   51CHL1   C22 6236   6.360   3.472   9.306 -0.4691 -0.3730  0.2501
   51CHL1  H22A 6237   6.256   3.470   9.346 -0.3466  2.4261  0.9454
   51CHL1  H22B 6238   6.392   3.575   9.281  0.5557 -0.8328 -0.4255
   51CHL1   C23 6239   6.366   3.391   9.181 -0.5472 -0.4339  0.8394
   51CHL1  H23A 6240   6.468   3.394   9.139 -0.7267  0.1488  0.4409
   51CHL1  H23B 6241   6.332   3.288   9.207 -1.4283 -0.0227  1.3691
   51CHL1   C24 6242   6.283   3.447   9.057  0.3743  0.1394  0.4327
   51CHL1  H24A 6243   6.175   3.451   9.081  0.3650  1.0203  0.2661
   51CHL1  H24B 6244   6.314   3.553   9.046  1.9491 -0.3911 -0.5218
   51CHL1   C25 6245   6.305   3.379   8.922 -0.0646 -0.4963  0.8527
   51CHL1   H25 6246   6.284   3.272   8.943  5.2169 -1.4115  3.0835
   51CHL1   C26 6247   6.207   3.443   8.828  0.0374  0.5431 -0.2225
   51CHL1  H26A 6248   6.196   3.378   8.738 -2.6403 -0.1608  0.5143
   51CHL1  H26B 6249   6.098   3.455   8.848 -0.0458 -0.8039  0.2264
   51CHL1  H26C 6250   6.234   3.546   8.795  1.3243 -0.8756 -4.1224
   51CHL1   C27 6251   6.455   3.385   8.866  0.8896 -0.1804  0.3002
   51CHL1  H27A 6252   6.487   3.490   8.850 -0.3824  0.4895  1.8847
   51CHL1  H27B 6253   6.508   3.334   8.949  0.6448  2.5590  2.2763
   51CHL1  H27C 6254   6.467   3.336   8.767  1.5386 -2.2903  1.3661
   52CHL1    C3 6255   3.546   6.521   9.891 -0.2248  0.7893 -0.6320
   52CHL1    H3 6256   3.632   6.551   9.828  1.4882 -0.3713  1.0520
   52CHL1    O3 6257   3.599   6.520  10.021  0.5420 -0.2349  0.4139
   52CHL1   H3' 6258   3.531   6.470  10.066  0.1774 -0.8684 -0.8042
   52CHL1    C4 6259   3.435   6.629   9.869 -0.2325  0.0601  0.0319
   52CHL1   H4A 6260   3.342   6.600   9.923 -0.0803  0.1749  0.3539
   52CHL1   H4B 6261   3.480   6.723   9.907  1.3462  0.5641 -2.7779
   52CHL1    C5 6262   3.404   6.630   9.718  0.1700  0.2449  0.6155
   52CHL1    C6 6263   3.412   6.742   9.648 -0.6834 -0.3058 -0.5909
   52CHL1    H6 6264   3.431   6.835   9.703 -0.6043  0.3041 -1.6178
   52CHL1    C7 6265   3.375   6.760   9.504 -0.5502  0.2660 -0.3207
   52CHL1   H7A 6266   3.326   6.859   9.495  1.4097  1.2149 -1.2842
   52CHL1   H7B 6267   3.473   6.764   9.451  1.3103 -1.1576  2.7569
   52CHL1    C8 6268   3.302   6.633   9.448  0.3741  1.1731  0.2498
   52CHL1    H8 6269   3.196   6.627   9.479  0.7928 -0.6092  1.5059
   52CHL1   C14 6270   3.294   6.648   9.300 -0.2997  0.2418  0.2296
   52CHL1   H14 6271   3.400   6.648   9.267 -1.2180 -1.8148 -3.2622
   52CHL1   C15 6272   3.223   6.775   9.243 -0.1903  0.2271  0.1130
   52CHL1  H15A 6273   3.140   6.799   9.313 -1.1872  0.0873 -0.9886
   52CHL1  H15B 6274   3.292   6.861   9.260  0.8791 -1.1620  3.7727
   52CHL1   C16 6275   3.187   6.744   9.098  0.2799 -0.3400  0.8856
   52CHL1  H16A 6276   3.081   6.761   9.069  0.8928  0.8848 -0.7890
   52CHL1  H16B 6277   3.249   6.806   9.030  0.7561  0.2419  1.8324
   52CHL1   C17 6278   3.225   6.591   9.082 -0.6747 -0.4735  0.1507
   52CHL1   H17 6279   3.331   6.577   9.052  0.1265  0.6525  2.2665
   52CHL1   C13 6280   3.225   6.534   9.227  0.1456 -0.0949 -0.4508
   52CHL1   C18 6281   3.076   6.517   9.278  0.0963  0.4347 -0.1543
   52CHL1  H18A 6282   3.023   6.436   9.224 -2.5338  0.4042  2.2537
   52CHL1  H18B 6283   3.072   6.485   9.385 -1.3033  3.9161  0.9715
   52CHL1  H18C 6284   3.015   6.609   9.274 -0.5853  0.0553  1.1015
   52CHL1   C12 6285   3.311   6.410   9.257  0.6505  0.1274 -0.1625
   52CHL1  H12A 6286   3.245   6.323   9.237 -1.0165  0.6283  2.6617
   52CHL1  H12B 6287   3.410   6.411   9.206 -0.2061 -1.2805 -1.9538
   52CHL1   C11 6288   3.332   6.385   9.409  0.0570  0.8675 -0.7465
   52CHL1  H11A 6289   3.231   6.358   9.446  0.3638  0.1651 -0.3807
   52CHL1  H11B 6290   3.407   6.303   9.416  0.4371  1.0914 -1.8575
   52CHL1    C9 6291   3.381   6.508   9.495  0.1819  0.4687 -0.0458
   52CHL1    H9 6292   3.487   6.528   9.469 -0.2144  2.1535 -0.5324
   52CHL1   C10 6293   3.376   6.486   9.652 -0.3318  0.5409  0.2436
   52CHL1   C19 6294   3.227   6.449   9.687 -0.8651  0.0574  1.1752
   52CHL1  H19A 6295   3.184   6.366   9.628  1.1960  1.1480 -2.1416
   52CHL1  H19B 6296   3.218   6.416   9.793 -0.4989  1.7646  1.7777
   52CHL1  H19C 6297   3.151   6.530   9.681 -0.4816  0.3815  0.5047
   52CHL1    C1 6298   3.479   6.368   9.696  0.4764 -0.1320  0.1262
   52CHL1   H1A 6299   3.450   6.262   9.677 -0.0198 -0.1840  1.1170
   52CHL1   H1B 6300   3.574   6.385   9.641 -0.3670  4.3354 -0.2715
   52CHL1    C2 6301   3.510   6.379   9.845  0.4080 -0.5260 -0.4977
   52CHL1   H2A 6302   3.587   6.303   9.867  0.4600 -0.4416 -0.3907
   52CHL1   H2B 6303   3.423   6.342   9.904 -1.1566  1.6276 -1.3100
   52CHL1   C20 6304   3.140   6.522   8.972 -0.5470 -0.4428  0.3152
   52CHL1   H20 6305   3.032   6.536   8.994 -0.4983  0.9252 -0.2460
   52CHL1   C21 6306   3.178   6.367   8.963  0.1863 -1.4951 -0.4700
   52CHL1  H21A 6307   3.288   6.355   8.964  0.5082  0.9479  1.5793
   52CHL1  H21B 6308   3.128   6.318   8.877 -1.7723  0.0952 -0.3067
   52CHL1  H21C 6309   3.136   6.322   9.055  2.0310 -0.4538  0.9393
   52CHL1   C22 6310   3.149   6.591   8.834  0.4800 -0.3788  0.0446
   52CHL1  H22A 6311   3.078   6.540   8.766 -1.0185  0.7142  0.7278
   52CHL1  H22B 6312   3.121   6.697   8.850  2.2417  0.2405 -0.7825
   52CHL1   C23 6313   3.280   6.593   8.763 -0.6497  0.0562 -0.5261
   52CHL1  H23A 6314   3.354   6.639   8.832  0.8699 -2.3109 -0.4920
   52CHL1  H23B 6315   3.323   6.496   8.730 -0.1006  0.3889 -0.8044
   52CHL1   C24 6316   3.266   6.677   8.638 -0.5320 -0.5496  0.2976
   52CHL1  H24A 6317   3.184   6.646   8.571 -0.6536  2.2937 -1.0100
   52CHL1  H24B 6318   3.246   6.783   8.665  3.4420  0.9575 -1.7709
   52CHL1   C25 6319   3.397   6.702   8.570 -0.0878 -0.3100  0.1412
   52CHL1   H25 6320   3.475   6.727   8.645 -0.8819  2.0589  0.2626
   52CHL1   C26 6321   3.440   6.581   8.493  0.1141 -0.3620 -0.7180
   52CHL1  H26A 6322   3.526   6.621   8.435 -1.5179  2.4451 -1.4166
   52CHL1  H26B 6323   3.458   6.497   8.563 -1.7922  0.5705  1.0152
   52CHL1  H26C 6324   3.361   6.549   8.421 -0.0823 -1.6286  0.0447
   52CHL1   C27 6325   3.385   6.822   8.468  0.1695  0.7590  0.5976
   52CHL1  H27A 6326   3.461   6.819   8.387 -0.5656 -0.0491 -0.0794
   52CHL1  H27B 6327   3.285   6.823   8.421  1.0494  1.0272 -1.3490
   52CHL1  H27C 6328   3.395   6.924   8.513 -1.2168  3.1773 -3.9402
   53CHL1    C3 6329   4.917   6.700  10.091  0.3002  0.9373 -0.1672
   53CHL1    H3 6330   4.979   6.790  10.072  2.0569 -0.1657  0.0351
   53CHL1    O3 6331   4.920   6.663  10.230  0.5969  0.5762  0.8647
   53CHL1   H3' 6332   4.881   6.732  10.284  1.9064  1.5899  0.5605
   53CHL1    C4 6333   4.773   6.723  10.049  0.0618 -0.5752 -0.6115
   53CHL1   H4A 6334   4.714   6.631  10.068 -0.6331 -0.2769 -1.2477
   53CHL1   H4B 6335   4.725   6.805  10.106  0.3129  1.2183 -2.8375
   53CHL1    C5 6336   4.761   6.749   9.902 -0.1331 -1.4464 -0.0238
   53CHL1    C6 6337   4.707   6.862   9.853  0.1902 -0.1889  0.0237
   53CHL1    H6 6338   4.677   6.944   9.920  0.3036 -0.2933  0.2057
   53CHL1    C7 6339   4.677   6.885   9.708 -0.0268  0.2283 -1.1114
   53CHL1   H7A 6340   4.568   6.901   9.695  0.3032  0.6223 -4.1124
   53CHL1   H7B 6341   4.738   6.965   9.662  3.0783 -1.7071 -0.6840
   53CHL1    C8 6342   4.704   6.762   9.618  0.3581 -0.1415  0.2937
   53CHL1    H8 6343   4.616   6.694   9.619 -0.2614  0.5818  2.3383
   53CHL1   C14 6344   4.724   6.813   9.476  0.2148  0.4256  0.2737
   53CHL1   H14 6345   4.817   6.874   9.476 -0.3483  1.4478 -2.3622
   53CHL1   C15 6346   4.621   6.907   9.421  0.2942  0.1372 -0.1970
   53CHL1  H15A 6347   4.528   6.857   9.455  1.2023  0.2655  2.7667
   53CHL1  H15B 6348   4.629   7.009   9.463 -1.4559  0.7420 -1.2533
   53CHL1   C16 6349   4.629   6.888   9.270  0.6058  0.0525  0.3797
   53CHL1  H16A 6350   4.542   6.826   9.241 -0.4417  1.0612  1.2776
   53CHL1  H16B 6351   4.636   6.985   9.216 -1.2302  1.4516  2.4689
   53CHL1   C17 6352   4.752   6.794   9.246  1.1729  0.2726 -0.1573
   53CHL1   H17 6353   4.841   6.860   9.253  1.2016  0.1101  1.3241
   53CHL1   C13 6354   4.745   6.703   9.370 -0.1077 -0.8834 -0.1739
   53CHL1   C18 6355   4.627   6.605   9.365  0.4656  0.5746  0.6967
   53CHL1  H18A 6356   4.639   6.531   9.282 -1.6478  1.3680 -0.3832
   53CHL1  H18B 6357   4.616   6.544   9.457  2.8476  1.4327  1.6295
   53CHL1  H18C 6358   4.537   6.667   9.347  1.5336  2.0941  0.4034
   53CHL1   C12 6359   4.873   6.628   9.413 -0.2616  0.2297  0.0382
   53CHL1  H12A 6360   4.912   6.550   9.345 -0.8224 -1.1708  1.2788
   53CHL1  H12B 6361   4.953   6.705   9.418 -1.3592  1.3352  1.8887
   53CHL1   C11 6362   4.856   6.569   9.558  0.3606  0.0275 -0.0367
   53CHL1  H11A 6363   4.773   6.495   9.565 -2.4004  2.9304  1.0606
   53CHL1  H11B 6364   4.947   6.518   9.596  0.4576  0.8251  0.8380
   53CHL1    C9 6365   4.823   6.680   9.663 -0.1469  0.2683  0.2830
   53CHL1    H9 6366   4.909   6.749   9.648 -0.3432  0.7777  1.3451
   53CHL1   C10 6367   4.813   6.638   9.808  0.8449  0.1621 -0.2750
   53CHL1   C19 6368   4.736   6.509   9.829  0.1818  0.9527  0.2014
   53CHL1  H19A 6369   4.796   6.425   9.787  0.9203  2.1411 -1.2003
   53CHL1  H19B 6370   4.738   6.471   9.934  2.0898  1.1354  0.2701
   53CHL1  H19C 6371   4.634   6.517   9.787 -0.9690 -1.6909  2.2141
   53CHL1    C1 6372   4.952   6.605   9.854 -0.8657  0.4158  0.5401
   53CHL1   H1A 6373   4.993   6.516   9.802 -0.3208  0.5640  0.7084
   53CHL1   H1B 6374   5.013   6.683   9.804 -0.5398 -1.8880 -3.0261
   53CHL1    C2 6375   4.988   6.586  10.004  0.3723 -0.9117 -0.5895
   53CHL1   H2A 6376   5.095   6.582  10.033  0.1305 -2.2133  0.1931
   53CHL1   H2B 6377   4.931   6.497  10.037 -1.7042  1.1466  1.8845
   53CHL1   C20 6378   4.760   6.718   9.115 -0.3484 -0.1093  0.3589
   53CHL1   H20 6379   4.706   6.622   9.122 -1.9248  0.6640 -0.7292
   53CHL1   C21 6380   4.911   6.682   9.087 -0.4067 -0.3005  0.6386
   53CHL1  H21A 6381   4.909   6.576   9.052 -3.2545  0.2315 -1.1864
   53CHL1  H21B 6382   4.960   6.687   9.186 -1.3582 -1.7518  1.2310
   53CHL1  H21C 6383   4.965   6.751   9.019 -0.5460  0.1982  1.0320
   53CHL1   C22 6384   4.706   6.795   8.999  0.6521 -0.2699 -0.1916
   53CHL1  H22A 6385   4.612   6.841   9.035  0.3305 -3.0897  2.9666
   53CHL1  H22B 6386   4.776   6.873   8.960  0.3373 -0.9680 -2.2597
   53CHL1   C23 6387   4.671   6.699   8.891 -0.0421  0.4510  0.1801
   53CHL1  H23A 6388   4.755   6.631   8.866 -0.1493  0.4700 -0.2396
   53CHL1  H23B 6389   4.583   6.633   8.906  0.0812  0.6466  1.9036
   53CHL1   C24 6390   4.641   6.784   8.762  0.3973  0.4581  0.2651
   53CHL1  H24A 6391   4.561   6.855   8.792  0.2943  0.0847  0.8784
   53CHL1  H24B 6392   4.731   6.847   8.741 -0.9879  1.7612 -2.1155
   53CHL1   C25 6393   4.590   6.709   8.633  0.3371 -0.1961  0.3720
   53CHL1   H25 6394   4.482   6.687   8.641  0.5771 -1.2689  0.7906
   53CHL1   C26 6395   4.593   6.790   8.502 -0.6473  0.5088 -0.5785
   53CHL1  H26A 6396   4.535   6.742   8.421 -1.8632  1.1510 -0.1097
   53CHL1  H26B 6397   4.554   6.893   8.517 -2.2359 -0.2376  0.7429
   53CHL1  H26C 6398   4.702   6.790   8.479 -0.6879 -0.0845 -0.7890
   53CHL1   C27 6399   4.661   6.578   8.612 -0.7373  0.8098  0.4166
   53CHL1  H27A 6400   4.768   6.605   8.619  0.0033 -1.1691 -1.8542
   53CHL1  H27B 6401   4.632   6.502   8.688 -0.2739  0.6464  0.4343
   53CHL1  H27C 6402   4.634   6.523   8.519  2.6964  1.3809 -1.0704
   54CHL1    C3 6403   5.915   1.475  10.003  0.1111 -0.8794  0.2538
   54CHL1    H3 6404   5.907   1.365  10.019 -0.3870 -1.2751 -2.2453
   54CHL1    O3 6405   5.854   1.525  10.119 -0.0996  0.3262  0.4396
   54CHL1   H3' 6406   5.891   1.610  10.145 -1.4776  1.1258 -0.1457
   54CHL1    C4 6407   6.065   1.512   9.998  0.1130  0.2548  0.5286
   54CHL1   H4A 6408   6.084   1.620  10.017  0.7054  0.1642  0.4518
   54CHL1   H4B 6409   6.106   1.472  10.093 -2.4129 -1.0584  1.1754
   54CHL1    C5 6410   6.132   1.452   9.875  0.0587 -0.9172 -0.4056
   54CHL1    C6 6411   6.231   1.361   9.887 -0.4295  0.1482 -0.4947
   54CHL1    H6 6412   6.276   1.339   9.985 -2.1465 -2.2099 -0.1511
   54CHL1    C7 6413   6.304   1.306   9.771 -0.5005  0.1759  0.5422
   54CHL1   H7A 6414   6.413   1.300   9.793 -0.5419 -1.9904  0.4136
   54CHL1   H7B 6415   6.269   1.201   9.765 -0.8490  0.3739 -1.3161
   54CHL1    C8 6416   6.277   1.378   9.645 -0.3836 -0.5037  0.9599
   54CHL1    H8 6417   6.326   1.477   9.655  1.2631 -1.3394  1.5325
   54CHL1   C14 6418   6.325   1.293   9.528 -0.1925 -1.0731 -0.1738
   54CHL1   H14 6419   6.252   1.211   9.514 -3.2483  1.1995  1.3848
   54CHL1   C15 6420   6.462   1.219   9.530  0.4845 -0.7457 -0.1459
   54CHL1  H15A 6421   6.527   1.277   9.599 -0.6439  1.1252 -0.5763
   54CHL1  H15B 6422   6.464   1.112   9.559  2.4026 -0.5673  0.5614
   54CHL1   C16 6423   6.514   1.243   9.384 -0.5905  0.1609 -0.4804
   54CHL1  H16A 6424   6.593   1.319   9.400 -0.1744 -0.5687  1.1924
   54CHL1  H16B 6425   6.555   1.145   9.349 -1.6066 -0.3370 -0.3196
   54CHL1   C17 6426   6.392   1.289   9.297  0.3726  0.3671  0.1981
   54CHL1   H17 6427   6.329   1.197   9.296  1.4272 -0.4437 -2.6929
   54CHL1   C13 6428   6.313   1.381   9.394 -0.6651  0.2211  0.4492
   54CHL1   C18 6429   6.381   1.510   9.404  0.1242 -0.1886 -0.5378
   54CHL1  H18A 6430   6.472   1.497   9.466 -0.1886  0.4510  0.0657
   54CHL1  H18B 6431   6.404   1.556   9.305  0.0965 -2.5971 -1.7460
   54CHL1  H18C 6432   6.331   1.587   9.465  2.3530  0.6325  0.3382
   54CHL1   C12 6433   6.170   1.410   9.365 -0.0483 -0.3459 -0.6161
   54CHL1  H12A 6434   6.158   1.472   9.274  1.4196 -1.1611 -1.4011
   54CHL1  H12B 6435   6.127   1.310   9.343 -4.2528  0.5916  2.0855
   54CHL1   C11 6436   6.099   1.466   9.487  0.5038  0.1445 -0.1844
   54CHL1  H11A 6437   6.136   1.570   9.492 -0.7865  0.6173 -0.0073
   54CHL1  H11B 6438   5.990   1.474   9.465  0.3313 -1.6075 -0.1167
   54CHL1    C9 6439   6.124   1.413   9.629 -0.5002  0.2088 -1.1556
   54CHL1    H9 6440   6.073   1.314   9.631  0.6668 -0.4147  0.9918
   54CHL1   C10 6441   6.068   1.495   9.745  0.6045  0.0266 -0.1615
   54CHL1   C19 6442   6.094   1.645   9.730  0.5292  0.0077  0.4272
   54CHL1  H19A 6443   6.039   1.685   9.642  1.4587 -0.3313 -0.3230
   54CHL1  H19B 6444   6.054   1.709   9.811 -0.4249  0.9990 -0.7856
   54CHL1  H19C 6445   6.202   1.672   9.725 -0.0382  2.3630 -0.7259
   54CHL1    C1 6446   5.913   1.469   9.758 -0.8558 -0.3694  0.1350
   54CHL1   H1A 6447   5.868   1.506   9.663  1.6278  1.6821 -0.3523
   54CHL1   H1B 6448   5.899   1.359   9.755 -2.1688 -0.2213  0.3072
   54CHL1    C2 6449   5.845   1.531   9.880  0.3499  0.6017  0.1561
   54CHL1   H2A 6450   5.737   1.507   9.876  0.5761 -0.3055 -0.9775
   54CHL1   H2B 6451   5.860   1.641   9.886  0.8121  0.5128  0.6782
   54CHL1   C20 6452   6.425   1.334   9.155 -0.8587  0.2104  0.6245
   54CHL1   H20 6453   6.355   1.411   9.115 -2.8065 -1.1249  1.3195
   54CHL1   C21 6454   6.401   1.210   9.067 -0.2883 -0.3612  0.0482
   54CHL1  H21A 6455   6.295   1.179   9.080 -0.9264  1.1197 -1.1916
   54CHL1  H21B 6456   6.471   1.133   9.104  0.5324  0.1462 -0.4292
   54CHL1  H21C 6457   6.415   1.243   8.961 -2.8435 -1.3108 -0.6660
   54CHL1   C22 6458   6.571   1.383   9.150 -0.6236 -0.0828  0.0661
   54CHL1  H22A 6459   6.597   1.445   9.238  0.1984  2.0723 -1.5989
   54CHL1  H22B 6460   6.645   1.300   9.145  0.4062  0.8999 -2.0958
   54CHL1   C23 6461   6.603   1.468   9.020  0.0905 -0.2089  0.0578
   54CHL1  H23A 6462   6.713   1.485   9.014  0.8903 -4.4248 -0.8732
   54CHL1  H23B 6463   6.586   1.418   8.922  3.4220  1.3392 -1.4921
   54CHL1   C24 6464   6.524   1.597   9.010 -0.5100 -0.5166 -0.0944
   54CHL1  H24A 6465   6.413   1.587   9.013 -0.5297 -0.5762 -0.7767
   54CHL1  H24B 6466   6.549   1.643   9.108  0.5677 -1.1161 -0.0715
   54CHL1   C25 6467   6.559   1.673   8.876 -0.7441  0.1908  0.2886
   54CHL1   H25 6468   6.670   1.671   8.875 -0.7030 -0.1220  1.9854
   54CHL1   C26 6469   6.513   1.607   8.743  0.1876  0.0155 -0.3185
   54CHL1  H26A 6470   6.554   1.504   8.738 -0.8814 -0.4328 -0.1329
   54CHL1  H26B 6471   6.404   1.583   8.738  0.9111 -4.3786  0.7574
   54CHL1  H26C 6472   6.556   1.670   8.662  0.7256 -0.6707 -0.5682
   54CHL1   C27 6473   6.492   1.815   8.884  0.3129  0.2882  0.2341
   54CHL1  H27A 6474   6.542   1.868   8.968  0.1601 -0.1941  0.6337
   54CHL1  H27B 6475   6.502   1.877   8.792 -1.3745 -0.6580 -0.6434
   54CHL1  H27C 6476   6.381   1.806   8.893 -0.1243  0.8458 -3.1880
   55CHL1    C3 6477   5.670   6.209   9.928 -1.2635 -0.4448  0.1198
   55CHL1    H3 6478   5.570   6.168   9.956 -1.2988 -0.8203 -0.5405
   55CHL1    O3 6479   5.732   6.249  10.045  0.1255  0.4311 -0.2848
   55CHL1   H3' 6480   5.689   6.327  10.081  0.7058  0.0770  1.2580
   55CHL1    C4 6481   5.747   6.098   9.854 -0.0503  0.2127 -0.1110
   55CHL1   H4A 6482   5.855   6.124   9.851  0.3423 -1.3230 -2.4164
   55CHL1   H4B 6483   5.743   6.002   9.911 -2.4103  0.8608  0.9508
   55CHL1    C5 6484   5.698   6.079   9.709 -0.3491 -0.9202  0.1524
   55CHL1    C6 6485   5.661   5.960   9.660  0.6242 -0.2271 -0.4621
   55CHL1    H6 6486   5.675   5.868   9.720 -1.1197 -1.1729 -1.4245
   55CHL1    C7 6487   5.610   5.934   9.526 -0.1814 -0.5974  0.4485
   55CHL1   H7A 6488   5.640   5.835   9.485 -2.5355  0.2055 -3.8811
   55CHL1   H7B 6489   5.499   5.936   9.531 -0.2340  3.5257  1.5374
   55CHL1    C8 6490   5.637   6.053   9.432 -0.4600  0.1087 -0.1367
   55CHL1    H8 6491   5.745   6.044   9.407 -0.4704  1.3337 -0.6921
   55CHL1   C14 6492   5.564   6.040   9.298 -0.0078  0.3457 -0.3848
   55CHL1   H14 6493   5.459   6.065   9.327  0.4087  1.1981  0.4469
   55CHL1   C15 6494   5.579   5.912   9.220 -0.1313 -0.1996  0.2524
   55CHL1  H15A 6495   5.686   5.885   9.223 -0.2878 -0.7987  1.0075
   55CHL1  H15B 6496   5.515   5.836   9.269  1.0505 -0.1327  1.9953
   55CHL1   C16 6497   5.520   5.942   9.079  0.7185  0.5494 -0.7118
   55CHL1  H16A 6498   5.601   5.918   9.006  1.0180  1.1912 -0.5975
   55CHL1  H16B 6499   5.428   5.887   9.050  1.3291 -0.8035 -0.1540
   55CHL1   C17 6500   5.513   6.100   9.074  0.0803 -0.3930  0.6022
   55CHL1   H17 6501   5.407   6.120   9.102 -0.0616 -2.0117  1.3628
   55CHL1   C13 6502   5.593   6.148   9.201 -0.1173 -0.5418  0.3912
   55CHL1   C18 6503   5.747   6.155   9.158  0.0532  0.3572 -0.3858
   55CHL1  H18A 6504   5.793   6.057   9.134 -0.2468  0.9230 -3.8803
   55CHL1  H18B 6505   5.762   6.224   9.072  0.6413  1.0020  0.2217
   55CHL1  H18C 6506   5.799   6.188   9.250 -1.3328  1.1200  0.1538
   55CHL1   C12 6507   5.545   6.280   9.262 -1.0159 -0.3232 -0.0732
   55CHL1  H12A 6508   5.579   6.365   9.200 -0.6205 -2.1675 -2.5368
   55CHL1  H12B 6509   5.435   6.280   9.280 -0.8769  1.0823  0.9917
   55CHL1   C11 6510   5.612   6.301   9.402 -0.1764  0.2051 -0.4012
   55CHL1  H11A 6511   5.716   6.336   9.388 -0.5876  1.6203 -0.0778
   55CHL1  H11B 6512   5.572   6.388   9.458 -1.6416 -1.0685  0.6375
   55CHL1    C9 6513   5.602   6.181   9.499  0.4739  0.4487  0.4025
   55CHL1    H9 6514   5.494   6.181   9.524  0.0508 -1.2397 -1.1664
   55CHL1   C10 6515   5.680   6.204   9.630 -0.1585 -0.0150  0.1719
   55CHL1   C19 6516   5.825   6.265   9.611 -0.7391 -0.2078  0.2117
   55CHL1  H19A 6517   5.877   6.284   9.708  1.7779 -1.2820 -0.8383
   55CHL1  H19B 6518   5.897   6.204   9.552 -1.5440 -0.1575 -0.8396
   55CHL1  H19C 6519   5.821   6.365   9.562 -1.7124 -1.0116 -1.4406
   55CHL1    C1 6520   5.598   6.307   9.714 -0.7199 -0.8050 -0.0228
   55CHL1   H1A 6521   5.596   6.401   9.655  2.0356 -2.3200 -2.8935
   55CHL1   H1B 6522   5.495   6.266   9.721  0.1201 -2.9575  0.5829
   55CHL1    C2 6523   5.653   6.339   9.848  0.6314 -0.1497 -0.6028
   55CHL1   H2A 6524   5.578   6.406   9.895  0.4821 -0.3519 -0.5536
   55CHL1   H2B 6525   5.746   6.399   9.836  0.2477  0.5212 -0.2467
   55CHL1   C20 6526   5.522   6.164   8.931  0.4782 -0.9072 -0.0776
   55CHL1   H20 6527   5.535   6.272   8.949 -0.3927 -1.0517  1.6295
   55CHL1   C21 6528   5.382   6.149   8.860  0.4426  0.7738 -0.0775
   55CHL1  H21A 6529   5.371   6.215   8.771 -0.5255 -0.5191 -0.9520
   55CHL1  H21B 6530   5.302   6.171   8.934  0.1866  0.3412 -0.2211
   55CHL1  H21C 6531   5.383   6.038   8.851 -3.0629  0.6136  0.0675
   55CHL1   C22 6532   5.627   6.112   8.826  0.6678  0.1361 -0.1708
   55CHL1  H22A 6533   5.712   6.075   8.887  0.3021 -2.1515 -0.9242
   55CHL1  H22B 6534   5.581   6.016   8.792  1.8842 -0.7824  0.6895
   55CHL1   C23 6535   5.655   6.206   8.713 -0.2424  0.4898 -0.3883
   55CHL1  H23A 6536   5.569   6.199   8.643  0.6575  0.9771 -1.5807
   55CHL1  H23B 6537   5.663   6.309   8.753 -0.2183 -0.4596  2.2285
   55CHL1   C24 6538   5.789   6.167   8.648  0.3068 -0.4691  0.2539
   55CHL1  H24A 6539   5.875   6.194   8.713 -0.6514  1.2898  0.8438
   55CHL1  H24B 6540   5.787   6.058   8.626  0.9643  0.0694 -2.9878
   55CHL1   C25 6541   5.811   6.230   8.505 -0.3906 -0.5231  0.5342
   55CHL1   H25 6542   5.813   6.340   8.513 -2.1656 -0.2220 -1.9271
   55CHL1   C26 6543   5.956   6.183   8.470  0.8760  0.1126 -0.1408
   55CHL1  H26A 6544   5.949   6.073   8.456 -0.3334  0.2369 -0.6103
   55CHL1  H26B 6545   5.987   6.221   8.370 -0.4267 -1.9880 -1.4512
   55CHL1  H26C 6546   6.029   6.205   8.550  1.4045  0.2835 -0.6635
   55CHL1   C27 6547   5.700   6.182   8.407 -0.1776 -0.2957 -0.7379
   55CHL1  H27A 6548   5.747   6.190   8.306 -1.9975 -1.1007 -1.7004
   55CHL1  H27B 6549   5.663   6.083   8.439  0.1509  0.2284  1.4492
   55CHL1  H27C 6550   5.621   6.259   8.393  0.0103  0.0610  0.1121
   56CHL1    C3 6551   6.224   4.643  10.293 -0.0473  0.0920 -0.1637
   56CHL1    H3 6552   6.307   4.580  10.255  1.7946  2.6130 -0.5510
   56CHL1    O3 6553   6.195   4.668  10.433  0.0409  0.3196 -0.3076
   56CHL1   H3' 6554   6.142   4.748  10.428 -0.7349 -0.2450 -3.1131
   56CHL1    C4 6555   6.249   4.783  10.227  0.6107 -0.3946  0.3022
   56CHL1   H4A 6556   6.168   4.856  10.247 -1.2512 -1.8786 -1.4449
   56CHL1   H4B 6557   6.340   4.817  10.282  2.0955 -0.1597 -2.1619
   56CHL1    C5 6558   6.255   4.774  10.075  1.5083 -0.1710  0.2078
   56CHL1    C6 6559   6.353   4.824   9.998 -0.8054 -0.2306 -0.2187
   56CHL1    H6 6560   6.428   4.882  10.053 -1.8484  0.4926  0.5043
   56CHL1    C7 6561   6.369   4.834   9.845  0.1228 -0.7012  0.6594
   56CHL1   H7A 6562   6.408   4.927   9.798  0.3397 -1.3809 -0.5486
   56CHL1   H7B 6563   6.436   4.750   9.816 -0.1562 -0.7323  0.0940
   56CHL1    C8 6564   6.229   4.788   9.783 -0.2926  0.2833 -0.2277
   56CHL1    H8 6565   6.169   4.881   9.789  0.4653  0.8378 -1.0082
   56CHL1   C14 6566   6.251   4.744   9.638  0.8279 -0.3352  0.4867
   56CHL1   H14 6567   6.321   4.658   9.639  0.0618 -1.0179  2.6025
   56CHL1   C15 6568   6.327   4.840   9.541 -0.1814  0.2689 -0.8252
   56CHL1  H15A 6569   6.294   4.946   9.550 -0.5706  0.0213  0.9798
   56CHL1  H15B 6570   6.436   4.830   9.563 -0.4409  1.8664  1.6057
   56CHL1   C16 6571   6.290   4.793   9.402 -0.1292  0.5581  0.0165
   56CHL1  H16A 6572   6.245   4.876   9.344 -0.3083  0.0601 -0.5757
   56CHL1  H16B 6573   6.375   4.746   9.348 -1.6124 -0.0146 -1.9537
   56CHL1   C17 6574   6.174   4.682   9.414  1.0030  0.1225 -0.5424
   56CHL1   H17 6575   6.231   4.587   9.424 -0.0632 -0.5012 -0.2760
   56CHL1   C13 6576   6.119   4.704   9.564 -0.3489  0.6303  1.0861
   56CHL1   C18 6577   6.008   4.811   9.569 -0.4511  0.4381 -0.1629
   56CHL1  H18A 6578   6.043   4.904   9.518 -0.2499 -0.2363 -1.2893
   56CHL1  H18B 6579   5.905   4.785   9.536 -1.0502  0.9687  1.2045
   56CHL1  H18C 6580   5.995   4.853   9.671 -1.4600  0.4249 -0.2817
   56CHL1   C12 6581   6.072   4.575   9.632  0.8927 -0.5831 -0.7024
   56CHL1  H12A 6582   5.977   4.539   9.589 -0.4977  1.0979  0.7862
   56CHL1  H12B 6583   6.150   4.497   9.620  0.2029 -1.8838  2.1655
   56CHL1   C11 6584   6.041   4.606   9.782 -0.2215  0.2041 -0.6028
   56CHL1  H11A 6585   5.955   4.675   9.773 -0.8997 -0.7572 -1.9490
   56CHL1  H11B 6586   5.987   4.520   9.826 -0.4684  0.9484  0.5817
   56CHL1    C9 6587   6.156   4.678   9.855 -1.3350 -0.2141 -0.5213
   56CHL1    H9 6588   6.236   4.600   9.865  0.7611  1.8277 -0.5430
   56CHL1   C10 6589   6.135   4.708  10.007  0.4979 -0.1372  0.0430
   56CHL1   C19 6590   6.009   4.809  10.016 -0.3277 -0.1677 -0.0585
   56CHL1  H19A 6591   5.920   4.775   9.959 -1.8831  2.2997  0.7423
   56CHL1  H19B 6592   5.988   4.830  10.123 -1.5452  1.2417 -0.5446
   56CHL1  H19C 6593   6.036   4.906   9.969  0.9436 -0.6151 -0.2843
   56CHL1    C1 6594   6.107   4.570  10.074  0.6239  0.3760 -0.0616
   56CHL1   H1A 6595   6.018   4.521  10.029 -0.4488  0.0645  2.2586
   56CHL1   H1B 6596   6.190   4.497  10.058 -0.1923 -0.4840 -0.5263
   56CHL1    C2 6597   6.093   4.581  10.229 -0.3697 -0.6184  0.9651
   56CHL1   H2A 6598   6.064   4.478  10.259 -3.1351 -0.6618 -1.4036
   56CHL1   H2B 6599   6.012   4.653  10.251  0.6282  0.3457  1.5856
   56CHL1   C20 6600   6.080   4.668   9.291  0.3379  0.1134 -0.8763
   56CHL1   H20 6601   6.035   4.769   9.279 -0.4472  0.0720  1.2832
   56CHL1   C21 6602   5.962   4.569   9.321 -0.3466  0.5361 -0.0533
   56CHL1  H21A 6603   6.001   4.473   9.362 -0.5729 -0.4088 -1.9190
   56CHL1  H21B 6604   5.908   4.551   9.225 -0.6045 -0.7182  0.3068
   56CHL1  H21C 6605   5.891   4.609   9.396 -0.5428 -0.7548  0.4711
   56CHL1   C22 6606   6.156   4.649   9.156 -0.6151 -0.1047 -0.3912
   56CHL1  H22A 6607   6.244   4.716   9.165 -0.3472 -0.6648  1.5093
   56CHL1  H22B 6608   6.194   4.545   9.153 -1.0811 -0.2720 -0.5800
   56CHL1   C23 6609   6.072   4.690   9.028 -0.2555  0.7746 -0.6573
   56CHL1  H23A 6610   5.991   4.616   9.015  1.0437 -0.3375 -3.2038
   56CHL1  H23B 6611   6.044   4.796   9.047  2.0650  1.0288  2.0364
   56CHL1   C24 6612   6.159   4.680   8.901 -0.2386 -0.3186 -0.6576
   56CHL1  H24A 6613   6.242   4.753   8.907 -0.0571 -0.5722 -0.0347
   56CHL1  H24B 6614   6.216   4.587   8.921  1.2779  1.1270  2.3445
   56CHL1   C25 6615   6.084   4.683   8.767 -0.4415  0.6585  0.3750
   56CHL1   H25 6616   5.992   4.621   8.774  1.1986 -2.1457 -0.9699
   56CHL1   C26 6617   6.052   4.824   8.711  0.2495 -0.4425  0.4636
   56CHL1  H26A 6618   5.974   4.873   8.773 -0.4232  1.9610 -2.0731
   56CHL1  H26B 6619   6.139   4.893   8.706 -1.9807  2.5955  1.1098
   56CHL1  H26C 6620   6.011   4.808   8.609 -2.2692  1.8734  0.9920
   56CHL1   C27 6621   6.174   4.608   8.666  0.3542  1.0186  0.5107
   56CHL1  H27A 6622   6.123   4.601   8.567 -0.6017 -0.1582  1.0601
   56CHL1  H27B 6623   6.264   4.671   8.650  0.9076  0.2548  0.5882
   56CHL1  H27C 6624   6.194   4.505   8.701 -1.5500  0.4743  0.1075
   57CHL1    C3 6625   5.339   6.210  10.146  0.3752  0.4963 -0.5282
   57CHL1    H3 6626   5.439   6.243  10.110  0.3950  1.3317  0.2514
   57CHL1    O3 6627   5.319   6.232  10.291 -0.1802 -0.0541 -0.2853
   57CHL1   H3' 6628   5.223   6.242  10.287 -0.2620 -0.7014 -0.1571
   57CHL1    C4 6629   5.235   6.303  10.076  0.0435  0.4977 -0.3840
   57CHL1   H4A 6630   5.134   6.286  10.119  0.2283 -0.3245 -0.2608
   57CHL1   H4B 6631   5.258   6.410  10.095 -1.5738  0.7287  0.4629
   57CHL1    C5 6632   5.221   6.283   9.925  0.3649 -0.3465  0.4469
   57CHL1    C6 6633   5.240   6.384   9.836  0.2486 -0.6757  0.0734
   57CHL1    H6 6634   5.266   6.481   9.882 -1.6019  0.2651 -0.7774
   57CHL1    C7 6635   5.220   6.371   9.688  0.0421  0.1146  0.4206
   57CHL1   H7A 6636   5.153   6.449   9.645  0.3590 -0.3244 -0.8924
   57CHL1   H7B 6637   5.315   6.390   9.634 -1.1736 -1.9314 -2.7109
   57CHL1    C8 6638   5.148   6.237   9.648 -0.2182 -0.2519  0.1915
   57CHL1    H8 6639   5.039   6.245   9.666 -0.7427 -1.7153 -1.8989
   57CHL1   C14 6640   5.168   6.208   9.499  0.0893  0.0885 -0.5608
   57CHL1   H14 6641   5.276   6.205   9.475  1.1485  0.4800  3.4402
   57CHL1   C15 6642   5.120   6.317   9.398 -0.4306  0.4490 -0.1255
   57CHL1  H15A 6643   5.030   6.367   9.438 -0.6719  0.9285 -1.2223
   57CHL1  H15B 6644   5.195   6.399   9.390 -0.5146  0.5994  0.5663
   57CHL1   C16 6645   5.107   6.243   9.265 -0.1896  0.2722  0.4260
   57CHL1  H16A 6646   5.005   6.264   9.227 -0.3040  3.9474  2.3210
   57CHL1  H16B 6647   5.184   6.269   9.190 -2.0315  1.8529 -0.9877
   57CHL1   C17 6648   5.125   6.089   9.297 -0.8885  0.4848 -0.1051
   57CHL1   H17 6649   5.229   6.060   9.270 -0.6176  2.0263 -0.8401
   57CHL1   C13 6650   5.102   6.080   9.451  0.2888  0.4959  0.2591
   57CHL1   C18 6651   4.950   6.087   9.473 -0.1262  0.2162 -0.0658
   57CHL1  H18A 6652   4.902   5.999   9.425 -1.5734  1.1321 -0.3708
   57CHL1  H18B 6653   4.930   6.090   9.582 -0.1273 -1.5150  0.0099
   57CHL1  H18C 6654   4.910   6.177   9.422 -0.7439 -0.1057 -0.1661
   57CHL1   C12 6655   5.175   5.972   9.529  1.3026 -0.1252 -0.7895
   57CHL1  H12A 6656   5.143   5.872   9.490  0.8469  0.1997 -1.2604
   57CHL1  H12B 6657   5.280   5.977   9.492  1.7209  1.7473  0.5777
   57CHL1   C11 6658   5.148   5.985   9.677 -0.0590 -0.3033 -0.6171
   57CHL1  H11A 6659   5.045   5.962   9.709  0.4611  0.2676  1.6062
   57CHL1  H11B 6660   5.213   5.902   9.712  1.2259  0.0088 -2.1567
   57CHL1    C9 6661   5.201   6.123   9.732  0.1492  0.3855 -0.1917
   57CHL1    H9 6662   5.308   6.111   9.706 -0.1226  0.1408 -1.2427
   57CHL1   C10 6663   5.191   6.139   9.887  0.1576  0.1295 -0.3259
   57CHL1   C19 6664   5.043   6.113   9.931  0.3111  0.5344 -0.1602
   57CHL1  H19A 6665   4.972   6.174   9.871 -0.9247  1.9226  2.5121
   57CHL1  H19B 6666   5.000   6.012   9.914 -0.4100  1.1528 -2.3476
   57CHL1  H19C 6667   5.026   6.144  10.036  0.3028 -0.5818  0.1786
   57CHL1    C1 6668   5.293   6.046   9.957 -0.2186  0.3692  0.9732
   57CHL1   H1A 6669   5.272   5.937   9.946  1.4149  0.0928  0.3062
   57CHL1   H1B 6670   5.394   6.059   9.912  1.2976 -2.8786  3.0611
   57CHL1    C2 6671   5.297   6.065  10.115  0.4558  0.2200  0.4121
   57CHL1   H2A 6672   5.352   5.982  10.165 -2.1478 -1.8413  0.1342
   57CHL1   H2B 6673   5.193   6.043  10.148  0.7202 -1.2857  0.3439
   57CHL1   C20 6674   5.045   5.997   9.205 -0.0663 -0.0214 -0.0287
   57CHL1   H20 6675   4.936   6.013   9.219 -0.2387  0.9782 -2.0610
   57CHL1   C21 6676   5.070   5.848   9.253  0.1847  0.3147 -0.0886
   57CHL1  H21A 6677   5.010   5.817   9.341  1.8137  0.3050  1.0668
   57CHL1  H21B 6678   5.178   5.843   9.278 -0.2262  1.5923  2.2627
   57CHL1  H21C 6679   5.047   5.767   9.180  2.9136 -1.6705  1.0864
   57CHL1   C22 6680   5.072   6.011   9.055 -1.0322  0.6397 -0.5883
   57CHL1  H22A 6681   5.058   6.119   9.035 -1.5388  0.3534 -1.8410
   57CHL1  H22B 6682   5.176   5.993   9.021 -1.7187  1.9256 -3.7056
   57CHL1   C23 6683   4.976   5.927   8.971  0.0284 -0.5004  0.2016
   57CHL1  H23A 6684   4.983   5.818   8.990  0.0147 -0.8869 -1.8753
   57CHL1  H23B 6685   4.872   5.964   8.984  1.4130  3.1210  2.6619
   57CHL1   C24 6686   5.011   5.950   8.822 -0.1764 -0.3550 -0.0432
   57CHL1  H24A 6687   4.974   6.054   8.806  0.2944 -0.0394  0.8894
   57CHL1  H24B 6688   5.119   5.937   8.800 -0.6517 -0.6285 -2.5546
   57CHL1   C25 6689   4.933   5.860   8.717  0.2213 -0.2636  1.2370
   57CHL1   H25 6690   4.825   5.860   8.742 -0.3987 -0.9523 -1.1539
   57CHL1   C26 6691   4.964   5.905   8.567  0.0294  0.2556  0.1322
   57CHL1  H26A 6692   5.073   5.888   8.554  0.6848  2.2571  2.3747
   57CHL1  H26B 6693   4.896   5.850   8.498 -0.4339  1.0353 -0.0454
   57CHL1  H26C 6694   4.938   6.013   8.555 -0.1886 -0.0267 -2.8947
   57CHL1   C27 6695   4.973   5.705   8.731  0.2755 -0.6862  0.7879
   57CHL1  H27A 6696   4.938   5.655   8.824  2.3997 -2.3186  0.7806
   57CHL1  H27B 6697   4.923   5.651   8.648  1.7578 -0.4050 -0.3319
   57CHL1  H27C 6698   5.082   5.692   8.715  1.2312  2.0026  3.8777
   58CHL1    C3 6699   3.319   5.507  10.021 -0.1636  0.1372  0.2465
   58CHL1    H3 6700   3.359   5.610  10.028 -1.5132  0.8260 -1.3942
   58CHL1    O3 6701   3.340   5.448  10.152 -0.3405  0.0569 -0.2764
   58CHL1   H3' 6702   3.434   5.435  10.167 -0.3782 -0.3506 -0.3873
   58CHL1    C4 6703   3.162   5.504   9.993 -0.2540  0.1444  0.1000
   58CHL1   H4A 6704   3.119   5.410  10.034 -2.1598  1.2857  0.8645
   58CHL1   H4B 6705   3.120   5.587  10.054  1.3736  1.1355 -0.0506
   58CHL1    C5 6706   3.130   5.535   9.847  0.0787 -0.2736  0.1981
   58CHL1    C6 6707   3.043   5.628   9.811  0.2281 -0.6665 -0.5734
   58CHL1    H6 6708   3.001   5.674   9.902  1.3338 -1.3437  0.3121
   58CHL1    C7 6709   2.986   5.653   9.676 -0.9153  0.1751 -0.3481
   58CHL1   H7A 6710   2.875   5.653   9.677 -0.9319 -1.1997  1.0301
   58CHL1   H7B 6711   3.032   5.749   9.642  2.0466 -1.0966 -0.2546
   58CHL1    C8 6712   3.028   5.542   9.577 -0.4635  0.0306 -0.3377
   58CHL1    H8 6713   2.964   5.458   9.613 -1.9553  1.3260  0.1818
   58CHL1   C14 6714   2.995   5.580   9.433 -0.0881  0.5902  0.5874
   58CHL1   H14 6715   3.064   5.663   9.408 -0.0685  0.1375 -0.9390
   58CHL1   C15 6716   2.857   5.637   9.406 -0.3370 -0.6432 -0.8622
   58CHL1  H15A 6717   2.778   5.576   9.456 -1.4401  1.3049 -0.0914
   58CHL1  H15B 6718   2.847   5.745   9.429  2.6517 -0.5910  0.7524
   58CHL1   C16 6719   2.845   5.627   9.256  0.0545 -0.9740 -0.2089
   58CHL1  H16A 6720   2.748   5.577   9.234  1.5252 -2.9904 -2.5294
   58CHL1  H16B 6721   2.849   5.729   9.213  0.1788 -0.4154  1.0660
   58CHL1   C17 6722   2.958   5.535   9.210  0.0863  0.0565  0.0935
   58CHL1   H17 6723   3.032   5.609   9.174  0.6503 -1.2791 -1.6521
   58CHL1   C13 6724   3.019   5.469   9.333  0.1493 -0.1612 -0.1040
   58CHL1   C18 6725   2.932   5.340   9.358 -0.0185 -0.0660  0.7680
   58CHL1  H18A 6726   2.951   5.267   9.276 -1.8470  0.1572  0.0953
   58CHL1  H18B 6727   2.957   5.294   9.456 -1.6576  0.5500  1.5124
   58CHL1  H18C 6728   2.828   5.378   9.365 -0.8441 -2.1744  0.9463
   58CHL1   C12 6729   3.170   5.443   9.343 -1.0605 -0.5262  0.0343
   58CHL1  H12A 6730   3.183   5.352   9.281  0.2685 -0.7217  0.5790
   58CHL1  H12B 6731   3.239   5.520   9.300 -1.2613 -1.0690 -1.3138
   58CHL1   C11 6732   3.221   5.393   9.483  0.0837 -0.6761  0.4705
   58CHL1  H11A 6733   3.163   5.300   9.502 -1.5555 -0.0485 -1.2042
   58CHL1  H11B 6734   3.331   5.385   9.477  0.2601  0.4893  1.6666
   58CHL1    C9 6735   3.177   5.496   9.593 -0.2277 -0.3295  0.3993
   58CHL1    H9 6736   3.239   5.587   9.580 -0.8071  0.0329  0.1481
   58CHL1   C10 6737   3.209   5.452   9.740  0.7083 -0.1111  0.3803
   58CHL1   C19 6738   3.159   5.303   9.756 -0.4172 -0.1582  0.0203
   58CHL1  H19A 6739   3.146   5.262   9.859  0.8703 -1.9551 -0.4808
   58CHL1  H19B 6740   3.055   5.286   9.719 -0.4555 -1.9754  0.8283
   58CHL1  H19C 6741   3.229   5.229   9.711  1.8024  2.9944 -2.1197
   58CHL1    C1 6742   3.365   5.460   9.771  0.2101  0.0397  0.4403
   58CHL1   H1A 6743   3.409   5.389   9.697 -2.3288 -0.2741 -0.8987
   58CHL1   H1B 6744   3.406   5.560   9.743 -0.0126 -0.4997 -2.1215
   58CHL1    C2 6745   3.386   5.419   9.918  0.0180  0.1897 -0.3553
   58CHL1   H2A 6746   3.497   5.414   9.931  0.2975 -3.6801 -2.5938
   58CHL1   H2B 6747   3.355   5.314   9.940  1.1402  0.1823  1.3755
   58CHL1   C20 6748   2.917   5.451   9.085 -0.3665  0.2588 -0.4022
   58CHL1   H20 6749   2.833   5.388   9.122  1.6077 -1.7161  0.9977
   58CHL1   C21 6750   3.037   5.375   9.023  0.0941  0.3413 -0.2938
   58CHL1  H21A 6751   3.016   5.330   8.923  1.0578 -0.2203 -0.2608
   58CHL1  H21B 6752   3.066   5.287   9.085 -0.7279 -0.1049 -0.5245
   58CHL1  H21C 6753   3.116   5.452   9.014  0.3236 -0.0315 -1.6159
   58CHL1   C22 6754   2.846   5.531   8.973 -0.2371 -0.3877  0.4693
   58CHL1  H22A 6755   2.807   5.627   9.014 -1.1905  0.0794 -1.4297
   58CHL1  H22B 6756   2.920   5.555   8.894 -1.0265  0.2910 -0.0853
   58CHL1   C23 6757   2.733   5.463   8.901  0.1842  0.3510  0.4411
   58CHL1  H23A 6758   2.779   5.388   8.833 -1.9191 -1.4568  0.8898
   58CHL1  H23B 6759   2.671   5.403   8.971  0.3777 -1.9831 -1.2388
   58CHL1   C24 6760   2.629   5.550   8.820  0.0601 -0.7171 -0.0864
   58CHL1  H24A 6761   2.578   5.610   8.899  1.4493  0.3441  0.0462
   58CHL1  H24B 6762   2.691   5.612   8.751  0.0941  0.2414  0.7835
   58CHL1   C25 6763   2.520   5.460   8.746  0.0182  0.4322 -1.0935
   58CHL1   H25 6764   2.575   5.374   8.701  0.4351 -1.0882  2.0593
   58CHL1   C26 6765   2.414   5.400   8.844 -0.5496 -0.0564  0.1619
   58CHL1  H26A 6766   2.436   5.293   8.864 -0.0370  0.0816  0.3636
   58CHL1  H26B 6767   2.417   5.454   8.942  0.3238 -1.4034  0.9133
   58CHL1  H26C 6768   2.311   5.399   8.803 -0.2209  0.0706 -0.6908
   58CHL1   C27 6769   2.462   5.548   8.637 -0.0317  0.2096 -0.2264
   58CHL1  H27A 6770   2.539   5.613   8.591 -0.6551  0.2529 -1.2514
   58CHL1  H27B 6771   2.427   5.477   8.558 -2.9563 -3.3943  3.8223
   58CHL1  H27C 6772   2.376   5.611   8.668 -0.0034 -0.0528  0.3899
   59CHL1    C3 6773   0.716   6.212  10.457 -0.1256  0.8531 -0.3366
   59CHL1    H3 6774   0.792   6.286  10.426 -0.6161  0.0562 -3.8602
   59CHL1    O3 6775   0.707   6.211  10.594  0.2430 -0.0156 -0.2719
   59CHL1   H3' 6776   0.683   6.118  10.602 -0.3436  0.0961 -0.7072
   59CHL1    C4 6777   0.584   6.247  10.381 -0.4954  0.2098  0.2809
   59CHL1   H4A 6778   0.511   6.168  10.411  0.4475 -0.4046  1.0147
   59CHL1   H4B 6779   0.550   6.343  10.425  0.1314  0.0324  1.1801
   59CHL1    C5 6780   0.596   6.244  10.236  0.1680 -0.1444  0.1266
   59CHL1    C6 6781   0.571   6.348  10.154  0.6845 -0.3002 -0.0476
   59CHL1    H6 6782   0.532   6.438  10.203 -1.2927 -1.6475  1.0116
   59CHL1    C7 6783   0.579   6.342  10.000 -0.8509 -0.0017 -0.0463
   59CHL1   H7A 6784   0.503   6.404   9.949  0.4086 -0.0763 -2.1078
   59CHL1   H7B 6785   0.677   6.386   9.974 -1.3103  1.2031  0.1733
   59CHL1    C8 6786   0.574   6.193   9.944 -0.4112  0.0209  0.0340
   59CHL1    H8 6787   0.468   6.165   9.959 -0.9607  2.0324  0.2639
   59CHL1   C14 6788   0.614   6.197   9.794 -0.1502  0.7996 -0.2155
   59CHL1   H14 6789   0.716   6.237   9.776  0.3821 -1.0164 -1.5169
   59CHL1   C15 6790   0.517   6.278   9.707  0.1137  0.2667 -0.7833
   59CHL1  H15A 6791   0.414   6.237   9.721  0.4573 -0.7037 -1.0394
   59CHL1  H15B 6792   0.530   6.389   9.715  1.2239  0.1799 -1.2002
   59CHL1   C16 6793   0.553   6.240   9.569 -0.1151  0.0361  0.7751
   59CHL1  H16A 6794   0.465   6.206   9.510 -0.1208  1.0567  0.1674
   59CHL1  H16B 6795   0.589   6.327   9.510  0.6991 -1.1592 -0.5583
   59CHL1   C17 6796   0.653   6.115   9.576  1.1083 -0.4196  0.6270
   59CHL1   H17 6797   0.758   6.152   9.578  1.7840 -2.2755  1.4863
   59CHL1   C13 6798   0.625   6.057   9.717  0.0070 -0.4875  0.2304
   59CHL1   C18 6799   0.495   5.968   9.725  0.0263 -1.0913  0.3041
   59CHL1  H18A 6800   0.508   5.888   9.649  1.8137 -0.6727  0.1338
   59CHL1  H18B 6801   0.472   5.925   9.825  1.5564  0.6655  1.4725
   59CHL1  H18C 6802   0.413   6.038   9.696 -1.4728 -1.6243  2.9174
   59CHL1   C12 6803   0.738   5.980   9.796 -0.5485 -0.1529  0.2216
   59CHL1  H12A 6804   0.757   5.876   9.762  2.6271 -0.4241  2.3857
   59CHL1  H12B 6805   0.836   6.029   9.777  0.8895 -1.5029  3.3949
   59CHL1   C11 6806   0.702   5.977   9.945  0.1451 -0.4214 -0.4853
   59CHL1  H11A 6807   0.617   5.906   9.956 -1.3498  1.0545 -1.9357
   59CHL1  H11B 6808   0.780   5.928  10.007  0.5616  0.5851 -0.1950
   59CHL1    C9 6809   0.668   6.107  10.022  1.1576 -0.1705 -0.1001
   59CHL1    H9 6810   0.759   6.170  10.020  0.9699  0.1586  1.1300
   59CHL1   C10 6811   0.635   6.102  10.177  0.0090 -0.5026 -0.1330
   59CHL1   C19 6812   0.514   6.014  10.197 -0.1332  0.0771  0.0590
   59CHL1  H19A 6813   0.503   5.973  10.299  0.5114 -3.7971 -1.2343
   59CHL1  H19B 6814   0.423   6.068  10.165 -0.8341 -0.8790  0.4038
   59CHL1  H19C 6815   0.525   5.918  10.141 -0.0693 -0.3976  0.8759
   59CHL1    C1 6816   0.761   6.048  10.264  0.2489 -0.0244 -0.2118
   59CHL1   H1A 6817   0.779   5.940  10.248  0.9235 -0.0986  0.9551
   59CHL1   H1B 6818   0.854   6.089  10.221 -0.4157 -0.4765 -2.1517
   59CHL1    C2 6819   0.756   6.067  10.418 -0.8652  0.0477  0.6678
   59CHL1   H2A 6820   0.853   6.041  10.464 -0.8099  0.7955  0.9831
   59CHL1   H2B 6821   0.682   5.992  10.454 -0.3168  0.5401  2.9767
   59CHL1   C20 6822   0.638   6.033   9.446  0.5523  0.3769 -0.2492
   59CHL1   H20 6823   0.533   6.000   9.431  0.8468 -0.9688  0.5392
   59CHL1   C21 6824   0.735   5.915   9.443  0.2894 -0.0164  0.1542
   59CHL1  H21A 6825   0.732   5.879   9.338  0.5860 -1.0269  0.4858
   59CHL1  H21B 6826   0.710   5.830   9.510  0.4557  1.3775  2.0584
   59CHL1  H21C 6827   0.837   5.952   9.466 -0.2705  0.8476  1.3341
   59CHL1   C22 6828   0.684   6.125   9.327 -0.1546  0.2151  0.6073
   59CHL1  H22A 6829   0.654   6.232   9.335  0.5784  0.4313  0.5401
   59CHL1  H22B 6830   0.794   6.129   9.335 -0.1580  0.7492  0.4271
   59CHL1   C23 6831   0.643   6.084   9.183  0.6806 -0.3764 -0.3405
   59CHL1  H23A 6832   0.676   5.980   9.165  2.8312  0.3771 -1.1002
   59CHL1  H23B 6833   0.532   6.092   9.182  0.6062  0.7396  2.7830
   59CHL1   C24 6834   0.711   6.178   9.082  0.2898 -0.4496 -0.0634
   59CHL1  H24A 6835   0.683   6.147   8.979 -0.4935 -1.2416  0.3732
   59CHL1  H24B 6836   0.673   6.280   9.105 -0.3150 -0.9841  1.4124
   59CHL1   C25 6837   0.866   6.172   9.079 -0.1468 -0.1105 -1.0020
   59CHL1   H25 6838   0.891   6.210   9.180 -2.4811 -2.0395  0.4151
   59CHL1   C26 6839   0.915   6.030   9.063  0.2485  1.2729 -0.1140
   59CHL1  H26A 6840   0.885   5.968   9.151 -0.3201 -0.8579 -1.7158
   59CHL1  H26B 6841   0.867   5.971   8.982 -0.0946 -0.1874  1.0940
   59CHL1  H26C 6842   1.026   6.036   9.070  0.1694  0.9304  2.8993
   59CHL1   C27 6843   0.914   6.260   8.960  0.6665  1.3311 -0.4183
   59CHL1  H27A 6844   1.013   6.303   8.986  0.2716  1.4209  1.0702
   59CHL1  H27B 6845   0.917   6.196   8.870 -0.7098 -0.4802  0.7351
   59CHL1  H27C 6846   0.848   6.349   8.951  1.9174  2.1618 -1.6569
   60CHL1    C3 6847   2.146   2.429  10.288  0.2109  0.4894  0.8601
   60CHL1    H3 6848   2.041   2.455  10.266  0.7560  2.0720  0.0016
   60CHL1    O3 6849   2.177   2.374  10.412  0.0574  0.3330 -0.5271
   60CHL1   H3' 6850   2.272   2.362  10.416  0.0094 -0.1539 -0.8038
   60CHL1    C4 6851   2.201   2.344  10.179 -0.4202  0.2872  1.0096
   60CHL1   H4A 6852   2.308   2.341  10.209 -0.1887  0.6882  0.2578
   60CHL1   H4B 6853   2.152   2.245  10.189  0.6138 -0.3241  0.2610
   60CHL1    C5 6854   2.209   2.407  10.042  0.4219 -0.1435  0.2350
   60CHL1    C6 6855   2.150   2.341   9.944  0.1624  0.5294 -0.3012
   60CHL1    H6 6856   2.100   2.247   9.973 -0.6179  0.8766 -0.5099
   60CHL1    C7 6857   2.135   2.386   9.804  0.0181  0.5004  0.3798
   60CHL1   H7A 6858   2.160   2.310   9.726 -0.7747  2.0519 -1.4682
   60CHL1   H7B 6859   2.030   2.393   9.768 -0.5216 -1.7497  1.3342
   60CHL1    C8 6860   2.228   2.511   9.781  0.0972  0.1112 -0.7136
   60CHL1    H8 6861   2.333   2.478   9.770  1.4300  3.3085  0.8478
   60CHL1   C14 6862   2.183   2.592   9.658 -0.2713  0.7407 -0.4794
   60CHL1   H14 6863   2.079   2.629   9.674  0.0694  0.8778  1.7618
   60CHL1   C15 6864   2.166   2.512   9.532 -0.6190  0.1783  0.3859
   60CHL1  H15A 6865   2.256   2.449   9.516 -0.8062 -0.3084  1.2051
   60CHL1  H15B 6866   2.071   2.455   9.534  0.1828 -1.1954  0.0823
   60CHL1   C16 6867   2.156   2.631   9.429  0.6638  0.0271  0.0235
   60CHL1  H16A 6868   2.229   2.613   9.347  0.4214  0.8926 -0.3858
   60CHL1  H16B 6869   2.052   2.634   9.391  0.6913  0.3006 -0.0282
   60CHL1   C17 6870   2.200   2.764   9.496  0.1556  0.3456  0.0407
   60CHL1   H17 6871   2.108   2.823   9.511 -0.6327  0.3149 -3.6291
   60CHL1   C13 6872   2.265   2.717   9.629 -0.2615  0.1877  0.7217
   60CHL1   C18 6873   2.416   2.674   9.602  0.1038 -0.3196 -0.7364
   60CHL1  H18A 6874   2.433   2.635   9.500 -0.0170  1.1740 -1.3557
   60CHL1  H18B 6875   2.472   2.769   9.613 -0.2206 -0.2649  0.7864
   60CHL1  H18C 6876   2.459   2.607   9.680  0.6587  0.1199 -0.6598
   60CHL1   C12 6877   2.244   2.816   9.746 -0.9966 -0.3060 -0.0925
   60CHL1  H12A 6878   2.308   2.907   9.739  0.9994 -1.4352  1.9939
   60CHL1  H12B 6879   2.139   2.851   9.754 -1.2794 -1.3193  0.8584
   60CHL1   C11 6880   2.291   2.744   9.877  0.0211 -0.4427 -0.0114
   60CHL1  H11A 6881   2.399   2.722   9.867 -0.1563 -1.0063 -0.7425
   60CHL1  H11B 6882   2.265   2.819   9.955 -2.9489  0.1948 -1.4625
   60CHL1    C9 6883   2.229   2.606   9.899  0.3305  0.4548 -0.4376
   60CHL1    H9 6884   2.119   2.624   9.908  0.3458  0.0847  0.7216
   60CHL1   C10 6885   2.269   2.542  10.033 -0.5319 -0.3293 -0.0602
   60CHL1   C19 6886   2.424   2.538  10.037 -0.3498 -0.2899  0.3454
   60CHL1  H19A 6887   2.459   2.492   9.943 -0.2107  2.9593 -1.3531
   60CHL1  H19B 6888   2.473   2.633  10.068  0.5073 -0.4157 -0.5954
   60CHL1  H19C 6889   2.449   2.473  10.123  0.4834  0.4708  0.7066
   60CHL1    C1 6890   2.213   2.632  10.143  0.3871 -0.5693 -0.2642
   60CHL1   H1A 6891   2.267   2.728  10.148 -0.3470 -0.1883  0.5726
   60CHL1   H1B 6892   2.107   2.651  10.115 -0.0780 -1.5456  0.7453
   60CHL1    C2 6893   2.219   2.568  10.278 -0.0884  0.7597 -0.8459
   60CHL1   H2A 6894   2.154   2.619  10.353  0.1026 -0.4522  0.1700
   60CHL1   H2B 6895   2.325   2.567  10.311  0.0310  1.0859 -1.2072
   60CHL1   C20 6896   2.279   2.855   9.396 -0.2386 -0.3089 -0.2737
   60CHL1   H20 6897   2.373   2.800   9.375  1.4323  2.0104  0.6972
   60CHL1   C21 6898   2.331   2.985   9.465 -0.7411  0.5483 -0.2692
   60CHL1  H21A 6899   2.397   2.967   9.553 -0.4229 -1.4423 -0.8694
   60CHL1  H21B 6900   2.245   3.053   9.482 -0.7947  0.0248  1.7595
   60CHL1  H21C 6901   2.394   3.046   9.396 -0.5263 -0.0715 -0.6239
   60CHL1   C22 6902   2.215   2.900   9.267  0.3849  0.6003 -0.3945
   60CHL1  H22A 6903   2.165   2.815   9.217 -1.6770  0.9782  0.8952
   60CHL1  H22B 6904   2.136   2.973   9.296  0.2452  0.2636  0.0749
   60CHL1   C23 6905   2.310   2.963   9.165 -0.0006 -0.2084 -0.1849
   60CHL1  H23A 6906   2.349   3.058   9.208  1.7638 -0.5800 -0.8859
   60CHL1  H23B 6907   2.400   2.903   9.143  1.0316  1.4820 -0.7330
   60CHL1   C24 6908   2.233   2.998   9.037 -0.1621 -0.1121  0.1197
   60CHL1  H24A 6909   2.186   2.905   8.999  1.2401 -0.9768  0.4282
   60CHL1  H24B 6910   2.150   3.067   9.066  0.2545  0.1679  0.6713
   60CHL1   C25 6911   2.328   3.060   8.927  0.1459 -0.2599 -0.1176
   60CHL1   H25 6912   2.407   2.986   8.903  0.5760  0.6836 -1.7792
   60CHL1   C26 6913   2.258   3.086   8.787 -0.4500  0.3409 -0.1982
   60CHL1  H26A 6914   2.240   2.991   8.732  0.7615  0.4386 -0.8105
   60CHL1  H26B 6915   2.163   3.138   8.810 -1.2593 -0.0199 -2.4929
   60CHL1  H26C 6916   2.327   3.146   8.724  1.3334  1.6136  2.7487
   60CHL1   C27 6917   2.390   3.190   8.978 -0.0719 -0.2327  0.7188
   60CHL1  H27A 6918   2.444   3.175   9.074 -1.6108  1.3490  1.8895
   60CHL1  H27B 6919   2.454   3.233   8.898 -0.5963 -0.7172  0.0245
   60CHL1  H27C 6920   2.303   3.255   8.998 -0.0270  0.4293 -1.0963
   61CHL1    C3 6921   4.071   3.434  10.488  0.3566  0.3525 -0.0901
   61CHL1    H3 6922   4.021   3.521  10.536  0.3841  0.5040 -0.3293
   61CHL1    O3 6923   4.089   3.324  10.578 -0.6194 -0.2390 -0.3376
   61CHL1   H3' 6924   4.140   3.256  10.533 -0.0029 -1.0970  1.5574
   61CHL1    C4 6925   3.987   3.392  10.365 -0.2557 -0.6622  0.0019
   61CHL1   H4A 6926   4.029   3.295  10.329  0.6432 -0.2055 -0.2144
   61CHL1   H4B 6927   3.883   3.377  10.399 -0.5659 -3.9978 -2.0063
   61CHL1    C5 6928   3.999   3.484  10.243  0.0592 -0.0273 -0.5337
   61CHL1    C6 6929   3.893   3.538  10.178 -0.4902  0.2521 -0.1000
   61CHL1    H6 6930   3.793   3.500  10.204  1.3721 -5.5537 -0.0173
   61CHL1    C7 6931   3.896   3.631  10.060  0.3568  0.6007  0.0070
   61CHL1   H7A 6932   3.824   3.610   9.978 -1.3976  2.0585  1.1025
   61CHL1   H7B 6933   3.859   3.731  10.092  1.2412  0.4450  1.5989
   61CHL1    C8 6934   4.037   3.629   9.994 -0.7334 -0.6454 -0.4201
   61CHL1    H8 6935   4.057   3.530   9.948  4.2980  1.0729 -2.5862
   61CHL1   C14 6936   4.052   3.733   9.883  0.0294 -0.7688  0.2373
   61CHL1   H14 6937   4.047   3.829   9.939 -0.3989 -0.0603 -0.9830
   61CHL1   C15 6938   3.943   3.736   9.776  0.3913  0.2398  0.8008
   61CHL1  H15A 6939   3.906   3.638   9.738  1.1744 -0.4649  1.7931
   61CHL1  H15B 6940   3.862   3.796   9.822  1.4959  1.1225  1.6692
   61CHL1   C16 6941   3.999   3.818   9.659  0.2880  0.4178  0.0595
   61CHL1  H16A 6942   4.004   3.776   9.556 -0.1804 -1.7727  0.8892
   61CHL1  H16B 6943   3.934   3.908   9.660 -0.3131 -0.0132  0.4988
   61CHL1   C17 6944   4.148   3.856   9.701  0.1002  0.6126 -0.9528
   61CHL1   H17 6945   4.152   3.947   9.765  0.8506  0.6652 -1.0690
   61CHL1   C13 6946   4.190   3.742   9.807 -0.0123 -0.4496  0.0259
   61CHL1   C18 6947   4.213   3.599   9.739  0.3550  0.4837 -0.3551
   61CHL1  H18A 6948   4.305   3.602   9.676  0.1292 -2.0978 -0.9092
   61CHL1  H18B 6949   4.215   3.516   9.813 -1.6974  0.0897 -0.6896
   61CHL1  H18C 6950   4.131   3.576   9.668 -1.3955 -0.9020  1.9763
   61CHL1   C12 6951   4.286   3.786   9.914 -0.1188  0.9729  0.1568
   61CHL1  H12A 6952   4.393   3.781   9.883 -0.3222  1.0551 -0.5664
   61CHL1  H12B 6953   4.271   3.881   9.968 -1.9609  1.3693 -0.9870
   61CHL1   C11 6954   4.285   3.680  10.037 -0.2462  0.0593 -0.3535
   61CHL1  H11A 6955   4.346   3.597   9.995  1.8454  1.7133 -0.7658
   61CHL1  H11B 6956   4.356   3.712  10.117 -0.3996 -0.3388 -0.0532
   61CHL1    C9 6957   4.147   3.645  10.102 -0.0068  0.0452  0.5207
   61CHL1    H9 6958   4.126   3.734  10.165  1.6269  0.8259  0.0238
   61CHL1   C10 6959   4.145   3.526  10.202 -0.2902  0.0250  0.3908
   61CHL1   C19 6960   4.240   3.414  10.147 -0.0353  0.1110  0.8017
   61CHL1  H19A 6961   4.340   3.459  10.130  0.5722 -1.8128 -1.2994
   61CHL1  H19B 6962   4.245   3.326  10.215  0.4864  0.0826  0.7264
   61CHL1  H19C 6963   4.205   3.385  10.045 -0.9127  1.8812  0.5560
   61CHL1    C1 6964   4.216   3.574  10.327 -0.6803  0.4112 -0.2969
   61CHL1   H1A 6965   4.322   3.591  10.298 -0.8828 -0.9265 -2.0005
   61CHL1   H1B 6966   4.172   3.672  10.358  1.0010  1.1644 -0.1653
   61CHL1    C2 6967   4.212   3.471  10.451 -0.5422  0.2478 -0.4770
   61CHL1   H2A 6968   4.266   3.504  10.542 -0.5218 -0.3395 -0.2720
   61CHL1   H2B 6969   4.266   3.380  10.416 -1.1112  0.4186 -1.8998
   61CHL1   C20 6970   4.237   3.877   9.583  0.1265 -0.1074  0.7586
   61CHL1   H20 6971   4.245   3.787   9.519  1.3849  1.4600 -1.4152
   61CHL1   C21 6972   4.391   3.898   9.623 -0.6948 -0.3580  0.5616
   61CHL1  H21A 6973   4.392   3.985   9.692 -1.9677  1.0718 -1.1312
   61CHL1  H21B 6974   4.455   3.924   9.537 -0.3506  1.3949  1.3008
   61CHL1  H21C 6975   4.429   3.807   9.674  0.3227 -0.0669  0.3449
   61CHL1   C22 6976   4.190   3.977   9.477  0.1571  0.5173  0.1521
   61CHL1  H22A 6977   4.087   3.950   9.446  0.8812 -1.9115 -0.3764
   61CHL1  H22B 6978   4.170   4.071   9.532 -1.9149 -0.2482  0.8014
   61CHL1   C23 6979   4.273   3.988   9.349  1.0177  0.1895 -0.0831
   61CHL1  H23A 6980   4.357   4.052   9.384  0.1210  1.6618 -0.5682
   61CHL1  H23B 6981   4.321   3.889   9.329  3.7477  0.9086  2.2202
   61CHL1   C24 6982   4.198   4.054   9.238 -0.1686 -0.3387  0.6925
   61CHL1  H24A 6983   4.104   4.003   9.208 -0.2282  0.0340  0.2460
   61CHL1  H24B 6984   4.171   4.159   9.260  2.8347  1.1043 -1.7032
   61CHL1   C25 6985   4.285   4.057   9.109  0.0281  0.0449  0.1666
   61CHL1   H25 6986   4.348   3.965   9.109  0.9303  0.6411 -0.7743
   61CHL1   C26 6987   4.201   4.066   8.980  0.1532 -0.4693 -0.0227
   61CHL1  H26A 6988   4.136   3.978   8.961  0.2829 -0.5956  0.1091
   61CHL1  H26B 6989   4.143   4.160   8.988  0.6268  0.0307 -2.1462
   61CHL1  H26C 6990   4.272   4.073   8.896 -0.4621 -1.3801 -0.6368
   61CHL1   C27 6991   4.375   4.179   9.117 -0.4607  0.7723 -0.9828
   61CHL1  H27A 6992   4.448   4.171   9.200 -0.3164 -4.3077 -1.2736
   61CHL1  H27B 6993   4.419   4.201   9.018 -0.0007 -1.8406 -1.4164
   61CHL1  H27C 6994   4.308   4.264   9.145  1.5504  1.3049  2.8582
   62CHL1    C3 6995   5.898   0.956  10.090  0.0443  0.2190 -0.5163
   62CHL1    H3 6996   6.003   0.925  10.103 -0.2704 -0.6995 -0.1360
   62CHL1    O3 6997   5.850   1.029  10.197 -0.0795 -0.5024 -0.7949
   62CHL1   H3' 6998   5.871   1.122  10.182 -1.5637 -0.3002 -1.9196
   62CHL1    C4 6999   5.887   1.045   9.968  0.5805  0.0262 -0.3834
   62CHL1   H4A 7000   5.778   1.061   9.955  0.6873  0.3902 -0.8449
   62CHL1   H4B 7001   5.924   1.148   9.984 -0.0612  0.0842  0.8401
   62CHL1    C5 7002   5.932   0.973   9.847  1.0467  0.4748 -0.0739
   62CHL1    C6 7003   6.032   1.019   9.768 -0.3586 -0.2359  0.0739
   62CHL1    H6 7004   6.074   1.119   9.784  0.3728  0.0182 -2.9398
   62CHL1    C7 7005   6.098   0.947   9.659  0.4698 -0.8575 -0.0180
   62CHL1   H7A 7006   6.138   1.015   9.581  1.3699 -2.5072 -1.0495
   62CHL1   H7B 7007   6.185   0.898   9.707 -0.9229 -1.9167  1.5307
   62CHL1    C8 7008   6.000   0.845   9.599  0.4730 -0.3898 -0.8825
   62CHL1    H8 7009   5.909   0.894   9.559  0.8042  0.9299 -0.0945
   62CHL1   C14 7010   6.067   0.762   9.501 -0.3802  0.5732  0.3460
   62CHL1   H14 7011   6.142   0.699   9.554 -0.3627 -0.6058 -1.0074
   62CHL1   C15 7012   6.148   0.828   9.387 -0.4544  0.1378  0.4746
   62CHL1  H15A 7013   6.089   0.916   9.353 -3.0010 -0.7990  2.1189
   62CHL1  H15B 7014   6.250   0.851   9.424 -0.4565 -2.3540  2.3030
   62CHL1   C16 7015   6.158   0.724   9.271 -0.0124  1.0092  0.5175
   62CHL1  H16A 7016   6.117   0.769   9.178 -1.0298  1.8000  1.3335
   62CHL1  H16B 7017   6.261   0.692   9.245 -0.2986 -0.5946  1.2551
   62CHL1   C17 7018   6.064   0.605   9.314 -0.0567 -0.6974  0.2205
   62CHL1   H17 7019   6.124   0.537   9.378 -1.6531  0.4179  3.0709
   62CHL1   C13 7020   5.974   0.665   9.429  0.3523 -0.3800 -0.0364
   62CHL1   C18 7021   5.859   0.729   9.357  0.8917 -0.0766 -0.3111
   62CHL1  H18A 7022   5.895   0.808   9.288  0.1715  0.0967 -0.4989
   62CHL1  H18B 7023   5.804   0.653   9.297  0.9776 -0.0161 -0.4664
   62CHL1  H18C 7024   5.789   0.781   9.427  0.7094 -0.0121 -0.5408
   62CHL1   C12 7025   5.928   0.562   9.540  0.1610  0.6742  0.1540
   62CHL1  H12A 7026   5.854   0.488   9.504 -0.2834  1.5946 -0.8377
   62CHL1  H12B 7027   6.005   0.502   9.594  0.5639  1.8337  0.8900
   62CHL1   C11 7028   5.852   0.635   9.651 -0.2056 -0.9295 -0.3214
   62CHL1  H11A 7029   5.749   0.664   9.621  0.3532  1.4384 -0.2118
   62CHL1  H11B 7030   5.847   0.551   9.723 -0.7502 -1.4397 -0.9385
   62CHL1    C9 7031   5.940   0.756   9.708  0.8386 -0.1840 -0.4148
   62CHL1    H9 7032   6.023   0.703   9.758 -0.7013  0.8211  3.5663
   62CHL1   C10 7033   5.865   0.840   9.817 -0.1207 -0.2436 -0.8706
   62CHL1   C19 7034   5.714   0.856   9.771  0.4890  0.3320 -0.0366
   62CHL1  H19A 7035   5.665   0.757   9.775  1.7660 -0.2833  1.8669
   62CHL1  H19B 7036   5.658   0.919   9.843  1.1137 -0.0291  0.7861
   62CHL1  H19C 7037   5.718   0.914   9.676  2.6676  3.5069  1.7880
   62CHL1    C1 7038   5.874   0.753   9.944  0.3904 -0.3284  0.1303
   62CHL1   H1A 7039   5.804   0.667   9.933 -0.5109  0.1725  1.5430
   62CHL1   H1B 7040   5.978   0.722   9.966 -0.1323 -0.8279  2.1575
   62CHL1    C2 7041   5.816   0.825  10.068 -0.0859 -0.6829 -0.3940
   62CHL1   H2A 7042   5.816   0.761  10.160  1.6322  0.6349  0.5883
   62CHL1   H2B 7043   5.709   0.847  10.047 -0.2637 -3.6489 -3.4684
   62CHL1   C20 7044   6.007   0.525   9.193 -0.7188  0.0443  0.8318
   62CHL1   H20 7045   5.937   0.593   9.141  0.6281  1.4806  0.8233
   62CHL1   C21 7046   5.935   0.391   9.234  0.2448 -0.2834  0.4994
   62CHL1  H21A 7047   5.856   0.404   9.311  1.8481  0.9139  2.0293
   62CHL1  H21B 7048   6.014   0.330   9.282  0.7391  0.8553  1.1565
   62CHL1  H21C 7049   5.890   0.343   9.145  0.0119  0.9436 -0.0648
   62CHL1   C22 7050   6.128   0.490   9.087  0.2101 -0.5437 -0.2657
   62CHL1  H22A 7051   6.177   0.589   9.070 -0.3326 -0.6248 -2.6317
   62CHL1  H22B 7052   6.199   0.428   9.147 -2.1500 -2.1870  0.9994
   62CHL1   C23 7053   6.090   0.420   8.959 -0.1207  0.0779 -0.4143
   62CHL1  H23A 7054   5.984   0.388   8.970 -0.0813  0.2383  0.5651
   62CHL1  H23B 7055   6.084   0.488   8.871  1.6156  1.1049  0.2125
   62CHL1   C24 7056   6.178   0.294   8.925  0.0970  0.0954  0.1707
   62CHL1  H24A 7057   6.284   0.329   8.921 -0.8499  3.2548  0.2491
   62CHL1  H24B 7058   6.173   0.223   9.011  0.2858  2.0257  1.8449
   62CHL1   C25 7059   6.152   0.219   8.792  0.3510  0.1098 -0.7247
   62CHL1   H25 7060   6.158   0.294   8.711  0.2013  0.6775 -0.2214
   62CHL1   C26 7061   6.271   0.128   8.771  0.1952 -0.2655  1.2784
   62CHL1  H26A 7062   6.281   0.043   8.841  0.1757 -1.6984 -0.3743
   62CHL1  H26B 7063   6.256   0.083   8.670 -0.2710  2.4467  0.0510
   62CHL1  H26C 7064   6.368   0.178   8.755  0.5803 -0.9313  1.5065
   62CHL1   C27 7065   6.023   0.144   8.784  0.3213 -0.5372  0.4964
   62CHL1  H27A 7066   5.936   0.212   8.771  1.3686  1.1512  1.8781
   62CHL1  H27B 7067   6.024   0.069   8.701 -0.9544 -0.0216  0.0032
   62CHL1  H27C 7068   6.009   0.072   8.868  0.2419 -1.2378 -0.1068
   63CHL1    C3 7069   0.157   2.892  10.216  0.3283  0.2776  0.1052
   63CHL1    H3 7070   0.088   2.806  10.214  0.8845 -0.1635 -0.4527
   63CHL1    O3 7071   0.152   2.928  10.352  0.2246 -0.1275  0.4088
   63CHL1   H3' 7072   0.208   3.005  10.364 -1.3287  0.6366  3.6960
   63CHL1    C4 7073   0.303   2.849  10.178  0.6558  0.0840 -0.5150
   63CHL1   H4A 7074   0.371   2.933  10.200  0.5386 -0.0483  0.3987
   63CHL1   H4B 7075   0.326   2.762  10.243 -0.3138  2.0679  2.7430
   63CHL1    C5 7076   0.304   2.816  10.028  0.2411  0.9271  0.2004
   63CHL1    C6 7077   0.348   2.696   9.981 -0.6073 -0.1383  0.6374
   63CHL1    H6 7078   0.390   2.621  10.050 -0.0232  0.0196  0.4570
   63CHL1    C7 7079   0.360   2.661   9.836  0.3942  0.1150  0.5093
   63CHL1   H7A 7080   0.446   2.592   9.824 -0.1472 -0.2366 -2.0223
   63CHL1   H7B 7081   0.273   2.601   9.804  0.4876  0.1366  0.2128
   63CHL1    C8 7082   0.358   2.783   9.739 -0.5660 -0.2122 -0.5402
   63CHL1    H8 7083   0.460   2.825   9.743 -1.2448  1.5361 -0.7785
   63CHL1   C14 7084   0.318   2.747   9.599  0.1107  0.3341  0.4931
   63CHL1   H14 7085   0.221   2.694   9.605 -0.2037  0.2689 -2.9936
   63CHL1   C15 7086   0.407   2.637   9.539 -0.2606  0.3290 -0.2354
   63CHL1  H15A 7087   0.517   2.649   9.552 -0.4266  2.7004 -0.6300
   63CHL1  H15B 7088   0.380   2.535   9.575  2.1569 -0.3382 -0.1216
   63CHL1   C16 7089   0.370   2.638   9.392 -0.0047  0.4529 -0.5641
   63CHL1  H16A 7090   0.467   2.629   9.339  0.5565 -1.3188  0.6720
   63CHL1  H16B 7091   0.308   2.549   9.366  0.9859 -0.2261 -0.6818
   63CHL1   C17 7092   0.297   2.771   9.363  0.2924 -0.2135 -0.1552
   63CHL1   H17 7093   0.191   2.741   9.345  0.5944  0.1694 -3.0454
   63CHL1   C13 7094   0.322   2.859   9.490  0.0243  0.6247  0.2697
   63CHL1   C18 7095   0.462   2.925   9.486 -0.4597 -0.4376 -0.3467
   63CHL1  H18A 7096   0.484   2.979   9.581  0.5348 -1.2263 -0.1071
   63CHL1  H18B 7097   0.540   2.849   9.464  1.9782  2.0665 -0.7821
   63CHL1  H18C 7098   0.456   3.003   9.408  3.1374 -1.1014 -1.4354
   63CHL1   C12 7099   0.215   2.965   9.527 -0.4654  0.2870  0.0825
   63CHL1  H12A 7100   0.204   3.066   9.483  1.3512  0.0372 -1.0353
   63CHL1  H12B 7101   0.120   2.907   9.518  0.2174 -0.8284 -0.1697
   63CHL1   C11 7102   0.226   3.003   9.683  0.3223 -0.1215  0.4781
   63CHL1  H11A 7103   0.311   3.075   9.684  1.5579 -1.5015 -0.7085
   63CHL1  H11B 7104   0.135   3.065   9.698  0.1803  0.0778 -1.0627
   63CHL1    C9 7105   0.245   2.885   9.783 -0.3474 -0.2616 -0.1164
   63CHL1    H9 7106   0.149   2.828   9.783 -0.9718  0.7521  0.7791
   63CHL1   C10 7107   0.260   2.927   9.934  0.0667 -0.2287 -0.2057
   63CHL1   C19 7108   0.370   3.036   9.946 -0.5467  0.1166  0.2529
   63CHL1  H19A 7109   0.464   3.005   9.895  0.2748  2.1411  0.4447
   63CHL1  H19B 7110   0.343   3.132   9.896  1.6962  2.0662  2.5084
   63CHL1  H19C 7111   0.391   3.060  10.052  0.9958  1.0528 -0.2284
   63CHL1    C1 7112   0.122   2.982   9.983  0.2688 -0.1340 -0.3993
   63CHL1   H1A 7113   0.107   3.080   9.931  1.5298 -0.6213 -1.7607
   63CHL1   H1B 7114   0.031   2.922   9.965  0.1599 -0.0259 -0.2118
   63CHL1    C2 7115   0.113   3.012  10.135  0.1365 -0.8592 -0.1857
   63CHL1   H2A 7116   0.012   3.038  10.171 -0.0033 -2.1569  0.3748
   63CHL1   H2B 7117   0.186   3.095  10.149 -0.4693 -0.1682 -0.9936
   63CHL1   C20 7118   0.340   2.834   9.230 -0.0254 -0.0676  0.4772
   63CHL1   H20 7119   0.447   2.864   9.239  0.1363 -0.0399 -1.1750
   63CHL1   C21 7120   0.253   2.964   9.213  0.4847  0.4133  0.5050
   63CHL1  H21A 7121   0.294   3.057   9.258  0.8771 -0.7391  2.6570
   63CHL1  H21B 7122   0.152   2.950   9.255 -0.0587 -3.2675 -1.5527
   63CHL1  H21C 7123   0.259   2.988   9.105  3.7170 -0.2397  0.4189
   63CHL1   C22 7124   0.338   2.734   9.110 -0.0644 -0.1103 -0.3819
   63CHL1  H22A 7125   0.368   2.790   9.019  1.3963  1.2074  0.8483
   63CHL1  H22B 7126   0.414   2.655   9.121 -1.5801 -1.3672  1.8017
   63CHL1   C23 7127   0.195   2.671   9.073 -0.1730  0.6548  0.4608
   63CHL1  H23A 7128   0.156   2.611   9.157 -1.3204  2.3804  1.2204
   63CHL1  H23B 7129   0.128   2.758   9.052 -1.8532  0.0553  2.9844
   63CHL1   C24 7130   0.224   2.581   8.950  0.1419  0.4070 -0.5638
   63CHL1  H24A 7131   0.237   2.642   8.859 -1.1280  0.2379 -0.8811
   63CHL1  H24B 7132   0.315   2.521   8.970 -1.1622 -1.1374  1.0191
   63CHL1   C25 7133   0.102   2.497   8.913  0.3272 -0.4605 -0.0075
   63CHL1   H25 7134   0.016   2.567   8.914 -0.7860 -1.7918  0.4300
   63CHL1   C26 7135   0.105   2.445   8.769  0.6651  0.6095  1.0347
   63CHL1  H26A 7136   0.198   2.389   8.744  0.5821  0.8614  0.1032
   63CHL1  H26B 7137   0.014   2.383   8.754  0.1172  0.9461  2.7698
   63CHL1  H26C 7138   0.093   2.532   8.701  2.0232 -0.1528 -0.2371
   63CHL1   C27 7139   0.067   2.382   9.011  0.2128 -0.6732 -0.1311
   63CHL1  H27A 7140  -0.021   2.318   8.989  0.7776 -1.5545  0.0791
   63CHL1  H27B 7141   0.150   2.308   9.020  1.3183  0.5640  0.1630
   63CHL1  H27C 7142   0.057   2.420   9.114  0.7919 -2.3061  0.5651
   64CHL1    C3 7143   6.530   1.656  10.194 -0.6411 -0.4158  0.5135
   64CHL1    H3 7144   6.626   1.606  10.171 -1.2252 -0.2574 -2.6669
   64CHL1    O3 7145   6.490   1.623  10.325  0.1120  0.3074  0.0135
   64CHL1   H3' 7146   6.418   1.683  10.342  1.3783  2.3908 -1.5202
   64CHL1    C4 7147   6.551   1.807  10.184 -0.4765  0.0824 -0.7662
   64CHL1   H4A 7148   6.456   1.854  10.219  0.3055  0.0381  1.6445
   64CHL1   H4B 7149   6.628   1.842  10.256 -1.7292  1.0114  0.1618
   64CHL1    C5 7150   6.593   1.846  10.046 -0.0901 -0.2350  0.6567
   64CHL1    C6 7151   6.708   1.911  10.028  0.8106  0.1212 -0.4837
   64CHL1    H6 7152   6.765   1.933  10.119  0.2163 -2.0614  0.4660
   64CHL1    C7 7153   6.753   1.959   9.895 -0.1904  0.0866  0.3795
   64CHL1   H7A 7154   6.790   2.063   9.908  0.5094  0.4432 -3.3682
   64CHL1   H7B 7155   6.832   1.894   9.851 -0.8807 -1.3673  1.2308
   64CHL1    C8 7156   6.644   1.959   9.785 -0.5521 -0.1066  0.3087
   64CHL1    H8 7157   6.582   2.046   9.815  1.1076  0.4473  2.2611
   64CHL1   C14 7158   6.692   1.992   9.641 -0.5491  0.8226  0.0680
   64CHL1   H14 7159   6.774   1.921   9.617 -0.3092  0.9117  0.5965
   64CHL1   C15 7160   6.774   2.117   9.615 -0.5711  0.2628  0.6913
   64CHL1  H15A 7161   6.729   2.205   9.666  1.0572  0.3584  2.0602
   64CHL1  H15B 7162   6.878   2.107   9.651 -1.0609  0.9971  2.4208
   64CHL1   C16 7163   6.787   2.124   9.459 -0.4039  0.0215  0.3798
   64CHL1  H16A 7164   6.757   2.225   9.422 -0.6118 -0.1136  0.1738
   64CHL1  H16B 7165   6.881   2.092   9.410 -0.1237  1.5931 -0.1500
   64CHL1   C17 7166   6.684   2.015   9.417  0.2565 -0.4160 -0.1525
   64CHL1   H17 7167   6.742   1.921   9.412  0.5038 -0.2366 -0.8327
   64CHL1   C13 7168   6.589   1.989   9.531 -0.3721 -0.0143 -0.9511
   64CHL1   C18 7169   6.488   2.099   9.561  0.1200 -0.1749 -0.0726
   64CHL1  H18A 7170   6.535   2.200   9.559  0.0160 -0.1280 -0.1353
   64CHL1  H18B 7171   6.414   2.097   9.478 -0.1717 -0.9435  0.2019
   64CHL1  H18C 7172   6.433   2.101   9.657  1.3143 -1.9870  0.6983
   64CHL1   C12 7173   6.516   1.845   9.534 -0.2744 -0.9468  0.0406
   64CHL1  H12A 7174   6.439   1.843   9.455 -0.0982 -1.3265 -0.1248
   64CHL1  H12B 7175   6.590   1.766   9.508  1.0797  0.1729  0.3799
   64CHL1   C11 7176   6.456   1.822   9.671  0.2506  0.7260  0.0128
   64CHL1  H11A 7177   6.369   1.889   9.687 -1.1693 -1.5663  2.8377
   64CHL1  H11B 7178   6.406   1.723   9.667 -1.8756  1.7546  0.0033
   64CHL1    C9 7179   6.563   1.828   9.789  0.2855 -0.0018  0.1881
   64CHL1    H9 7180   6.628   1.741   9.766 -1.8946 -1.7984  0.4803
   64CHL1   C10 7181   6.507   1.799   9.928 -0.2176  0.4823 -0.4710
   64CHL1   C19 7182   6.374   1.869   9.951  0.1494  0.1494  0.5721
   64CHL1  H19A 7183   6.381   1.979   9.942 -1.8311  0.2531 -0.3536
   64CHL1  H19B 7184   6.290   1.829   9.890 -1.3500  2.4293  1.0509
   64CHL1  H19C 7185   6.330   1.855  10.052 -0.6479 -0.7820  0.1176
   64CHL1    C1 7186   6.472   1.647   9.948  0.1019 -0.2832  0.4019
   64CHL1   H1A 7187   6.390   1.620   9.878  0.5062 -0.2687 -0.0903
   64CHL1   H1B 7188   6.565   1.596   9.912 -0.5319 -0.1191 -1.5992
   64CHL1    C2 7189   6.429   1.604  10.090 -0.7252 -0.1230 -0.0639
   64CHL1   H2A 7190   6.429   1.493  10.091  0.6643 -0.1435  1.0988
   64CHL1   H2B 7191   6.331   1.644  10.124 -0.8105 -1.1250  0.9225
   64CHL1   C20 7192   6.624   2.037   9.273 -0.5398  0.5484 -0.9221
   64CHL1   H20 7193   6.532   1.974   9.271  0.4920 -1.1651  1.1013
   64CHL1   C21 7194   6.735   1.978   9.175 -0.2499 -0.1008  1.0102
   64CHL1  H21A 7195   6.718   1.869   9.186 -3.2902  0.3575  1.6874
   64CHL1  H21B 7196   6.836   2.002   9.216  0.3737 -0.7561 -0.0925
   64CHL1  H21C 7197   6.717   2.012   9.071  0.4955 -1.7132  0.3105
   64CHL1   C22 7198   6.595   2.178   9.228  0.2547 -0.3312 -0.5992
   64CHL1  H22A 7199   6.541   2.232   9.308  0.7851  0.3110 -0.6647
   64CHL1  H22B 7200   6.694   2.225   9.211 -0.0157  0.0467 -1.1744
   64CHL1   C23 7201   6.512   2.184   9.099  0.5659  0.6067 -0.2699
   64CHL1  H23A 7202   6.567   2.145   9.011  0.4815  3.1637 -1.5577
   64CHL1  H23B 7203   6.419   2.126   9.119  1.7581 -1.1918  0.2892
   64CHL1   C24 7204   6.475   2.329   9.064 -0.8364  0.5352 -0.3176
   64CHL1  H24A 7205   6.392   2.361   9.130  0.8033  1.4017  1.4385
   64CHL1  H24B 7206   6.556   2.405   9.073  0.9728 -1.3354  0.1665
   64CHL1   C25 7207   6.410   2.338   8.920  0.8238  0.0165  0.0784
   64CHL1   H25 7208   6.324   2.269   8.912  1.8312 -1.2446 -0.3244
   64CHL1   C26 7209   6.360   2.483   8.895 -0.0129  0.5921  0.6801
   64CHL1  H26A 7210   6.271   2.508   8.956 -1.0520 -2.0657  0.3536
   64CHL1  H26B 7211   6.440   2.560   8.907  2.4147 -1.2048 -2.3844
   64CHL1  H26C 7212   6.322   2.497   8.791  0.5582  0.9302  0.5100
   64CHL1   C27 7213   6.504   2.305   8.801 -0.5538 -0.4077  0.3550
   64CHL1  H27A 7214   6.569   2.395   8.792 -3.8815  2.1510 -0.1992
   64CHL1  H27B 7215   6.565   2.213   8.814  1.6573  0.9151 -0.1443
   64CHL1  H27C 7216   6.438   2.292   8.713 -1.4100  1.6922  0.6223
   65CHL1    C3 7217   0.621   5.705  10.456  0.2190  0.2789  0.3552
   65CHL1    H3 7218   0.614   5.808  10.416 -2.1858  0.5458  1.3044
   65CHL1    O3 7219   0.623   5.714  10.600 -0.4767  0.2369 -0.5727
   65CHL1   H3' 7220   0.582   5.797  10.628  2.4711  1.0952  1.6528
   65CHL1    C4 7221   0.515   5.613  10.399 -0.1648  0.7110  0.0014
   65CHL1   H4A 7222   0.522   5.508  10.434 -0.1929  0.6358 -0.2173
   65CHL1   H4B 7223   0.417   5.648  10.438 -0.4079  2.3181 -1.8945
   65CHL1    C5 7224   0.522   5.612  10.251 -0.5405 -0.0220  1.0762
   65CHL1    C6 7225   0.419   5.656  10.175  0.0061  0.1846  0.0771
   65CHL1    H6 7226   0.328   5.691  10.226  0.0080  3.4471 -1.8373
   65CHL1    C7 7227   0.410   5.647  10.022  0.1688 -0.4302 -0.2506
   65CHL1   H7A 7228   0.314   5.619   9.976  1.2664 -0.0139 -2.9765
   65CHL1   H7B 7229   0.442   5.744   9.979 -1.6196 -0.1018 -0.9229
   65CHL1    C8 7230   0.521   5.552   9.964  0.1797 -0.0112  0.2686
   65CHL1    H8 7231   0.483   5.450   9.985  0.0133  0.3195  1.6557
   65CHL1   C14 7232   0.542   5.574   9.816 -0.0691 -0.8059  0.1482
   65CHL1   H14 7233   0.588   5.675   9.814 -0.0959 -0.7731  1.1239
   65CHL1   C15 7234   0.423   5.591   9.718 -0.3820  0.6807  1.0451
   65CHL1  H15A 7235   0.362   5.506   9.755  1.6885 -1.4141 -0.1173
   65CHL1  H15B 7236   0.366   5.687   9.724  0.3544  1.2198 -0.3388
   65CHL1   C16 7237   0.491   5.580   9.578  0.1638  0.4128 -0.0610
   65CHL1  H16A 7238   0.448   5.501   9.513 -2.0241  1.3260  0.1728
   65CHL1  H16B 7239   0.517   5.675   9.526 -0.0745  0.0386 -0.8770
   65CHL1   C17 7240   0.642   5.542   9.606  0.5112 -0.7293  0.3432
   65CHL1   H17 7241   0.696   5.639   9.596 -2.0812  0.5682 -3.9574
   65CHL1   C13 7242   0.650   5.492   9.749 -0.6370 -0.0035 -0.2248
   65CHL1   C18 7243   0.605   5.347   9.762 -0.1656 -0.0328 -0.1419
   65CHL1  H18A 7244   0.678   5.278   9.714 -0.6137 -0.2714 -0.4958
   65CHL1  H18B 7245   0.597   5.324   9.871  1.6345  0.4713  0.1315
   65CHL1  H18C 7246   0.506   5.325   9.717 -0.6991 -0.9751  1.3949
   65CHL1   C12 7247   0.787   5.518   9.823 -0.1197 -0.3941 -0.0629
   65CHL1  H12A 7248   0.866   5.457   9.775 -0.0656 -0.8416  0.5751
   65CHL1  H12B 7249   0.812   5.626   9.812 -1.3000  0.0791  1.4656
   65CHL1   C11 7250   0.782   5.507   9.973  0.0443  0.5560 -0.3362
   65CHL1  H11A 7251   0.785   5.397   9.989 -2.7115  0.6397  1.4801
   65CHL1  H11B 7252   0.875   5.554  10.013  0.1672  0.1041 -0.0793
   65CHL1    C9 7253   0.661   5.571  10.039 -0.0430  0.5566 -0.5460
   65CHL1    H9 7254   0.683   5.680  10.035 -1.4355  0.8266 -1.6354
   65CHL1   C10 7255   0.651   5.546  10.196 -0.4653 -0.1790  0.2873
   65CHL1   C19 7256   0.647   5.393  10.227 -1.3530 -0.6020  0.0223
   65CHL1  H19A 7257   0.740   5.350  10.184 -0.7730 -0.4799  1.1307
   65CHL1  H19B 7258   0.651   5.370  10.335  1.7700 -1.3737 -0.1714
   65CHL1  H19C 7259   0.558   5.339  10.187 -0.0627 -1.7939 -1.3503
   65CHL1    C1 7260   0.768   5.615  10.267  0.4718 -0.5768 -0.6201
   65CHL1   H1A 7261   0.863   5.564  10.238  0.5259 -1.8767  1.6701
   65CHL1   H1B 7262   0.784   5.718  10.228 -1.1952 -0.0632 -0.0185
   65CHL1    C2 7263   0.756   5.633  10.420 -0.3781 -0.0166  0.0092
   65CHL1   H2A 7264   0.846   5.685  10.458 -1.3238  1.0031  0.9077
   65CHL1   H2B 7265   0.755   5.532  10.467  1.5627  0.5285  1.3382
   65CHL1   C20 7266   0.705   5.461   9.491 -0.3511  0.7899  0.5829
   65CHL1   H20 7267   0.663   5.359   9.503 -0.9315  1.2397  2.7911
   65CHL1   C21 7268   0.862   5.462   9.500  0.3199  0.6126 -0.3847
   65CHL1  H21A 7269   0.898   5.417   9.595 -0.3796  2.3324  0.7387
   65CHL1  H21B 7270   0.904   5.564   9.484  1.8393 -0.1408 -1.4299
   65CHL1  H21C 7271   0.890   5.398   9.413  2.5821 -1.8138  1.9587
   65CHL1   C22 7272   0.674   5.521   9.348  0.7989 -0.7106  0.0427
   65CHL1  H22A 7273   0.564   5.534   9.340  0.9753 -0.2529 -2.2465
   65CHL1  H22B 7274   0.719   5.621   9.331  1.4785 -1.0259 -0.0226
   65CHL1   C23 7275   0.707   5.423   9.234  0.0296  0.6733 -0.0615
   65CHL1  H23A 7276   0.817   5.411   9.235 -0.1916 -1.9774  0.8986
   65CHL1  H23B 7277   0.671   5.321   9.259  0.3066  0.3974 -0.7640
   65CHL1   C24 7278   0.664   5.478   9.100  0.0288 -0.2756 -0.5317
   65CHL1  H24A 7279   0.553   5.486   9.097  0.0213  0.1982  0.4618
   65CHL1  H24B 7280   0.708   5.579   9.087 -0.9070 -0.0161 -1.8302
   65CHL1   C25 7281   0.716   5.406   8.973 -0.2965 -0.6912  0.3962
   65CHL1   H25 7282   0.824   5.391   8.994  0.2019  0.9107 -0.8885
   65CHL1   C26 7283   0.646   5.276   8.938  0.9279 -0.7345 -0.5901
   65CHL1  H26A 7284   0.539   5.302   8.923  0.8689 -0.7610 -0.2133
   65CHL1  H26B 7285   0.691   5.246   8.841  2.3346 -0.1666 -0.1371
   65CHL1  H26C 7286   0.670   5.197   9.012  2.6260  0.8809  0.6720
   65CHL1   C27 7287   0.701   5.496   8.846  0.1099 -0.1417  0.3582
   65CHL1  H27A 7288   0.601   5.535   8.821  0.6890  0.0034 -1.9653
   65CHL1  H27B 7289   0.774   5.579   8.855 -1.2340  0.9839  1.2419
   65CHL1  H27C 7290   0.735   5.434   8.760 -1.3951  0.8632 -1.0157
   66CHL1    C3 7291   3.597   2.057  10.529  0.1629 -0.1981  0.0227
   66CHL1    H3 7292   3.702   2.020  10.519  0.2449  0.5341 -2.2532
   66CHL1    O3 7293   3.543   2.018  10.653 -0.6513  0.4237 -0.1999
   66CHL1   H3' 7294   3.492   2.094  10.681 -1.3207  0.2182 -0.8086
   66CHL1    C4 7295   3.593   2.205  10.518 -0.1947  0.3378 -0.1614
   66CHL1   H4A 7296   3.488   2.230  10.547 -0.1960  1.6506 -1.1971
   66CHL1   H4B 7297   3.657   2.252  10.595  1.7949 -1.0694 -0.8897
   66CHL1    C5 7298   3.622   2.258  10.377  0.0828 -0.3199 -0.4799
   66CHL1    C6 7299   3.719   2.355  10.362  0.0351  0.0686  0.2520
   66CHL1    H6 7300   3.779   2.387  10.448  0.7308  0.8435 -0.5051
   66CHL1    C7 7301   3.754   2.415  10.224  0.6921 -0.8160  0.0551
   66CHL1   H7A 7302   3.742   2.525  10.232  2.3645 -0.7219  3.5469
   66CHL1   H7B 7303   3.862   2.399  10.205  1.3489  1.1314  1.7278
   66CHL1    C8 7304   3.660   2.360  10.113 -0.3768  0.3052  0.1668
   66CHL1    H8 7305   3.567   2.420  10.104 -1.2058 -1.0518 -0.6476
   66CHL1   C14 7306   3.731   2.374   9.984  0.2101  0.0675 -0.4436
   66CHL1   H14 7307   3.825   2.316   9.987 -0.8444 -1.6666  0.2599
   66CHL1   C15 7308   3.779   2.518   9.949 -0.3963  0.6146  0.2387
   66CHL1  H15A 7309   3.693   2.587   9.963 -1.7841 -0.4268 -2.4606
   66CHL1  H15B 7310   3.867   2.545  10.011 -0.8755  1.1644  0.7030
   66CHL1   C16 7311   3.804   2.514   9.799 -0.5601 -0.3177  0.1080
   66CHL1  H16A 7312   3.738   2.586   9.746 -0.5567 -1.0557 -0.9193
   66CHL1  H16B 7313   3.910   2.522   9.770  0.2712 -1.1492  2.6362
   66CHL1   C17 7314   3.751   2.377   9.751 -0.2475  0.3176  0.0078
   66CHL1   H17 7315   3.841   2.312   9.755 -0.7982 -0.4161  1.2430
   66CHL1   C13 7316   3.661   2.322   9.856 -0.1632 -0.1407 -0.0319
   66CHL1   C18 7317   3.524   2.406   9.829  0.7068  1.1153 -0.1714
   66CHL1  H18A 7318   3.483   2.376   9.730 -1.1868  0.5214  0.7419
   66CHL1  H18B 7319   3.451   2.386   9.911 -0.6329 -1.9548 -1.9441
   66CHL1  H18C 7320   3.559   2.511   9.838  0.0974  1.3853 -0.8380
   66CHL1   C12 7321   3.639   2.170   9.880 -0.4280  0.3314  0.2223
   66CHL1  H12A 7322   3.592   2.132   9.787  2.4346  0.9152 -1.5702
   66CHL1  H12B 7323   3.736   2.118   9.893 -1.6415 -2.4239 -1.0748
   66CHL1   C11 7324   3.557   2.150  10.003  0.2751  0.0682  1.2116
   66CHL1  H11A 7325   3.457   2.197   9.998  1.3143  2.3262 -1.3720
   66CHL1  H11B 7326   3.532   2.042  10.010 -0.7327  0.0534 -1.4512
   66CHL1    C9 7327   3.624   2.216  10.126  0.2729 -0.1624 -0.7508
   66CHL1    H9 7328   3.718   2.157  10.139 -0.5301 -1.1258  1.1136
   66CHL1   C10 7329   3.554   2.189  10.258  0.1834  0.7189 -0.5478
   66CHL1   C19 7330   3.410   2.237  10.249 -0.7194 -0.3602 -0.1565
   66CHL1  H19A 7331   3.399   2.340  10.209 -1.2848  0.0152  0.9163
   66CHL1  H19B 7332   3.342   2.164  10.200 -0.2339 -0.2645 -0.9987
   66CHL1  H19C 7333   3.365   2.241  10.351 -1.5011  2.8739 -0.5125
   66CHL1    C1 7334   3.543   2.036  10.281  0.4891 -0.3301  0.3093
   66CHL1   H1A 7335   3.479   1.984  10.207  3.6500 -0.3415 -2.7200
   66CHL1   H1B 7336   3.638   1.982  10.262 -1.1383 -2.8798 -1.1463
   66CHL1    C2 7337   3.506   1.996  10.423  0.4007  0.2847 -0.4222
   66CHL1   H2A 7338   3.491   1.886  10.434 -0.4057  0.4583  0.3883
   66CHL1   H2B 7339   3.404   2.036  10.443  0.9692  1.0762  1.0427
   66CHL1   C20 7340   3.713   2.382   9.607  0.2738 -0.1021 -0.2175
   66CHL1   H20 7341   3.611   2.420   9.588 -0.4776 -1.4126  0.9889
   66CHL1   C21 7342   3.714   2.237   9.554  0.5729 -0.2640  0.2862
   66CHL1  H21A 7343   3.652   2.224   9.463  0.2202 -1.3795  0.6708
   66CHL1  H21B 7344   3.658   2.177   9.629  0.5132  0.9799  1.2612
   66CHL1  H21C 7345   3.810   2.181   9.549  0.0130 -1.1766 -1.2922
   66CHL1   C22 7346   3.826   2.462   9.524 -0.3329 -0.1118 -0.3628
   66CHL1  H22A 7347   3.838   2.567   9.560 -2.7242 -0.5721  2.1229
   66CHL1  H22B 7348   3.925   2.413   9.529  0.2422  0.6762 -2.6376
   66CHL1   C23 7349   3.792   2.470   9.373  0.7691 -0.4028 -0.4119
   66CHL1  H23A 7350   3.791   2.366   9.334 -1.8387 -1.3245  1.7799
   66CHL1  H23B 7351   3.686   2.500   9.356  0.9699  0.0210 -0.9516
   66CHL1   C24 7352   3.882   2.565   9.296 -0.7167 -0.0828  0.1326
   66CHL1  H24A 7353   3.877   2.661   9.351  1.2197  0.6406 -0.8398
   66CHL1  H24B 7354   3.984   2.521   9.295 -0.6752 -0.0753 -2.1149
   66CHL1   C25 7355   3.847   2.601   9.149 -0.0702  0.6049  0.2633
   66CHL1   H25 7356   3.858   2.507   9.090  0.0491  1.3623 -0.9527
   66CHL1   C26 7357   3.697   2.642   9.129 -1.0490  0.0714 -0.0045
   66CHL1  H26A 7358   3.661   2.728   9.189 -0.1514  1.7188 -1.7112
   66CHL1  H26B 7359   3.679   2.656   9.020 -1.3235 -1.1438 -0.1365
   66CHL1  H26C 7360   3.632   2.554   9.149 -1.7968  0.5883 -0.1361
   66CHL1   C27 7361   3.950   2.691   9.089  0.3942 -0.0847 -0.5120
   66CHL1  H27A 7362   3.945   2.791   9.138 -1.8739 -0.1351 -0.5138
   66CHL1  H27B 7363   4.052   2.649   9.098 -0.0355 -1.1850 -0.6285
   66CHL1  H27C 7364   3.935   2.721   8.983  0.9224  1.8156 -0.0947
   67CHL1    C3 7365   3.067   2.974  10.237 -0.3920 -0.2409  0.5140
   67CHL1    H3 7366   3.103   2.874  10.205  1.6488  0.8656 -0.8598
   67CHL1    O3 7367   3.030   2.976  10.376 -0.0420 -0.2926  0.0289
   67CHL1   H3' 7368   3.017   3.069  10.396  0.9011 -0.2565  0.5189
   67CHL1    C4 7369   3.171   3.090  10.213  0.7119 -0.2411 -0.0365
   67CHL1   H4A 7370   3.124   3.187  10.239  3.1221  0.8866  0.2961
   67CHL1   H4B 7371   3.268   3.078  10.266  1.1610 -1.3483 -1.0506
   67CHL1    C5 7372   3.205   3.100  10.068  0.4950  0.1915 -0.1463
   67CHL1    C6 7373   3.330   3.097  10.028 -0.4935 -0.3636  0.3922
   67CHL1    H6 7374   3.413   3.093  10.100  2.1754 -0.1692 -2.5097
   67CHL1    C7 7375   3.368   3.100   9.885  0.2796  0.2210 -0.4644
   67CHL1   H7A 7376   3.465   3.150   9.867  0.1033  0.9533  0.5172
   67CHL1   H7B 7377   3.380   2.997   9.845  0.6260  0.1514 -0.1889
   67CHL1    C8 7378   3.263   3.174   9.801  0.2704  0.4962  0.1331
   67CHL1    H8 7379   3.265   3.281   9.829  0.5097  0.5390 -0.0423
   67CHL1   C14 7380   3.301   3.156   9.655 -0.0711 -0.4601 -0.2571
   67CHL1   H14 7381   3.290   3.047   9.640  1.8403 -0.7222 -0.0098
   67CHL1   C15 7382   3.448   3.186   9.607  0.3139 -0.2210  0.2818
   67CHL1  H15A 7383   3.482   3.287   9.637 -2.1392  0.9627 -0.6119
   67CHL1  H15B 7384   3.520   3.108   9.639  0.6255  0.7608  2.0697
   67CHL1   C16 7385   3.436   3.191   9.451 -0.4567  0.5468  0.3053
   67CHL1  H16A 7386   3.476   3.289   9.419 -0.7977  0.5215 -0.2065
   67CHL1  H16B 7387   3.480   3.101   9.402 -1.6130  0.3149 -0.3370
   67CHL1   C17 7388   3.288   3.176   9.416  0.9552  0.0173  0.1951
   67CHL1   H17 7389   3.259   3.069   9.411  3.7488 -0.9154  1.8893
   67CHL1   C13 7390   3.210   3.214   9.550 -0.5415 -1.1122  0.6291
   67CHL1   C18 7391   3.217   3.370   9.561 -0.3887 -0.1343 -0.4537
   67CHL1  H18A 7392   3.136   3.412   9.498 -0.5398 -0.2723 -0.3533
   67CHL1  H18B 7393   3.196   3.406   9.664  1.1334  3.5593 -1.2823
   67CHL1  H18C 7394   3.318   3.410   9.539  0.5623 -2.1505 -0.0144
   67CHL1   C12 7395   3.065   3.168   9.575 -0.4779  0.1119  0.4940
   67CHL1  H12A 7396   2.988   3.219   9.512  0.7246  0.5423 -0.6648
   67CHL1  H12B 7397   3.052   3.060   9.554 -1.2488  0.0913  1.0441
   67CHL1   C11 7398   3.023   3.178   9.721 -0.6002  0.2172 -0.2918
   67CHL1  H11A 7399   3.007   3.286   9.738  1.6671  0.7355 -1.0571
   67CHL1  H11B 7400   2.931   3.121   9.744 -0.0740 -0.7655 -0.5454
   67CHL1    C9 7401   3.128   3.122   9.825  0.0375 -0.4455  0.1131
   67CHL1    H9 7402   3.145   3.017   9.794 -0.0590 -0.3010 -0.4346
   67CHL1   C10 7403   3.084   3.125   9.970  0.3936  1.0000  0.0016
   67CHL1   C19 7404   3.009   3.257  10.004  0.6691 -0.3702  0.6922
   67CHL1  H19A 7405   3.078   3.342   9.984  1.4191 -1.2823 -0.7549
   67CHL1  H19B 7406   2.924   3.257   9.933  2.7553 -2.3015 -2.0311
   67CHL1  H19C 7407   2.959   3.266  10.103 -0.9076 -2.6233  0.1786
   67CHL1    C1 7408   2.978   3.010  10.005  0.3648 -0.3471  0.0154
   67CHL1   H1A 7409   2.888   3.035   9.946  0.8730  1.0882 -0.2020
   67CHL1   H1B 7410   3.013   2.911   9.968  0.3903 -0.8378  1.3005
   67CHL1    C2 7411   2.937   2.997  10.153 -0.3398 -0.1623  0.6078
   67CHL1   H2A 7412   2.865   2.912  10.157  0.4406 -1.0850 -2.3438
   67CHL1   H2B 7413   2.874   3.081  10.190  0.5777  1.1307 -0.6419
   67CHL1   C20 7414   3.239   3.243   9.282 -0.3156  0.3263 -0.7872
   67CHL1   H20 7415   3.209   3.347   9.307  1.2877  0.7755 -0.6495
   67CHL1   C21 7416   3.113   3.181   9.223  0.1926  0.1004  0.1961
   67CHL1  H21A 7417   3.129   3.082   9.174  2.1557  1.2928 -1.7194
   67CHL1  H21B 7418   3.065   3.247   9.147 -0.6479 -2.4140 -1.5946
   67CHL1  H21C 7419   3.044   3.170   9.310 -1.8542 -1.8374 -1.5336
   67CHL1   C22 7420   3.343   3.229   9.176 -0.1078 -0.1874  1.1058
   67CHL1  H22A 7421   3.419   3.302   9.210  0.2919  0.2390 -0.6310
   67CHL1  H22B 7422   3.384   3.125   9.173  1.2094  0.3457 -0.6165
   67CHL1   C23 7423   3.306   3.260   9.027  0.9257  0.9234  0.3270
   67CHL1  H23A 7424   3.245   3.180   8.982  0.4221  1.7976 -0.5900
   67CHL1  H23B 7425   3.242   3.351   9.026 -0.6602 -0.1602  0.2478
   67CHL1   C24 7426   3.437   3.287   8.944  0.6324  0.2108 -0.0534
   67CHL1  H24A 7427   3.471   3.388   8.978 -0.7735  1.3475 -1.8448
   67CHL1  H24B 7428   3.515   3.216   8.977  0.0038  1.2300  4.2234
   67CHL1   C25 7429   3.406   3.286   8.794  0.1006  0.1262  0.1738
   67CHL1   H25 7430   3.318   3.350   8.771 -1.0674 -0.8258  1.7793
   67CHL1   C26 7431   3.517   3.347   8.716 -0.9122 -0.7708 -0.5873
   67CHL1  H26A 7432   3.500   3.341   8.607 -0.9683  1.6807 -0.7791
   67CHL1  H26B 7433   3.534   3.455   8.737  0.4335 -0.8370 -1.2061
   67CHL1  H26C 7434   3.608   3.294   8.753  0.1686  1.8466  0.8529
   67CHL1   C27 7435   3.382   3.145   8.756  0.2248 -0.0590  0.3721
   67CHL1  H27A 7436   3.288   3.103   8.799 -2.0832  1.9796 -2.3019
   67CHL1  H27B 7437   3.361   3.134   8.647  1.4146 -0.1642  0.1400
   67CHL1  H27C 7438   3.456   3.068   8.785  0.4604 -0.1800 -0.5146
   68CHL1    C3 7439   1.655   1.674  10.107  0.4348  0.4302  0.2672
   68CHL1    H3 7440   1.742   1.743  10.099  1.7633 -1.1924  0.3736
   68CHL1    O3 7441   1.602   1.684  10.237  0.8355  0.8142 -0.1043
   68CHL1   H3' 7442   1.573   1.776  10.237  2.2365  1.2898  0.8879
   68CHL1    C4 7443   1.541   1.708  10.009 -0.1049  0.8501  0.0400
   68CHL1   H4A 7444   1.469   1.625  10.028  1.5929 -0.6334  0.3117
   68CHL1   H4B 7445   1.496   1.806  10.033  1.5016  1.3260  1.2740
   68CHL1    C5 7446   1.586   1.699   9.863 -0.0336 -0.8023  0.1841
   68CHL1    C6 7447   1.574   1.800   9.783  0.2430  0.0168 -0.4249
   68CHL1    H6 7448   1.532   1.895   9.819  0.0949 -0.5204  0.8926
   68CHL1    C7 7449   1.602   1.805   9.634  0.0959  0.3122  0.2795
   68CHL1   H7A 7450   1.516   1.844   9.575 -0.9693  3.2816  3.4603
   68CHL1   H7B 7451   1.681   1.877   9.605 -1.9009  2.2147 -0.6943
   68CHL1    C8 7452   1.638   1.660   9.586  0.3428 -0.6169  0.4164
   68CHL1    H8 7453   1.535   1.616   9.587 -0.8503  2.0137  0.3597
   68CHL1   C14 7454   1.714   1.670   9.453  0.4105  0.3708 -0.1846
   68CHL1   H14 7455   1.818   1.704   9.476  0.9544 -1.5069  0.3645
   68CHL1   C15 7456   1.665   1.765   9.344  0.0242 -0.3026 -0.7836
   68CHL1  H15A 7457   1.555   1.759   9.329 -0.2297  0.0320  0.7683
   68CHL1  H15B 7458   1.697   1.869   9.362 -1.6484  0.3009 -1.0930
   68CHL1   C16 7459   1.734   1.719   9.221 -0.1629 -0.1797  0.7071
   68CHL1  H16A 7460   1.659   1.716   9.139  1.7925 -1.1568 -1.1517
   68CHL1  H16B 7461   1.817   1.790   9.198 -0.3274 -0.6155 -1.4795
   68CHL1   C17 7462   1.819   1.585   9.257  0.4056 -0.4702 -0.0223
   68CHL1   H17 7463   1.921   1.609   9.292 -0.7946 -1.4335  4.9439
   68CHL1   C13 7464   1.738   1.532   9.384 -0.2246  0.2251 -0.0057
   68CHL1   C18 7465   1.610   1.453   9.342 -0.1349  0.2617  0.0948
   68CHL1  H18A 7466   1.647   1.366   9.283  0.8632  0.2737  0.6830
   68CHL1  H18B 7467   1.547   1.422   9.428  2.1350 -2.4730  0.9376
   68CHL1  H18C 7468   1.549   1.512   9.269  0.8737  1.1054 -0.0987
   68CHL1   C12 7469   1.831   1.455   9.488 -1.0129  0.3084 -0.5919
   68CHL1  H12A 7470   1.835   1.351   9.451 -0.8778  0.0790  0.0544
   68CHL1  H12B 7471   1.929   1.503   9.506 -0.7243 -0.5250  0.1089
   68CHL1   C11 7472   1.765   1.442   9.626  0.2309  0.0041  0.3355
   68CHL1  H11A 7473   1.669   1.397   9.590  1.0161 -0.0726 -1.8182
   68CHL1  H11B 7474   1.820   1.376   9.696 -0.9555 -0.1984  1.1263
   68CHL1    C9 7475   1.718   1.580   9.689 -0.1642  0.1776  0.0700
   68CHL1    H9 7476   1.813   1.638   9.695  0.4823 -0.7788 -0.6630
   68CHL1   C10 7477   1.647   1.566   9.822  0.1048  0.4824  0.0757
   68CHL1   C19 7478   1.534   1.462   9.803  0.5409 -0.2852  0.5236
   68CHL1  H19A 7479   1.482   1.450   9.900 -1.5584  2.4454 -0.1583
   68CHL1  H19B 7480   1.457   1.491   9.729  2.3947  2.0809 -0.6263
   68CHL1  H19C 7481   1.564   1.357   9.778 -2.0110 -1.2443  1.2300
   68CHL1    C1 7482   1.742   1.505   9.930  0.7075 -0.8975 -0.1986
   68CHL1   H1A 7483   1.778   1.400   9.920  1.5724 -0.5781 -0.5525
   68CHL1   H1B 7484   1.835   1.566   9.927 -0.0309  0.5561  2.4498
   68CHL1    C2 7485   1.698   1.529  10.080  0.6806  0.4393 -0.5131
   68CHL1   H2A 7486   1.769   1.491  10.156 -0.6232  0.8695  0.9599
   68CHL1   H2B 7487   1.601   1.476  10.089  0.8260  0.4273  1.2730
   68CHL1   C20 7488   1.823   1.489   9.133  0.1621 -0.1170  0.3958
   68CHL1   H20 7489   1.722   1.455   9.103 -0.2113  0.4393  0.9931
   68CHL1   C21 7490   1.902   1.362   9.169  0.2157  0.2875 -0.2182
   68CHL1  H21A 7491   1.917   1.299   9.079 -1.5275  1.4195 -1.3560
   68CHL1  H21B 7492   1.841   1.314   9.249 -0.5099 -0.1177 -1.0023
   68CHL1  H21C 7493   2.000   1.391   9.211 -1.5028  2.8296  2.4173
   68CHL1   C22 7494   1.888   1.554   9.010  0.1449  0.9078 -0.3380
   68CHL1  H22A 7495   1.837   1.651   8.992 -0.7627  0.8952  1.8277
   68CHL1  H22B 7496   1.993   1.583   9.032  1.1775 -1.8611 -1.0994
   68CHL1   C23 7497   1.904   1.460   8.879 -0.0857  0.2037 -0.5633
   68CHL1  H23A 7498   1.970   1.522   8.814 -0.9727  1.7569 -0.0343
   68CHL1  H23B 7499   1.953   1.366   8.912  0.7778  1.5093  2.1137
   68CHL1   C24 7500   1.766   1.431   8.815 -1.0325 -0.7435  0.1396
   68CHL1  H24A 7501   1.685   1.395   8.882 -0.6239 -5.2532 -1.4507
   68CHL1  H24B 7502   1.730   1.527   8.770  0.1463  0.0512  0.8251
   68CHL1   C25 7503   1.773   1.328   8.698 -0.5536  0.0174 -0.2122
   68CHL1   H25 7504   1.810   1.233   8.741 -1.7771 -1.0546 -1.4183
   68CHL1   C26 7505   1.630   1.299   8.645  0.4852  0.1691  0.2812
   68CHL1  H26A 7506   1.561   1.258   8.721  2.6694 -1.6602  1.4017
   68CHL1  H26B 7507   1.591   1.396   8.607 -0.1943 -0.2567 -0.1233
   68CHL1  H26C 7508   1.631   1.237   8.552 -0.3981  1.8394 -0.8935
   68CHL1   C27 7509   1.868   1.379   8.593  0.4252  0.0452  0.4121
   68CHL1  H27A 7510   1.971   1.372   8.632 -0.2139 -2.3247  1.9161
   68CHL1  H27B 7511   1.867   1.324   8.496  0.9758  2.0336 -0.7717
   68CHL1  H27C 7512   1.835   1.482   8.570  0.2421 -0.2079 -0.5358
   69CHL1    C3 7513   3.448   1.690   6.578 -0.1823  0.7981  0.1414
   69CHL1    H3 7514   3.341   1.701   6.603 -0.8525 -0.4297 -1.9666
   69CHL1    O3 7515   3.478   1.742   6.453 -0.7128 -0.0527  0.3860
   69CHL1   H3' 7516   3.571   1.724   6.436 -0.6480  0.2146  0.4427
   69CHL1    C4 7517   3.543   1.753   6.685 -0.0024 -0.0032 -0.3966
   69CHL1   H4A 7518   3.645   1.749   6.640  0.9128 -0.3864  1.5724
   69CHL1   H4B 7519   3.512   1.860   6.678 -3.4068 -0.9834 -2.5894
   69CHL1    C5 7520   3.536   1.689   6.815 -0.1815  0.3744 -0.6800
   69CHL1    C6 7521   3.504   1.759   6.926  0.5225  0.6365  0.1914
   69CHL1    H6 7522   3.486   1.868   6.924  1.3528  0.7678 -1.2832
   69CHL1    C7 7523   3.492   1.702   7.067 -0.1177 -0.1687 -0.0171
   69CHL1   H7A 7524   3.542   1.773   7.137  0.5731  1.3357 -1.9590
   69CHL1   H7B 7525   3.388   1.690   7.103 -0.5698  0.0076 -1.2396
   69CHL1    C8 7526   3.560   1.564   7.078  0.3887  0.4532  0.5796
   69CHL1    H8 7527   3.670   1.573   7.070  0.3474 -0.0961 -0.9699
   69CHL1   C14 7528   3.526   1.499   7.211 -0.3684 -0.1436  0.3721
   69CHL1   H14 7529   3.415   1.488   7.210 -0.3469 -0.4620 -1.3995
   69CHL1   C15 7530   3.567   1.582   7.334  0.2811 -0.7870  0.3178
   69CHL1  H15A 7531   3.676   1.601   7.327 -0.0195  0.9633  0.0777
   69CHL1  H15B 7532   3.501   1.669   7.355 -0.1329 -0.6335 -1.4725
   69CHL1   C16 7533   3.547   1.478   7.443  0.4906  0.1326  0.2256
   69CHL1  H16A 7534   3.643   1.472   7.499  0.3737 -1.6774  0.2696
   69CHL1  H16B 7535   3.466   1.485   7.518 -0.8831 -1.3327 -1.0701
   69CHL1   C17 7536   3.528   1.338   7.372  0.5214  1.0508 -0.2702
   69CHL1   H17 7537   3.417   1.329   7.374  0.5611 -0.0521  3.1051
   69CHL1   C13 7538   3.579   1.354   7.230  0.2443 -0.0046 -0.7315
   69CHL1   C18 7539   3.735   1.342   7.231  0.8513  0.6283  0.3338
   69CHL1  H18A 7540   3.765   1.382   7.131 -0.1806  0.0374 -0.2257
   69CHL1  H18B 7541   3.772   1.403   7.316  0.4467 -0.4031  1.2711
   69CHL1  H18C 7542   3.773   1.238   7.239 -0.3025  0.2663  1.4323
   69CHL1   C12 7543   3.510   1.266   7.119  0.0241  0.1843 -0.0211
   69CHL1  H12A 7544   3.552   1.164   7.131  0.6857  0.7497  3.5098
   69CHL1  H12B 7545   3.401   1.261   7.141 -0.1092 -1.3155 -0.8366
   69CHL1   C11 7546   3.544   1.316   6.984 -0.5057 -0.3346 -0.3615
   69CHL1  H11A 7547   3.652   1.298   6.969 -0.0355  1.6647  0.3825
   69CHL1  H11B 7548   3.490   1.260   6.904  1.2960 -0.5950 -1.4430
   69CHL1    C9 7549   3.524   1.473   6.961  0.5121 -0.4827 -0.2040
   69CHL1    H9 7550   3.414   1.456   6.965  0.4468 -0.6641 -1.9631
   69CHL1   C10 7551   3.556   1.532   6.818 -0.1534  0.1601  0.3561
   69CHL1   C19 7552   3.709   1.502   6.791 -0.0310  0.4118  0.6474
   69CHL1  H19A 7553   3.759   1.513   6.890 -1.0194  0.7410  1.1287
   69CHL1  H19B 7554   3.719   1.397   6.757  0.9548 -0.2101  2.6799
   69CHL1  H19C 7555   3.745   1.564   6.706  0.2340 -0.8063 -0.1530
   69CHL1    C1 7556   3.469   1.466   6.709 -0.3625 -0.5332 -0.2821
   69CHL1   H1A 7557   3.499   1.359   6.704  1.7158  0.0327 -1.9347
   69CHL1   H1B 7558   3.362   1.469   6.735 -0.4292 -2.9630 -0.0843
   69CHL1    C2 7559   3.477   1.542   6.571  0.9364 -0.4402  0.0568
   69CHL1   H2A 7560   3.397   1.500   6.505  1.9485  1.0726 -2.2815
   69CHL1   H2B 7561   3.579   1.528   6.530  0.7053  0.3845 -0.8608
   69CHL1   C20 7562   3.565   1.228   7.470  0.1609  0.8011  0.4217
   69CHL1   H20 7563   3.670   1.244   7.502  0.5101  2.0163 -1.2320
   69CHL1   C21 7564   3.556   1.093   7.393  0.6531 -0.1982  0.6284
   69CHL1  H21A 7565   3.640   1.099   7.321 -1.9704 -0.5209 -2.7560
   69CHL1  H21B 7566   3.459   1.082   7.340  0.8829 -1.3234  0.4110
   69CHL1  H21C 7567   3.571   1.002   7.455 -3.0885 -2.4229 -1.3288
   69CHL1   C22 7568   3.465   1.228   7.589 -0.3997  0.1690 -0.5363
   69CHL1  H22A 7569   3.464   1.324   7.646 -1.7481 -0.8502  1.2397
   69CHL1  H22B 7570   3.374   1.215   7.527  0.8739  1.8557 -2.9417
   69CHL1   C23 7571   3.489   1.122   7.691 -0.3848  0.1559 -0.5047
   69CHL1  H23A 7572   3.401   1.116   7.759 -0.8254 -0.3718 -1.1114
   69CHL1  H23B 7573   3.498   1.025   7.638 -0.9461  0.2874 -0.8511
   69CHL1   C24 7574   3.615   1.143   7.777 -0.7189 -0.1128 -0.4496
   69CHL1  H24A 7575   3.700   1.174   7.713 -0.9486  1.5443  0.0159
   69CHL1  H24B 7576   3.600   1.223   7.852  1.6998 -0.6635  0.7152
   69CHL1   C25 7577   3.655   1.014   7.849 -0.8989 -0.0186 -0.4804
   69CHL1   H25 7578   3.678   0.940   7.769  1.9855  2.0885 -1.7526
   69CHL1   C26 7579   3.790   1.031   7.915  0.4033  0.8825 -0.5903
   69CHL1  H26A 7580   3.860   1.035   7.829  0.9072 -0.7933 -0.2911
   69CHL1  H26B 7581   3.797   1.124   7.976  0.0272  1.3866 -1.3094
   69CHL1  H26C 7582   3.808   0.939   7.975  1.2555  0.4349 -1.5134
   69CHL1   C27 7583   3.555   0.976   7.956 -0.4658 -0.4456  0.0181
   69CHL1  H27A 7584   3.608   0.916   8.033  1.8858  0.0478 -1.1150
   69CHL1  H27B 7585   3.529   1.063   8.019 -1.3188 -0.6240 -0.0685
   69CHL1  H27C 7586   3.471   0.925   7.903 -1.6742  0.4142  1.0834
   70CHL1    C3 7587   4.777   5.914   6.897  0.1524 -0.0772  0.1313
   70CHL1    H3 7588   4.797   5.811   6.859 -1.0538  0.2196 -1.3874
   70CHL1    O3 7589   4.759   6.006   6.790  0.9011 -0.6298  0.1123
   70CHL1   H3' 7590   4.791   6.089   6.825 -3.7439  0.9438  1.3055
   70CHL1    C4 7591   4.654   5.918   6.993 -0.9669 -0.1852  1.4323
   70CHL1   H4A 7592   4.634   6.023   7.026  1.8643  1.9822 -2.7459
   70CHL1   H4B 7593   4.564   5.890   6.935 -0.1178 -0.7142  0.3457
   70CHL1    C5 7594   4.680   5.828   7.108  0.1514 -0.3366  0.1390
   70CHL1    C6 7595   4.594   5.733   7.133  0.0339 -0.5153  0.0834
   70CHL1    H6 7596   4.498   5.723   7.080  0.8956  0.6139 -1.8051
   70CHL1    C7 7597   4.600   5.641   7.258  0.1866 -0.1563 -0.4847
   70CHL1   H7A 7598   4.502   5.647   7.310  0.2274  0.3133 -0.4616
   70CHL1   H7B 7599   4.620   5.538   7.219  1.4434  0.0114 -0.3339
   70CHL1    C8 7600   4.710   5.671   7.355  0.4811 -0.3785  0.6532
   70CHL1    H8 7601   4.678   5.753   7.422 -0.4664 -0.9979  0.9886
   70CHL1   C14 7602   4.744   5.547   7.445  0.4157  0.3104 -0.2105
   70CHL1   H14 7603   4.778   5.471   7.371 -4.3301  0.3770 -2.8666
   70CHL1   C15 7604   4.630   5.471   7.521  0.9710 -0.9261 -0.6712
   70CHL1  H15A 7605   4.572   5.549   7.575 -0.5394  0.1326 -3.5512
   70CHL1  H15B 7606   4.558   5.411   7.461 -0.1878 -0.5196  0.2626
   70CHL1   C16 7607   4.720   5.367   7.613 -0.3299  0.1872  0.3276
   70CHL1  H16A 7608   4.685   5.379   7.718 -1.4704  0.9383 -0.1233
   70CHL1  H16B 7609   4.722   5.264   7.571 -0.5811 -0.0018  0.7737
   70CHL1   C17 7610   4.863   5.430   7.611  0.0676 -0.0087  0.1630
   70CHL1   H17 7611   4.912   5.376   7.527 -0.7719  0.0760 -0.3901
   70CHL1   C13 7612   4.855   5.569   7.543 -0.4156  0.2837  0.3874
   70CHL1   C18 7613   4.832   5.676   7.656  0.1812 -0.2670 -0.1194
   70CHL1  H18A 7614   4.792   5.764   7.600 -1.8366 -0.0739  1.5011
   70CHL1  H18B 7615   4.753   5.648   7.729  1.4192 -1.8579  0.6534
   70CHL1  H18C 7616   4.919   5.707   7.717 -0.6995 -2.3855  2.4191
   70CHL1   C12 7617   4.981   5.612   7.463  0.9021 -0.0992 -0.0207
   70CHL1  H12A 7618   5.062   5.632   7.536  1.7917 -0.6765 -0.8125
   70CHL1  H12B 7619   5.016   5.532   7.394 -0.6031  0.3571 -1.3873
   70CHL1   C11 7620   4.955   5.736   7.376  0.3220  0.8724 -1.5821
   70CHL1  H11A 7621   4.944   5.817   7.451  0.1329  0.0829 -0.7405
   70CHL1  H11B 7622   5.043   5.762   7.313  1.4644 -1.1663 -0.9230
   70CHL1    C9 7623   4.833   5.721   7.281  0.3340 -0.2985  0.3456
   70CHL1    H9 7624   4.864   5.637   7.214  1.7227 -0.8589  1.6387
   70CHL1   C10 7625   4.813   5.844   7.188  0.0884  0.3636 -0.9974
   70CHL1   C19 7626   4.798   5.968   7.282 -0.0722 -0.0856  0.0823
   70CHL1  H19A 7627   4.788   6.050   7.209  1.4477 -1.1635 -1.4118
   70CHL1  H19B 7628   4.715   5.950   7.355 -0.7443  1.4242 -0.2717
   70CHL1  H19C 7629   4.891   5.988   7.339 -1.1267  3.1639  0.8826
   70CHL1    C1 7630   4.933   5.869   7.087 -0.0228  0.3890 -0.3976
   70CHL1   H1A 7631   5.015   5.903   7.154  0.6684 -3.1501  0.7444
   70CHL1   H1B 7632   4.963   5.767   7.055  0.2665  0.0307  0.9428
   70CHL1    C2 7633   4.906   5.956   6.967  0.4880 -0.4158 -0.2779
   70CHL1   H2A 7634   4.992   5.938   6.899 -0.0973 -0.5341 -1.0031
   70CHL1   H2B 7635   4.897   6.061   7.002 -2.4063 -1.4671  2.6545
   70CHL1   C20 7636   4.954   5.421   7.735 -0.2233  0.0633  0.7177
   70CHL1   H20 7637   5.032   5.500   7.729  0.5291 -0.7699 -2.1458
   70CHL1   C21 7638   5.030   5.288   7.721  0.4121  0.1798 -0.9116
   70CHL1  H21A 7639   5.092   5.271   7.812 -1.2003  1.9415  0.5971
   70CHL1  H21B 7640   5.100   5.291   7.634  1.9949 -1.3114  0.2440
   70CHL1  H21C 7641   4.956   5.206   7.715  0.9267 -0.2541 -1.4509
   70CHL1   C22 7642   4.881   5.432   7.873  0.3960 -0.2041  1.1072
   70CHL1  H22A 7643   4.802   5.511   7.868 -0.6381 -1.3001 -1.3360
   70CHL1  H22B 7644   4.826   5.339   7.899 -1.5323  0.9005  1.1652
   70CHL1   C23 7645   4.973   5.454   7.989  0.2958  0.1749 -0.2815
   70CHL1  H23A 7646   5.028   5.358   7.996 -2.7718 -1.5921  2.6568
   70CHL1  H23B 7647   5.026   5.550   7.978 -1.2416  1.0125 -0.7478
   70CHL1   C24 7648   4.904   5.461   8.127 -0.0715  0.2541 -0.1938
   70CHL1  H24A 7649   4.862   5.557   8.164  0.6975 -0.1228  1.7752
   70CHL1  H24B 7650   4.810   5.402   8.122  0.1526 -0.0206 -1.5134
   70CHL1   C25 7651   4.997   5.407   8.237  0.2748 -0.6570  0.3370
   70CHL1   H25 7652   5.101   5.429   8.205  0.4914 -1.1468  0.6839
   70CHL1   C26 7653   4.970   5.475   8.376  0.2084  0.8181  0.3743
   70CHL1  H26A 7654   4.861   5.470   8.395 -0.0120 -0.6055 -1.0484
   70CHL1  H26B 7655   5.024   5.423   8.458  2.3988 -0.0827 -1.5286
   70CHL1  H26C 7656   5.003   5.581   8.369  3.2272 -0.0793 -1.1011
   70CHL1   C27 7657   4.980   5.257   8.256 -0.1108 -0.6081  0.5367
   70CHL1  H27A 7658   4.879   5.229   8.294  0.0905  0.3254  1.8185
   70CHL1  H27B 7659   5.003   5.206   8.159 -0.0747  0.1664  0.1342
   70CHL1  H27C 7660   5.063   5.216   8.318  0.3818 -0.7589 -0.2060
   71CHL1    C3 7661   5.801   2.315   6.961 -0.2547  1.1668 -0.1180
   71CHL1    H3 7662   5.885   2.248   6.989 -0.4306  1.6012  1.5385
   71CHL1    O3 7663   5.794   2.322   6.817 -0.0066 -0.6131  0.5982
   71CHL1   H3' 7664   5.813   2.234   6.785  0.7470 -0.5190  0.7813
   71CHL1    C4 7665   5.667   2.250   7.023 -0.2201  0.6368 -0.4167
   71CHL1   H4A 7666   5.584   2.321   7.006  0.4025  1.4419 -0.1666
   71CHL1   H4B 7667   5.646   2.161   6.960  0.2165 -0.1837  0.5525
   71CHL1    C5 7668   5.693   2.222   7.170  0.4461  0.6819  0.3043
   71CHL1    C6 7669   5.694   2.096   7.215 -0.1490 -0.5001  0.2741
   71CHL1    H6 7670   5.678   2.009   7.150 -0.3061  0.0774 -0.4668
   71CHL1    C7 7671   5.712   2.064   7.361  0.5181  0.3258  0.6881
   71CHL1   H7A 7672   5.629   1.992   7.377 -0.3809  1.0026 -0.7001
   71CHL1   H7B 7673   5.801   2.002   7.382  1.5503  2.5010  3.3489
   71CHL1    C8 7674   5.719   2.185   7.451 -0.0925  0.0219 -0.1535
   71CHL1    H8 7675   5.614   2.218   7.468 -1.1095 -1.7311 -2.4593
   71CHL1   C14 7676   5.783   2.151   7.585  0.6488 -0.0894 -0.0087
   71CHL1   H14 7677   5.892   2.137   7.568  1.1187  3.1198 -0.1986
   71CHL1   C15 7678   5.725   2.026   7.656 -0.1230  0.0017  0.1145
   71CHL1  H15A 7679   5.616   2.009   7.638 -0.1332 -0.2621  0.4191
   71CHL1  H15B 7680   5.782   1.936   7.625  0.6426  0.8027 -0.8413
   71CHL1   C16 7681   5.762   2.042   7.802  0.6688  0.5599  1.0347
   71CHL1  H16A 7682   5.668   2.023   7.859  0.2942 -0.5614  0.0866
   71CHL1  H16B 7683   5.832   1.959   7.826 -0.0565 -1.1812 -2.3154
   71CHL1   C17 7684   5.830   2.181   7.814 -0.0334  0.3150 -0.1484
   71CHL1   H17 7685   5.939   2.163   7.803 -0.0669 -1.1591  1.5618
   71CHL1   C13 7686   5.779   2.260   7.692 -0.8871  0.5803  0.5912
   71CHL1   C18 7687   5.627   2.301   7.719 -0.0015 -0.6430  0.3979
   71CHL1  H18A 7688   5.594   2.375   7.643 -2.3053 -0.9546  1.0305
   71CHL1  H18B 7689   5.555   2.217   7.710 -0.9935  0.4177 -4.5613
   71CHL1  H18C 7690   5.610   2.364   7.808 -3.9252  0.6988 -1.1200
   71CHL1   C12 7691   5.863   2.376   7.630 -0.6841  0.1341 -0.6653
   71CHL1  H12A 7692   5.847   2.460   7.701  1.1196 -1.0622  1.2654
   71CHL1  H12B 7693   5.973   2.361   7.631 -0.4763  1.4784  0.4433
   71CHL1   C11 7694   5.817   2.419   7.490 -0.4303 -0.2011 -0.2950
   71CHL1  H11A 7695   5.721   2.476   7.491 -0.9909 -1.1106  0.4997
   71CHL1  H11B 7696   5.901   2.477   7.448 -0.2991 -0.7549 -0.8022
   71CHL1    C9 7697   5.790   2.307   7.388 -0.4614  0.9972 -0.6514
   71CHL1    H9 7698   5.887   2.255   7.371 -1.4039 -1.8673  1.8154
   71CHL1   C10 7699   5.729   2.350   7.252  0.5843 -0.3243 -0.6935
   71CHL1   C19 7700   5.598   2.430   7.268 -0.2438  0.4959  0.2452
   71CHL1  H19A 7701   5.613   2.531   7.310  1.1462  1.0720 -1.4817
   71CHL1  H19B 7702   5.569   2.454   7.163  3.0284 -0.1795 -0.9579
   71CHL1  H19C 7703   5.517   2.374   7.320 -1.1143  1.4153 -0.0912
   71CHL1    C1 7704   5.829   2.444   7.180  0.0528  0.8655  0.0361
   71CHL1   H1A 7705   5.830   2.541   7.235 -1.0212 -0.5671  2.7516
   71CHL1   H1B 7706   5.925   2.396   7.209 -0.2282  1.9060  3.0428
   71CHL1    C2 7707   5.823   2.443   7.023 -0.1253  0.0377  0.0331
   71CHL1   H2A 7708   5.918   2.492   6.993 -1.0266  1.8055 -0.0116
   71CHL1   H2B 7709   5.741   2.511   6.992 -1.0550 -1.0436  0.0437
   71CHL1   C20 7710   5.818   2.237   7.957 -0.0162 -0.2743 -0.0855
   71CHL1   H20 7711   5.710   2.252   7.976  0.1157 -0.6496  1.0202
   71CHL1   C21 7712   5.891   2.373   7.971 -0.9053 -0.7732  0.3934
   71CHL1  H21A 7713   5.898   2.399   8.079 -0.5476 -1.8832  0.6467
   71CHL1  H21B 7714   5.838   2.456   7.919 -0.8761  0.1146  1.7273
   71CHL1  H21C 7715   5.995   2.364   7.933 -1.6928  0.0208 -2.1387
   71CHL1   C22 7716   5.864   2.135   8.061 -0.2109 -0.3041  0.1618
   71CHL1  H22A 7717   5.797   2.047   8.058  0.7154 -1.0175 -0.7035
   71CHL1  H22B 7718   5.972   2.108   8.052  0.6995  3.1640 -1.2257
   71CHL1   C23 7719   5.870   2.179   8.213  0.9096  0.5634 -1.1347
   71CHL1  H23A 7720   5.914   2.093   8.268 -0.4449  0.9459  0.6585
   71CHL1  H23B 7721   5.937   2.266   8.222 -0.4843  1.5393  0.2454
   71CHL1   C24 7722   5.731   2.207   8.273  0.0854  0.0686 -1.4272
   71CHL1  H24A 7723   5.687   2.302   8.237 -1.6003  0.2819  0.9853
   71CHL1  H24B 7724   5.659   2.129   8.240 -0.2972  0.2745 -1.0833
   71CHL1   C25 7725   5.719   2.215   8.421  0.5921  0.2999  0.0535
   71CHL1   H25 7726   5.762   2.127   8.473  0.3193  0.4412  0.5210
   71CHL1   C26 7727   5.812   2.330   8.458  0.3259  0.9157  0.6248
   71CHL1  H26A 7728   5.788   2.385   8.552  1.4300  3.4656 -0.5015
   71CHL1  H26B 7729   5.917   2.293   8.459  0.1378  0.1815 -1.5191
   71CHL1  H26C 7730   5.803   2.419   8.392 -3.6386  0.8371  0.8321
   71CHL1   C27 7731   5.580   2.243   8.469 -0.5526  0.5382 -0.4175
   71CHL1  H27A 7732   5.552   2.342   8.427 -0.2459  0.8840  0.1929
   71CHL1  H27B 7733   5.517   2.156   8.438  0.7853 -0.5375 -0.1914
   71CHL1  H27C 7734   5.577   2.261   8.578  1.1002  0.5562 -0.3531
   72CHL1    C3 7735   4.235   6.009   7.174 -0.2575 -0.4716 -0.4051
   72CHL1    H3 7736   4.127   6.034   7.170 -0.4083 -0.1873  3.0634
   72CHL1    O3 7737   4.286   6.017   7.043  0.3848  0.1160 -0.3928
   72CHL1   H3' 7738   4.231   5.955   6.994 -1.1558 -1.2936  2.8724
   72CHL1    C4 7739   4.294   6.117   7.260  0.6260 -0.4549 -0.5643
   72CHL1   H4A 7740   4.403   6.099   7.244  0.6294  1.3292 -3.1658
   72CHL1   H4B 7741   4.282   6.218   7.215 -0.0982 -0.1881  0.2126
   72CHL1    C5 7742   4.260   6.116   7.413  0.0811 -0.1218  0.4365
   72CHL1    C6 7743   4.216   6.227   7.466  0.6461 -0.5045  0.0472
   72CHL1    H6 7744   4.229   6.316   7.404  1.9031 -0.0065  1.0041
   72CHL1    C7 7745   4.171   6.238   7.604  0.2902  0.5571 -1.1127
   72CHL1   H7A 7746   4.200   6.331   7.658 -1.2981 -1.1979  3.2436
   72CHL1   H7B 7747   4.061   6.232   7.603  0.1952  1.9390 -1.0257
   72CHL1    C8 7748   4.219   6.118   7.687 -0.1665  0.9193  0.5955
   72CHL1    H8 7749   4.326   6.115   7.719  0.4307 -1.1130 -1.3164
   72CHL1   C14 7750   4.153   6.116   7.827  0.9015  0.0855  0.2630
   72CHL1   H14 7751   4.046   6.096   7.803  1.4693 -2.3308 -0.6102
   72CHL1   C15 7752   4.145   6.248   7.905 -0.5493 -0.0871  0.1020
   72CHL1  H15A 7753   4.249   6.286   7.904 -1.0513  1.4764  1.9560
   72CHL1  H15B 7754   4.071   6.321   7.865 -0.7093 -0.0466  0.4755
   72CHL1   C16 7755   4.105   6.213   8.042 -0.2632 -0.2733 -0.2412
   72CHL1  H16A 7756   4.188   6.247   8.107  0.3644 -1.1202 -0.5791
   72CHL1  H16B 7757   4.009   6.260   8.074  0.6129  1.5101 -0.1374
   72CHL1   C17 7758   4.108   6.052   8.053 -0.2934 -0.5988  0.8803
   72CHL1   H17 7759   4.003   6.020   8.039 -0.2768 -1.5668  2.6885
   72CHL1   C13 7760   4.180   6.002   7.924  0.5882  0.2325  0.0773
   72CHL1   C18 7761   4.331   6.002   7.953 -0.6177  0.0005 -0.5580
   72CHL1  H18A 7762   4.352   6.091   8.018 -3.2330 -0.4868  1.0896
   72CHL1  H18B 7763   4.364   5.916   8.016 -0.2099 -2.1287 -3.4872
   72CHL1  H18C 7764   4.402   6.003   7.868  1.2689 -0.2718  0.9330
   72CHL1   C12 7765   4.139   5.874   7.852  0.2879  0.2661 -0.0986
   72CHL1  H12A 7766   4.160   5.786   7.916 -0.8166  0.8169  1.0558
   72CHL1  H12B 7767   4.031   5.873   7.829  0.3657  0.4666 -0.4803
   72CHL1   C11 7768   4.204   5.856   7.711 -0.6691  0.2111 -0.5975
   72CHL1  H11A 7769   4.305   5.824   7.743 -0.6151  2.6885  2.1821
   72CHL1  H11B 7770   4.144   5.772   7.669  0.2445  0.2991 -2.1341
   72CHL1    C9 7771   4.186   5.981   7.620 -0.5381 -0.1855  0.2383
   72CHL1    H9 7772   4.079   5.989   7.592 -0.1531  0.7742 -1.0798
   72CHL1   C10 7773   4.268   5.975   7.481 -0.6821  0.1639 -0.0681
   72CHL1   C19 7774   4.421   5.943   7.515  0.1209 -0.2551  0.4639
   72CHL1  H19A 7775   4.482   5.919   7.425  0.1894 -1.8517  0.9135
   72CHL1  H19B 7776   4.477   6.029   7.558 -2.5390  1.2452  1.1761
   72CHL1  H19C 7777   4.440   5.853   7.576 -1.9764 -1.0135  0.0808
   72CHL1    C1 7778   4.219   5.863   7.389  0.2821 -0.2345  0.2490
   72CHL1   H1A 7779   4.244   5.760   7.421 -1.5296 -1.0277 -0.7382
   72CHL1   H1B 7780   4.108   5.859   7.387  0.2307 -0.1936 -2.8509
   72CHL1    C2 7781   4.262   5.876   7.245  0.4071 -0.7293  0.2008
   72CHL1   H2A 7782   4.216   5.798   7.180 -1.8248  0.1823  0.6054
   72CHL1   H2B 7783   4.369   5.846   7.245  0.8138  0.6565  1.5775
   72CHL1   C20 7784   4.141   5.999   8.189 -0.1238  0.1130  0.3477
   72CHL1   H20 7785   4.243   6.032   8.218  0.8122 -2.0527 -0.3321
   72CHL1   C21 7786   4.139   5.843   8.186  0.3279  0.6690 -0.4144
   72CHL1  H21A 7787   4.146   5.797   8.287  3.8984 -0.5970 -1.0846
   72CHL1  H21B 7788   4.222   5.797   8.129 -0.1429  0.0673 -0.6216
   72CHL1  H21C 7789   4.046   5.815   8.132  1.0698  1.3353 -2.1120
   72CHL1   C22 7790   4.038   6.057   8.296  0.1578  0.5508  0.3662
   72CHL1  H22A 7791   4.030   6.167   8.282 -1.5130  0.3723 -0.2572
   72CHL1  H22B 7792   3.935   6.023   8.270  0.2916 -1.2312  1.8946
   72CHL1   C23 7793   4.060   6.031   8.453  0.2848 -0.1816  0.6469
   72CHL1  H23A 7794   4.168   6.034   8.481  0.5179 -1.8043  0.0781
   72CHL1  H23B 7795   4.012   6.109   8.515 -1.7079 -2.2583  1.8882
   72CHL1   C24 7796   4.000   5.899   8.509  0.5759 -0.5460  0.3026
   72CHL1  H24A 7797   3.892   5.891   8.485  0.5909  0.5824 -0.2131
   72CHL1  H24B 7798   4.050   5.809   8.467  1.0454 -1.7473  3.1697
   72CHL1   C25 7799   4.015   5.881   8.662  0.4389  0.7181 -0.8467
   72CHL1   H25 7800   4.004   5.973   8.723 -0.3402 -0.2605  0.5491
   72CHL1   C26 7801   3.912   5.769   8.710  0.5433 -0.3926 -0.0164
   72CHL1  H26A 7802   3.936   5.753   8.818  3.0620  1.7330 -0.1520
   72CHL1  H26B 7803   3.809   5.805   8.689  0.3132  1.9697  3.9630
   72CHL1  H26C 7804   3.929   5.674   8.655 -1.5521 -1.6187  1.3146
   72CHL1   C27 7805   4.156   5.830   8.706 -0.5052 -0.0091 -0.1764
   72CHL1  H27A 7806   4.161   5.804   8.814  1.7694 -0.4849 -0.3555
   72CHL1  H27B 7807   4.191   5.743   8.647  1.9380  1.5085 -1.1342
   72CHL1  H27C 7808   4.233   5.910   8.709  0.5129 -0.9063 -1.2735
   73CHL1    C3 7809   1.277   0.778   6.876 -0.2346 -0.5475  0.4041
   73CHL1    H3 7810   1.267   0.669   6.853 -1.5230 -0.5246  0.7619
   73CHL1    O3 7811   1.291   0.838   6.747 -0.3969 -0.7482  0.1152
   73CHL1   H3' 7812   1.303   0.930   6.770  0.6297 -0.7761 -0.2725
   73CHL1    C4 7813   1.157   0.841   6.944  0.8683 -0.4557  0.2366
   73CHL1   H4A 7814   1.148   0.951   6.938 -0.9884 -0.6227 -0.6544
   73CHL1   H4B 7815   1.062   0.809   6.895 -0.2637 -0.3358  2.2521
   73CHL1    C5 7816   1.162   0.808   7.091  0.2294 -0.0583  0.8872
   73CHL1    C6 7817   1.047   0.751   7.147  0.4881  0.5395 -0.5730
   73CHL1    H6 7818   0.959   0.740   7.083  1.5534 -0.8161 -1.9047
   73CHL1    C7 7819   1.030   0.722   7.292 -0.0681  0.2344 -0.4741
   73CHL1   H7A 7820   0.933   0.740   7.343  0.9460 -0.4460  1.8365
   73CHL1   H7B 7821   1.066   0.618   7.305  1.1888  0.5250 -1.4453
   73CHL1    C8 7822   1.135   0.804   7.375 -0.4233 -0.3892 -0.3209
   73CHL1    H8 7823   1.112   0.912   7.386 -0.4561 -0.6534  3.5206
   73CHL1   C14 7824   1.139   0.747   7.519  0.2909  0.1595 -0.3246
   73CHL1   H14 7825   1.159   0.637   7.514 -0.8434 -0.0520 -0.4326
   73CHL1   C15 7826   1.010   0.750   7.607  0.1454  0.3662 -0.3495
   73CHL1  H15A 7827   0.970   0.853   7.615 -0.6931  0.0576 -0.4143
   73CHL1  H15B 7828   0.934   0.676   7.572 -1.6727  0.6073  2.7155
   73CHL1   C16 7829   1.058   0.703   7.742  0.0339 -0.4415  0.0206
   73CHL1  H16A 7830   1.006   0.754   7.826  0.3430 -1.2784  0.7463
   73CHL1  H16B 7831   1.055   0.592   7.755  1.0317 -0.3382  1.3797
   73CHL1   C17 7832   1.216   0.735   7.739  0.2835 -0.5050 -0.0410
   73CHL1   H17 7833   1.257   0.632   7.730 -0.3643 -1.0233  2.2161
   73CHL1   C13 7834   1.249   0.807   7.609 -0.1148 -0.7409  0.1780
   73CHL1   C18 7835   1.228   0.955   7.625 -1.0159  0.1331 -0.3038
   73CHL1  H18A 7836   1.240   1.011   7.530  1.1241  1.3513  0.6094
   73CHL1  H18B 7837   1.125   0.972   7.664 -1.0878 -2.7273  0.9956
   73CHL1  H18C 7838   1.302   1.004   7.692  1.3890 -1.7697 -1.4281
   73CHL1   C12 7839   1.390   0.765   7.546 -0.0682 -0.6302 -0.0504
   73CHL1  H12A 7840   1.465   0.805   7.618  1.2025 -1.1518 -1.0437
   73CHL1  H12B 7841   1.390   0.654   7.540  0.7258 -0.5829 -1.1858
   73CHL1   C11 7842   1.398   0.826   7.409  0.2826 -0.1016  0.1627
   73CHL1  H11A 7843   1.405   0.936   7.424  3.1234 -0.4275  1.8805
   73CHL1  H11B 7844   1.496   0.793   7.368  0.8888  0.7944  0.8621
   73CHL1    C9 7845   1.278   0.787   7.310  0.2954  0.3739 -0.1455
   73CHL1    H9 7846   1.300   0.678   7.312  1.8074  0.6557  0.7330
   73CHL1   C10 7847   1.289   0.840   7.165 -0.3047  0.2070 -0.6692
   73CHL1   C19 7848   1.327   0.994   7.160  0.2476  0.3693  0.0603
   73CHL1  H19A 7849   1.424   1.012   7.211  0.2746 -1.7670  0.9026
   73CHL1  H19B 7850   1.330   1.016   7.052 -1.1394 -0.1421 -0.1065
   73CHL1  H19C 7851   1.246   1.053   7.208 -1.9158 -1.6443 -0.8683
   73CHL1    C1 7852   1.416   0.761   7.096  1.0897  0.0681  0.4956
   73CHL1   H1A 7853   1.511   0.794   7.144  1.2871 -1.0029  0.8681
   73CHL1   H1B 7854   1.406   0.652   7.114  1.2115 -0.1628 -0.7683
   73CHL1    C2 7855   1.417   0.792   6.944  0.1585  1.2104 -0.1808
   73CHL1   H2A 7856   1.490   0.724   6.896  1.2404  1.2025  1.3903
   73CHL1   H2B 7857   1.461   0.893   6.935 -0.0785  1.3552  0.2538
   73CHL1   C20 7858   1.275   0.790   7.870 -0.3742  0.3414  0.0236
   73CHL1   H20 7859   1.369   0.845   7.847 -0.3619  0.5990  0.6619
   73CHL1   C21 7860   1.301   0.671   7.956  0.4324  0.4292  0.1656
   73CHL1  H21A 7861   1.220   0.599   7.980  2.3180 -1.1821  2.1594
   73CHL1  H21B 7862   1.348   0.700   8.052  3.0673  0.0500 -0.9134
   73CHL1  H21C 7863   1.383   0.607   7.915 -0.9881 -1.1386 -0.3677
   73CHL1   C22 7864   1.185   0.891   7.950 -0.0597 -0.3732  0.0636
   73CHL1  H22A 7865   1.139   0.963   7.879 -2.2180  0.0234  1.7599
   73CHL1  H22B 7866   1.097   0.836   7.990 -1.2263  1.9675  0.8603
   73CHL1   C23 7867   1.252   0.974   8.064  0.7422  0.0734 -0.3535
   73CHL1  H23A 7868   1.271   0.898   8.143  1.2272  0.7982  0.2481
   73CHL1  H23B 7869   1.348   1.016   8.027 -0.0729  0.0370 -2.6162
   73CHL1   C24 7870   1.159   1.091   8.110  0.2263 -0.2229 -0.6127
   73CHL1  H24A 7871   1.170   1.169   8.031 -2.7502  0.7346 -0.1912
   73CHL1  H24B 7872   1.053   1.061   8.102  0.5148 -1.5977  0.3098
   73CHL1   C25 7873   1.211   1.141   8.254  0.3196  0.2911 -0.1331
   73CHL1   H25 7874   1.236   1.058   8.325 -1.1770  1.3130  1.6540
   73CHL1   C26 7875   1.335   1.234   8.229  0.1333  0.6094 -0.3958
   73CHL1  H26A 7876   1.304   1.306   8.150 -0.6496  1.4663  0.6512
   73CHL1  H26B 7877   1.368   1.290   8.320  0.0527 -0.2110  0.1473
   73CHL1  H26C 7878   1.415   1.171   8.185 -1.0551  0.0299 -1.7860
   73CHL1   C27 7879   1.095   1.231   8.317 -1.0115  0.0795  0.0637
   73CHL1  H27A 7880   0.996   1.182   8.315 -1.7321  1.4133  1.0478
   73CHL1  H27B 7881   1.118   1.255   8.423 -1.1286 -0.4696  0.2157
   73CHL1  H27C 7882   1.077   1.322   8.255  2.3193  0.5320 -0.4458
   74CHL1    C3 7883   6.403   1.008   6.743  0.4229 -0.4363 -0.0869
   74CHL1    H3 7884   6.496   1.069   6.733 -0.2676  0.6516 -0.0814
   74CHL1    O3 7885   6.337   0.985   6.623  0.2054 -0.2115 -0.3137
   74CHL1   H3' 7886   6.256   0.941   6.649  0.0875  0.1667 -0.0268
   74CHL1    C4 7887   6.425   0.876   6.812 -0.4339  0.2592 -0.7188
   74CHL1   H4A 7888   6.326   0.828   6.796 -0.5454  0.7166 -1.4491
   74CHL1   H4B 7889   6.500   0.810   6.761  0.1520  1.2250 -1.1352
   74CHL1    C5 7890   6.483   0.888   6.948 -0.3038  0.6656  0.1404
   74CHL1    C6 7891   6.594   0.822   6.987 -0.0471 -0.2462 -0.0199
   74CHL1    H6 7892   6.653   0.771   6.909 -0.5229 -3.1817  1.4150
   74CHL1    C7 7893   6.641   0.810   7.129  0.2319  0.3719 -0.2387
   74CHL1   H7A 7894   6.650   0.700   7.146 -1.8516 -0.0742 -1.6418
   74CHL1   H7B 7895   6.736   0.861   7.153  0.8498 -0.9351  0.2045
   74CHL1    C8 7896   6.530   0.846   7.227  0.8620  0.3636  0.0214
   74CHL1    H8 7897   6.452   0.768   7.220 -0.2340  1.4466 -0.3127
   74CHL1   C14 7898   6.581   0.870   7.364  0.4028  0.8726 -0.0787
   74CHL1   H14 7899   6.655   0.951   7.345  0.7617 -0.0586 -3.2863
   74CHL1   C15 7900   6.670   0.758   7.423 -0.6116  0.0108 -0.1249
   74CHL1  H15A 7901   6.610   0.668   7.399 -2.0884  0.8154  0.4106
   74CHL1  H15B 7902   6.771   0.751   7.377 -0.4826 -0.0670  0.1649
   74CHL1   C16 7903   6.669   0.773   7.571 -0.5769 -0.7239  0.6720
   74CHL1  H16A 7904   6.618   0.686   7.617 -2.4240  0.0787  0.2680
   74CHL1  H16B 7905   6.769   0.787   7.617 -0.1559 -0.6222 -0.2582
   74CHL1   C17 7906   6.573   0.896   7.596 -0.4184  0.3588  0.6564
   74CHL1   H17 7907   6.632   0.991   7.588 -1.9309  1.1868 -2.6984
   74CHL1   C13 7908   6.483   0.903   7.472 -0.5303 -0.1141  0.1485
   74CHL1   C18 7909   6.367   0.801   7.497  0.0609  1.2041  0.0201
   74CHL1  H18A 7910   6.400   0.702   7.537 -1.8586  1.2730  1.9268
   74CHL1  H18B 7911   6.296   0.834   7.575  0.4775 -1.0865  1.4721
   74CHL1  H18C 7912   6.317   0.790   7.399 -0.6755  2.1091  0.2785
   74CHL1   C12 7913   6.423   1.042   7.430 -0.4868  1.1387  0.2350
   74CHL1  H12A 7914   6.345   1.073   7.502 -0.9704 -2.0238  1.2467
   74CHL1  H12B 7915   6.507   1.115   7.429 -0.4707  1.1185  0.0899
   74CHL1   C11 7916   6.360   1.028   7.289 -0.0209 -0.4058 -0.2842
   74CHL1  H11A 7917   6.265   0.973   7.301 -0.3911 -0.2332 -2.2274
   74CHL1  H11B 7918   6.321   1.131   7.273 -1.0602 -0.6595  0.5190
   74CHL1    C9 7919   6.453   0.985   7.182 -0.2296  0.5166  0.3223
   74CHL1    H9 7920   6.541   1.051   7.163  1.3678 -1.3385  0.9890
   74CHL1   C10 7921   6.390   0.969   7.041  0.2220  0.1390 -0.2627
   74CHL1   C19 7922   6.254   0.898   7.067  0.7067 -0.4416 -0.1420
   74CHL1  H19A 7923   6.204   0.858   6.976 -0.9203  0.0423  0.5095
   74CHL1  H19B 7924   6.264   0.815   7.140  2.9903  0.0016  0.1257
   74CHL1  H19C 7925   6.182   0.969   7.112 -1.1192 -1.9722 -0.4900
   74CHL1    C1 7926   6.360   1.111   6.975 -1.0958 -0.5169 -0.1332
   74CHL1   H1A 7927   6.292   1.171   7.039 -1.3392 -0.5512 -0.3588
   74CHL1   H1B 7928   6.451   1.172   6.955  0.3073 -2.3566  0.3569
   74CHL1    C2 7929   6.311   1.096   6.835 -0.2840 -0.0627  0.1695
   74CHL1   H2A 7930   6.289   1.196   6.791  1.3134 -0.2948 -1.2676
   74CHL1   H2B 7931   6.211   1.046   6.835 -1.3926  2.0089  1.4392
   74CHL1   C20 7932   6.513   0.883   7.738  0.3244 -0.0923 -0.6884
   74CHL1   H20 7933   6.447   0.794   7.738 -1.0700  0.8027 -3.9758
   74CHL1   C21 7934   6.424   1.008   7.778  0.2613  0.4100  0.5126
   74CHL1  H21A 7935   6.486   1.100   7.780  0.7160  0.1107  2.0364
   74CHL1  H21B 7936   6.368   0.988   7.872  1.2289  0.3800  1.1010
   74CHL1  H21C 7937   6.348   1.024   7.700  0.9333  0.6304 -0.1060
   74CHL1   C22 7938   6.623   0.897   7.847  0.2381  0.2261 -0.5202
   74CHL1  H22A 7939   6.712   0.837   7.820 -0.1393 -2.1546  2.9071
   74CHL1  H22B 7940   6.669   0.998   7.847  1.0768 -0.1261  0.8422
   74CHL1   C23 7941   6.586   0.848   7.988  0.2074 -0.1694 -0.4979
   74CHL1  H23A 7942   6.532   0.928   8.043  0.8229 -0.0257 -0.1010
   74CHL1  H23B 7943   6.512   0.766   7.978  0.6531 -0.7587  0.8028
   74CHL1   C24 7944   6.707   0.796   8.062  0.4029  0.6660  0.0394
   74CHL1  H24A 7945   6.738   0.713   7.994  0.0422  1.6044 -1.3204
   74CHL1  H24B 7946   6.785   0.875   8.068  0.0504  1.0472 -0.3073
   74CHL1   C25 7947   6.690   0.735   8.201  0.3696  0.4349 -0.0130
   74CHL1   H25 7948   6.619   0.650   8.208  0.4468  0.4789  1.7855
   74CHL1   C26 7949   6.828   0.684   8.233 -0.9044 -0.7326 -0.1130
   74CHL1  H26A 7950   6.876   0.613   8.161  0.9426  0.2780  0.0677
   74CHL1  H26B 7951   6.899   0.769   8.230 -0.6065 -0.8625  1.7924
   74CHL1  H26C 7952   6.835   0.630   8.330 -2.5962 -3.7710 -1.5382
   74CHL1   C27 7953   6.642   0.836   8.305  0.6163  0.2765  0.2436
   74CHL1  H27A 7954   6.713   0.922   8.302  1.4945 -0.4537 -2.0464
   74CHL1  H27B 7955   6.541   0.874   8.277  0.6092 -0.2521 -0.4886
   74CHL1  H27C 7956   6.652   0.793   8.406  0.5969  0.9167  0.5234
   75CHL1    C3 7957   4.942   3.110   6.677 -0.1739 -0.1160 -0.0612
   75CHL1    H3 7958   4.866   3.190   6.693  0.0285 -0.1558  1.1546
   75CHL1    O3 7959   4.949   3.088   6.540 -0.1088  0.7297 -0.3913
   75CHL1   H3' 7960   4.965   2.994   6.529 -1.8792  0.2028  1.1138
   75CHL1    C4 7961   5.073   3.143   6.731  0.4181  1.1260  0.0165
   75CHL1   H4A 7962   5.148   3.070   6.695  0.2261  1.4968 -1.1654
   75CHL1   H4B 7963   5.104   3.237   6.681  1.6234  0.0327 -1.3971
   75CHL1    C5 7964   5.064   3.145   6.881 -0.0505  0.0232 -0.2369
   75CHL1    C6 7965   5.101   3.264   6.938  0.3224  0.1855  0.0596
   75CHL1    H6 7966   5.137   3.345   6.873 -0.5209  0.8484  0.3991
   75CHL1    C7 7967   5.111   3.278   7.086  0.9565 -0.4156 -0.6478
   75CHL1   H7A 7968   5.204   3.327   7.121  1.4131 -1.4221 -0.4249
   75CHL1   H7B 7969   5.033   3.347   7.124  1.6864  1.2197 -1.9824
   75CHL1    C8 7970   5.096   3.142   7.169  0.0936 -0.0526  1.7497
   75CHL1    H8 7971   5.188   3.083   7.151  0.3764  1.1147 -1.1725
   75CHL1   C14 7972   5.074   3.165   7.321 -0.1266  0.4807  0.7226
   75CHL1   H14 7973   4.968   3.199   7.314  0.1191  1.0352 -0.6533
   75CHL1   C15 7974   5.167   3.266   7.389 -0.2342  0.4247  0.2340
   75CHL1  H15A 7975   5.272   3.251   7.354 -0.9801 -0.5026 -1.8006
   75CHL1  H15B 7976   5.141   3.371   7.364  0.2924  0.9044  1.5868
   75CHL1   C16 7977   5.157   3.229   7.541  0.8444 -0.6585  0.9263
   75CHL1  H16A 7978   5.252   3.217   7.597  1.5543  1.7764  0.3595
   75CHL1  H16B 7979   5.102   3.318   7.579 -0.5174  0.2725 -2.7271
   75CHL1   C17 7980   5.063   3.103   7.533 -0.0450 -0.2336  0.0966
   75CHL1   H17 7981   4.961   3.146   7.538  0.2173  0.6679 -1.3698
   75CHL1   C13 7982   5.068   3.037   7.397  0.7865 -0.4908  0.4700
   75CHL1   C18 7983   5.197   2.956   7.383 -0.5619 -0.5681 -0.6162
   75CHL1  H18A 7984   5.281   3.020   7.416 -0.9185 -0.6483  0.4842
   75CHL1  H18B 7985   5.185   2.861   7.439 -0.6164 -0.1703  0.0637
   75CHL1  H18C 7986   5.210   2.936   7.275 -1.5171 -1.0513 -0.6522
   75CHL1   C12 7987   4.952   2.953   7.338  0.2425 -0.1009 -0.9386
   75CHL1  H12A 7988   4.925   2.861   7.394  0.3825 -1.4189 -2.9505
   75CHL1  H12B 7989   4.856   3.009   7.344 -2.6646 -4.4749 -1.5433
   75CHL1   C11 7990   4.965   2.926   7.188 -0.2726 -0.0823  0.3505
   75CHL1  H11A 7991   5.035   2.842   7.172 -1.1239 -0.3002 -2.6908
   75CHL1  H11B 7992   4.864   2.903   7.149  0.0872 -0.2362 -0.5093
   75CHL1    C9 7993   4.990   3.053   7.108 -0.0278  0.3197 -0.0063
   75CHL1    H9 7994   4.899   3.115   7.125 -0.2783 -0.0630  0.0713
   75CHL1   C10 7995   5.008   3.023   6.958 -0.0411  1.2678  0.1152
   75CHL1   C19 7996   5.088   2.889   6.930 -0.1221  0.2010 -0.5242
   75CHL1  H19A 7997   5.104   2.855   6.825 -1.6895  0.1905 -0.7828
   75CHL1  H19B 7998   5.191   2.904   6.971 -0.0497 -2.2230  0.3370
   75CHL1  H19C 7999   5.035   2.805   6.979  0.2642  0.5454  0.5111
   75CHL1    C1 8000   4.866   3.015   6.889  0.0080 -0.7405  0.2342
   75CHL1   H1A 8001   4.806   2.931   6.930 -0.0054 -0.1595  1.4435
   75CHL1   H1B 8002   4.816   3.112   6.909  1.1095  0.7968 -3.4374
   75CHL1    C2 8003   4.876   2.989   6.736 -0.1096  0.3669  0.2554
   75CHL1   H2A 8004   4.772   2.979   6.698 -0.6978  0.8900  1.6561
   75CHL1   H2B 8005   4.932   2.900   6.701 -3.3146 -0.7029 -2.6899
   75CHL1   C20 8006   5.081   3.008   7.645  0.6072 -0.4623  0.2818
   75CHL1   H20 8007   5.181   2.959   7.645  0.0236 -1.6876 -0.6779
   75CHL1   C21 8008   4.973   2.894   7.655 -0.4715  0.0795 -0.1461
   75CHL1  H21A 8009   5.000   2.813   7.583 -0.3971 -2.8265  2.8942
   75CHL1  H21B 8010   4.874   2.932   7.624 -0.9784 -1.7192 -0.8992
   75CHL1  H21C 8011   4.967   2.854   7.759 -2.8885 -1.3738 -0.7573
   75CHL1   C22 8012   5.090   3.089   7.789  0.2983  0.1944  0.3816
   75CHL1  H22A 8013   5.175   3.160   7.787  0.1764  0.4425  2.2632
   75CHL1  H22B 8014   4.998   3.149   7.808 -0.0412 -0.8391  2.2466
   75CHL1   C23 8015   5.121   2.989   7.907 -0.2324 -0.7887 -0.0311
   75CHL1  H23A 8016   5.025   2.944   7.940 -2.0404 -0.9782 -4.7458
   75CHL1  H23B 8017   5.191   2.910   7.873 -0.7090 -1.0701 -0.3721
   75CHL1   C24 8018   5.176   3.044   8.035 -0.5749 -0.0187 -0.4707
   75CHL1  H24A 8019   5.244   3.129   8.013 -0.0863 -0.7886 -2.0955
   75CHL1  H24B 8020   5.097   3.083   8.102  0.0594  0.1739  0.1734
   75CHL1   C25 8021   5.260   2.948   8.127 -0.6644  0.5032 -0.4008
   75CHL1   H25 8022   5.339   2.900   8.066  1.2634  1.7037  1.0457
   75CHL1   C26 8023   5.331   3.027   8.246 -0.1994  0.2730  0.1089
   75CHL1  H26A 8024   5.387   3.116   8.210  1.7066  0.0733  2.3480
   75CHL1  H26B 8025   5.249   3.059   8.314 -0.2062  0.3544  0.0624
   75CHL1  H26C 8026   5.396   2.954   8.298  0.0342  0.7507  0.4926
   75CHL1   C27 8027   5.159   2.844   8.189  0.5584  0.3475 -0.0914
   75CHL1  H27A 8028   5.202   2.782   8.271  0.5528  0.6313  0.1262
   75CHL1  H27B 8029   5.065   2.895   8.221  0.8393  1.1678 -0.5718
   75CHL1  H27C 8030   5.125   2.775   8.109 -1.6066  0.2186  0.8691
   76CHL1    C3 8031   1.842   2.478   7.124 -1.1290 -0.1046  0.0526
   76CHL1    H3 8032   1.896   2.384   7.103  1.0669  0.7170  1.6708
   76CHL1    O3 8033   1.768   2.528   7.009  0.2021  0.7464 -0.0274
   76CHL1   H3' 8034   1.758   2.623   7.010  0.4820  0.8232 -2.0405
   76CHL1    C4 8035   1.746   2.448   7.245 -0.1604  0.6287  0.0227
   76CHL1   H4A 8036   1.681   2.537   7.260  0.5368  1.4085 -1.3564
   76CHL1   H4B 8037   1.689   2.366   7.198 -0.8441  1.0155  0.1662
   76CHL1    C5 8038   1.817   2.413   7.375  0.1227  0.1140 -0.0324
   76CHL1    C6 8039   1.807   2.293   7.438 -0.3872 -0.2994  0.5547
   76CHL1    H6 8040   1.746   2.220   7.383 -2.0989  0.8363  0.8819
   76CHL1    C7 8041   1.877   2.254   7.564 -0.1478 -0.7469 -0.2351
   76CHL1   H7A 8042   1.806   2.198   7.628 -1.1919 -0.4099 -1.0687
   76CHL1   H7B 8043   1.955   2.181   7.531  0.4170 -0.2699  0.0145
   76CHL1    C8 8044   1.937   2.370   7.650 -0.1183 -0.0218  0.2345
   76CHL1    H8 8045   1.855   2.426   7.698 -0.7510  0.3468 -1.2312
   76CHL1   C14 8046   2.045   2.320   7.741 -0.0204  0.2729 -0.1171
   76CHL1   H14 8047   2.116   2.264   7.677 -0.3315 -1.2722  0.8356
   76CHL1   C15 8048   1.987   2.218   7.837 -0.0338 -0.0649 -1.2079
   76CHL1  H15A 8049   1.891   2.255   7.880 -0.6270 -2.1185 -0.6331
   76CHL1  H15B 8050   1.974   2.114   7.801  0.8241 -1.0394  1.1183
   76CHL1   C16 8051   2.095   2.217   7.949  0.1068  0.0720 -0.2281
   76CHL1  H16A 8052   2.054   2.241   8.050  1.5340  0.0519  0.3765
   76CHL1  H16B 8053   2.151   2.121   7.943 -1.8126 -0.9895 -2.4310
   76CHL1   C17 8054   2.199   2.335   7.915  0.3729 -0.0254  0.3816
   76CHL1   H17 8055   2.271   2.289   7.845  1.4148  1.0514  0.7239
   76CHL1   C13 8056   2.125   2.433   7.818 -0.3303  0.1664 -0.5350
   76CHL1   C18 8057   2.031   2.533   7.905 -0.5661 -0.4028  0.3543
   76CHL1  H18A 8058   1.963   2.486   7.979  1.0545 -1.2621  1.3657
   76CHL1  H18B 8059   2.102   2.600   7.958  0.5609 -0.2833 -1.2050
   76CHL1  H18C 8060   1.964   2.598   7.845  0.6801  1.6127  1.0649
   76CHL1   C12 8061   2.198   2.510   7.707  0.1281 -0.2574  0.5061
   76CHL1  H12A 8062   2.255   2.591   7.757  1.0161 -1.2744  1.1756
   76CHL1  H12B 8063   2.275   2.446   7.659  0.3168  0.1878  0.2125
   76CHL1   C11 8064   2.100   2.568   7.604  0.3382 -0.3771  0.2395
   76CHL1  H11A 8065   2.037   2.641   7.659 -0.9514 -2.0131  1.0067
   76CHL1  H11B 8066   2.149   2.633   7.528 -0.3362  0.4327  0.4816
   76CHL1    C9 8067   2.005   2.460   7.541  0.1198 -0.7019  0.2109
   76CHL1    H9 8068   2.073   2.392   7.486 -1.8620 -1.3808 -1.5606
   76CHL1   C10 8069   1.911   2.515   7.428 -0.1604  0.2753 -0.0858
   76CHL1   C19 8070   1.828   2.629   7.480 -0.0674  0.0978 -0.0301
   76CHL1  H19A 8071   1.764   2.673   7.401  0.2232 -3.6781 -2.5909
   76CHL1  H19B 8072   1.766   2.612   7.571  1.3266  0.8986  1.1303
   76CHL1  H19C 8073   1.897   2.708   7.517 -0.1553  0.5484 -0.8027
   76CHL1    C1 8074   2.000   2.562   7.306  0.3425 -0.1755  0.6898
   76CHL1   H1A 8075   2.064   2.643   7.348 -1.8980  0.6483  2.7594
   76CHL1   H1B 8076   2.074   2.482   7.284 -0.0795 -0.4233  0.1395
   76CHL1    C2 8077   1.930   2.597   7.172  0.2510  0.0574  0.4170
   76CHL1   H2A 8078   1.998   2.645   7.099 -1.1102  1.7800  0.2361
   76CHL1   H2B 8079   1.861   2.680   7.196  0.4143 -0.0211  1.2005
   76CHL1   C20 8080   2.278   2.387   8.038 -1.2849 -0.2169 -0.7219
   76CHL1   H20 8081   2.218   2.438   8.116 -0.0756 -0.6405  0.5254
   76CHL1   C21 8082   2.386   2.490   7.997  0.7257 -0.0435 -0.8413
   76CHL1  H21A 8083   2.354   2.566   7.923  1.2681  2.6221  1.5090
   76CHL1  H21B 8084   2.456   2.418   7.949 -1.4067 -1.1332 -2.4833
   76CHL1  H21C 8085   2.431   2.553   8.077 -0.4986  3.3380 -2.6132
   76CHL1   C22 8086   2.347   2.281   8.132 -0.3605  0.3278  0.3348
   76CHL1  H22A 8087   2.264   2.214   8.161 -0.7720 -0.9052 -3.1317
   76CHL1  H22B 8088   2.424   2.218   8.083 -1.6528 -1.8539  0.9940
   76CHL1   C23 8089   2.412   2.336   8.258  0.1602 -0.6983 -0.5944
   76CHL1  H23A 8090   2.491   2.404   8.221 -2.0188  3.1910  1.2996
   76CHL1  H23B 8091   2.344   2.407   8.310  1.4184 -0.4747  0.7855
   76CHL1   C24 8092   2.477   2.243   8.353 -0.2713  0.5469  0.6078
   76CHL1  H24A 8093   2.412   2.154   8.364 -0.7131  0.6204 -1.0933
   76CHL1  H24B 8094   2.565   2.199   8.301 -0.8254 -1.6477  1.4215
   76CHL1   C25 8095   2.508   2.308   8.490 -0.4210 -0.0274 -0.0568
   76CHL1   H25 8096   2.564   2.402   8.474 -2.0484  0.8151 -1.0857
   76CHL1   C26 8097   2.379   2.328   8.577 -0.7146  0.2817  0.6074
   76CHL1  H26A 8098   2.307   2.404   8.540 -2.2487 -0.6876  1.5070
   76CHL1  H26B 8099   2.324   2.232   8.575  1.0617 -0.7675  0.6593
   76CHL1  H26C 8100   2.396   2.357   8.683 -2.5772  2.0407  0.4864
   76CHL1   C27 8101   2.605   2.219   8.565 -0.7165  0.4377  0.1489
   76CHL1  H27A 8102   2.612   2.262   8.667  0.2463 -1.1458  0.7993
   76CHL1  H27B 8103   2.576   2.112   8.563 -4.2444  1.2820  0.0410
   76CHL1  H27C 8104   2.703   2.234   8.515 -1.7253  0.2971 -1.9804
   77CHL1    C3 8105   0.948   1.360   6.803 -0.8030  0.5117 -1.0876
   77CHL1    H3 8106   1.046   1.390   6.845 -2.1334  0.9972  1.8561
   77CHL1    O3 8107   0.944   1.347   6.662  1.0643  0.8638 -0.0342
   77CHL1   H3' 8108   1.032   1.372   6.634  0.6358  0.4777 -1.8029
   77CHL1    C4 8109   0.898   1.229   6.863 -0.9028  0.6485 -0.3766
   77CHL1   H4A 8110   0.798   1.204   6.824 -0.3547  0.3117 -1.6195
   77CHL1   H4B 8111   0.959   1.146   6.820 -1.4595  0.8504 -1.6140
   77CHL1    C5 8112   0.885   1.229   7.014  0.1667  0.5079  0.1019
   77CHL1    C6 8113   0.956   1.141   7.089  0.6343 -1.0335  0.3093
   77CHL1    H6 8114   1.020   1.064   7.043 -2.1461 -2.7518 -0.9810
   77CHL1    C7 8115   0.944   1.137   7.242  0.2382 -0.1225  0.5770
   77CHL1   H7A 8116   0.935   1.029   7.267 -1.6808 -0.0475  0.3229
   77CHL1   H7B 8117   1.036   1.174   7.293 -0.7072  0.7072  1.7187
   77CHL1    C8 8118   0.826   1.220   7.300  0.0519 -0.2668 -0.3246
   77CHL1    H8 8119   0.731   1.164   7.292 -1.4579  2.0163  0.4252
   77CHL1   C14 8120   0.856   1.256   7.445 -0.4835 -0.2695 -0.1602
   77CHL1   H14 8121   0.946   1.321   7.444 -1.6116  1.4869  1.9879
   77CHL1   C15 8122   0.884   1.142   7.539 -0.1149  0.3821  0.2388
   77CHL1  H15A 8123   0.806   1.067   7.514  2.2384 -2.1593 -0.0500
   77CHL1  H15B 8124   0.978   1.084   7.524 -0.9349 -1.9315  3.2310
   77CHL1   C16 8125   0.874   1.206   7.671  0.0384  0.1469  0.1005
   77CHL1  H16A 8126   0.811   1.142   7.737  1.4210  0.4874  1.8087
   77CHL1  H16B 8127   0.974   1.215   7.717  0.0165 -2.6627  0.8878
   77CHL1   C17 8128   0.814   1.349   7.649 -0.1688 -0.6250 -0.7699
   77CHL1   H17 8129   0.904   1.414   7.640 -1.0657  1.2743  2.2531
   77CHL1   C13 8130   0.751   1.346   7.512  0.4733 -0.3663  0.0638
   77CHL1   C18 8131   0.609   1.274   7.517  1.4445  0.3048 -0.2295
   77CHL1  H18A 8132   0.608   1.195   7.596  1.8188  1.0224  0.5185
   77CHL1  H18B 8133   0.518   1.329   7.548 -0.0504 -2.2416  0.2347
   77CHL1  H18C 8134   0.584   1.229   7.419 -1.0736  3.1553 -1.0167
   77CHL1   C12 8135   0.739   1.474   7.432  0.5850 -0.1683  0.2984
   77CHL1  H12A 8136   0.653   1.526   7.479  1.8831  1.4488  0.9644
   77CHL1  H12B 8137   0.829   1.537   7.442  0.9639 -0.4061 -1.2859
   77CHL1   C11 8138   0.711   1.445   7.282  0.4470 -0.2007 -0.4268
   77CHL1  H11A 8139   0.620   1.380   7.278  2.1040 -2.5901 -2.1467
   77CHL1  H11B 8140   0.698   1.544   7.234 -0.9136 -0.1331  0.0341
   77CHL1    C9 8141   0.814   1.347   7.221  0.5193  0.0272 -0.0648
   77CHL1    H9 8142   0.907   1.408   7.232 -0.3461  1.1559  1.3670
   77CHL1   C10 8143   0.790   1.334   7.072  0.7161 -0.2096 -0.0023
   77CHL1   C19 8144   0.649   1.302   7.031  0.3433 -0.0871  0.0348
   77CHL1  H19A 8145   0.586   1.386   7.067  4.7117  3.2326  0.7056
   77CHL1  H19B 8146   0.635   1.299   6.920 -0.3065 -0.6078  0.1203
   77CHL1  H19C 8147   0.617   1.201   7.063 -2.1947 -0.0118 -1.8918
   77CHL1    C1 8148   0.831   1.475   7.004 -0.6456 -0.4040 -0.3496
   77CHL1   H1A 8149   0.757   1.553   7.034 -0.4125 -0.6791  0.9860
   77CHL1   H1B 8150   0.928   1.506   7.049 -0.9371  3.4168 -2.0078
   77CHL1    C2 8151   0.844   1.468   6.850 -0.4237 -0.2835 -0.3882
   77CHL1   H2A 8152   0.887   1.567   6.825  0.4043 -0.5838 -0.2200
   77CHL1   H2B 8153   0.743   1.451   6.809 -1.7015  0.0645  2.3732
   77CHL1   C20 8154   0.724   1.399   7.768 -0.4826 -0.0738  0.3187
   77CHL1   H20 8155   0.621   1.360   7.761  0.2896 -2.4873  1.3126
   77CHL1   C21 8156   0.705   1.554   7.757 -0.9506  1.0601 -0.6267
   77CHL1  H21A 8157   0.807   1.598   7.756 -0.3010 -0.1916 -4.5403
   77CHL1  H21B 8158   0.649   1.591   7.846  0.1134  1.9185 -0.2799
   77CHL1  H21C 8159   0.657   1.593   7.665  0.8400  0.2373 -1.9684
   77CHL1   C22 8160   0.781   1.364   7.905  0.1425 -0.5263 -0.7689
   77CHL1  H22A 8161   0.801   1.256   7.921 -3.2491 -0.7503  3.8830
   77CHL1  H22B 8162   0.874   1.424   7.913 -0.8872  1.4802 -2.7648
   77CHL1   C23 8163   0.681   1.386   8.024 -0.2835  0.8013 -0.1170
   77CHL1  H23A 8164   0.639   1.489   8.032 -1.6900  0.2755 -0.4565
   77CHL1  H23B 8165   0.595   1.319   8.004  1.8818 -2.7858  1.6849
   77CHL1   C24 8166   0.744   1.365   8.162  0.1571  0.1679 -0.0148
   77CHL1  H24A 8167   0.796   1.268   8.153 -0.1366  0.0462 -0.4497
   77CHL1  H24B 8168   0.815   1.449   8.181 -1.5482  0.9574  3.6613
   77CHL1   C25 8169   0.656   1.372   8.285  0.2845  0.6600  0.0903
   77CHL1   H25 8170   0.619   1.476   8.300 -0.0652  0.9472 -2.4410
   77CHL1   C26 8171   0.544   1.267   8.271  0.4648 -0.5928 -0.2935
   77CHL1  H26A 8172   0.464   1.286   8.346 -0.6258 -0.6512 -1.4006
   77CHL1  H26B 8173   0.472   1.276   8.186 -1.1581 -2.3430  0.8171
   77CHL1  H26C 8174   0.582   1.164   8.288 -1.5964 -1.3467  0.0710
   77CHL1   C27 8175   0.733   1.331   8.413 -0.3066 -0.1741  1.4166
   77CHL1  H27A 8176   0.812   1.404   8.441 -0.3750  0.2848  0.4419
   77CHL1  H27B 8177   0.648   1.338   8.484 -2.1613  2.7256 -0.8415
   77CHL1  H27C 8178   0.781   1.232   8.394 -0.6424  0.0408 -0.8957
   78CHL1    C3 8179   3.023   4.640   7.155  0.1908  0.6100 -0.3125
   78CHL1    H3 8180   3.052   4.746   7.172  3.5331 -0.0292 -1.3212
   78CHL1    O3 8181   3.020   4.615   7.015  0.3279  0.2149 -0.4126
   78CHL1   H3' 8182   3.000   4.522   6.997  0.3214  0.4385 -1.6492
   78CHL1    C4 8183   3.137   4.549   7.211 -0.3185 -0.0419  0.1723
   78CHL1   H4A 8184   3.127   4.445   7.174 -1.0045  0.0336  0.1351
   78CHL1   H4B 8185   3.232   4.589   7.169  0.0363 -0.2297  0.7907
   78CHL1    C5 8186   3.134   4.555   7.366 -0.2460  0.4323  0.0905
   78CHL1    C6 8187   3.249   4.575   7.435 -0.0810 -0.2636  0.2550
   78CHL1    H6 8188   3.337   4.583   7.370 -1.1142 -1.2077 -1.3261
   78CHL1    C7 8189   3.260   4.566   7.588  0.5700  0.0869 -0.0156
   78CHL1   H7A 8190   3.345   4.500   7.617 -0.3332 -1.4504 -0.6943
   78CHL1   H7B 8191   3.277   4.664   7.637  0.5803 -0.5511  1.3048
   78CHL1    C8 8192   3.135   4.496   7.654 -0.7307 -0.1311  0.9373
   78CHL1    H8 8193   3.137   4.386   7.636  1.2175  0.0664 -0.2712
   78CHL1   C14 8194   3.138   4.520   7.800 -0.3053  0.4187  0.5073
   78CHL1   H14 8195   3.114   4.628   7.812 -0.4315  0.3247  1.1274
   78CHL1   C15 8196   3.270   4.474   7.870  0.0056 -0.1280  0.9740
   78CHL1  H15A 8197   3.304   4.369   7.852  1.8556 -0.0787  3.7098
   78CHL1  H15B 8198   3.356   4.540   7.845 -0.5687  0.4463  0.4711
   78CHL1   C16 8199   3.228   4.480   8.011  0.0320 -0.6383  0.7756
   78CHL1  H16A 8200   3.273   4.389   8.057  0.6619 -0.4759  0.4959
   78CHL1  H16B 8201   3.277   4.571   8.051 -0.5685  0.8771 -1.7573
   78CHL1   C17 8202   3.073   4.482   8.025 -0.3654 -0.0109  0.5411
   78CHL1   H17 8203   3.055   4.586   8.060  2.6381  1.4110 -1.6335
   78CHL1   C13 8204   3.028   4.456   7.886  0.1459 -0.2216  0.1884
   78CHL1   C18 8205   3.022   4.305   7.858 -0.1956  0.2890 -0.3278
   78CHL1  H18A 8206   2.937   4.260   7.914 -1.0143  0.4705 -1.3970
   78CHL1  H18B 8207   2.993   4.277   7.755 -3.8909  0.8383  0.4252
   78CHL1  H18C 8208   3.116   4.253   7.887  0.9540  2.2922 -0.2231
   78CHL1   C12 8209   2.900   4.530   7.839  0.0315  0.7122 -0.0083
   78CHL1  H12A 8210   2.804   4.494   7.881  0.2555  0.9034  0.6956
   78CHL1  H12B 8211   2.898   4.636   7.875  0.0677  0.8443 -0.3963
   78CHL1   C11 8212   2.884   4.530   7.682  0.0459  0.2862  0.0200
   78CHL1  H11A 8213   2.873   4.422   7.658 -0.0938 -0.3352  2.5619
   78CHL1  H11B 8214   2.791   4.583   7.653 -1.5276 -3.6465 -3.0299
   78CHL1    C9 8215   3.010   4.560   7.596  0.0411  0.4057  0.5485
   78CHL1    H9 8216   3.027   4.670   7.590  2.6995  0.1936  2.5487
   78CHL1   C10 8217   3.001   4.517   7.435  0.0383 -0.3103  0.9060
   78CHL1   C19 8218   2.964   4.366   7.410  0.4225  0.3060 -0.6311
   78CHL1  H19A 8219   2.987   4.332   7.307 -0.8412  1.7905 -1.4368
   78CHL1  H19B 8220   3.024   4.310   7.486  1.9135  1.3036 -1.0488
   78CHL1  H19C 8221   2.856   4.349   7.431  0.2612  0.1749 -1.5315
   78CHL1    C1 8222   2.892   4.605   7.363  0.4995  0.2299 -0.0961
   78CHL1   H1A 8223   2.790   4.578   7.397  1.2918  0.2593  2.5467
   78CHL1   H1B 8224   2.914   4.709   7.394 -1.4256  0.5959  0.1631
   78CHL1    C2 8225   2.889   4.598   7.211  0.5762 -0.3911 -0.1374
   78CHL1   H2A 8226   2.812   4.668   7.172  1.0088  0.0840 -0.1568
   78CHL1   H2B 8227   2.865   4.499   7.167  0.2305  0.3494 -1.6842
   78CHL1   C20 8228   3.021   4.386   8.136 -0.1036  0.0001 -0.5201
   78CHL1   H20 8229   3.043   4.280   8.110  4.2999  0.7951 -0.7995
   78CHL1   C21 8230   2.868   4.420   8.153 -0.0393  0.0637  0.5803
   78CHL1  H21A 8231   2.827   4.369   8.243 -1.2000 -0.1909 -0.0616
   78CHL1  H21B 8232   2.807   4.387   8.066 -1.4499  0.5815  1.3461
   78CHL1  H21C 8233   2.841   4.527   8.162 -3.0442 -0.4008 -1.5242
   78CHL1   C22 8234   3.090   4.404   8.272  0.4071  0.5306  0.0202
   78CHL1  H22A 8235   3.192   4.360   8.275  0.4220  0.5743  0.1485
   78CHL1  H22B 8236   3.107   4.512   8.294  0.5771  0.9619 -2.0446
   78CHL1   C23 8237   3.015   4.348   8.393  0.0008 -0.2531  0.0346
   78CHL1  H23A 8238   2.925   4.404   8.425 -1.2290 -3.0231  1.7767
   78CHL1  H23B 8239   2.987   4.243   8.367  1.9390 -0.5106 -1.2144
   78CHL1   C24 8240   3.106   4.355   8.514 -0.5672 -0.8094 -0.6987
   78CHL1  H24A 8241   3.192   4.286   8.504  0.7034  0.9668 -2.9428
   78CHL1  H24B 8242   3.142   4.460   8.523 -0.0926 -1.0545  0.5504
   78CHL1   C25 8243   3.034   4.331   8.660 -0.7679 -0.0929  0.8082
   78CHL1   H25 8244   2.964   4.416   8.652  0.7336  1.0578 -1.1323
   78CHL1   C26 8245   2.961   4.192   8.665  0.0193  0.3536 -0.5064
   78CHL1  H26A 8246   2.919   4.178   8.767  0.7766  2.2694  0.1271
   78CHL1  H26B 8247   2.874   4.180   8.596 -0.5799  0.2099  0.2659
   78CHL1  H26C 8248   3.036   4.111   8.658  1.0778  1.2447  0.2886
   78CHL1   C27 8249   3.126   4.352   8.785  0.3260  0.2179  0.4519
   78CHL1  H27A 8250   3.158   4.458   8.795  3.4339 -0.5505 -0.4848
   78CHL1  H27B 8251   3.091   4.315   8.884  2.0305  0.9006  1.3430
   78CHL1  H27C 8252   3.214   4.291   8.759 -0.5279 -0.6104 -0.5993
   79CHL1    C3 8253   0.561   4.864   7.158  0.3980  0.7902  0.0742
   79CHL1    H3 8254   0.614   4.767   7.143 -2.1029 -0.5746 -0.5592
   79CHL1    O3 8255   0.544   4.926   7.029 -0.3738 -0.0622 -0.4052
   79CHL1   H3' 8256   0.627   4.952   6.987 -0.5104 -0.9115 -1.2295
   79CHL1    C4 8257   0.416   4.834   7.212 -0.3006 -0.4541  0.2026
   79CHL1   H4A 8258   0.355   4.925   7.192 -0.4505 -0.6002 -0.0148
   79CHL1   H4B 8259   0.392   4.746   7.147  3.6458 -0.3633 -1.6315
   79CHL1    C5 8260   0.415   4.811   7.363 -0.0979 -0.9291 -0.2827
   79CHL1    C6 8261   0.345   4.712   7.413  0.0007 -0.5233  0.2069
   79CHL1    H6 8262   0.276   4.661   7.344 -0.5296 -0.8024  0.9355
   79CHL1    C7 8263   0.328   4.679   7.557 -0.2115 -0.6672 -0.0418
   79CHL1   H7A 8264   0.220   4.677   7.581 -0.1374  1.4174  0.7139
   79CHL1   H7B 8265   0.371   4.578   7.578  0.6285 -0.1695  0.7325
   79CHL1    C8 8266   0.384   4.794   7.653  1.2602  0.3254 -0.2708
   79CHL1    H8 8267   0.303   4.870   7.650  0.9528 -0.0316 -1.8158
   79CHL1   C14 8268   0.392   4.748   7.805 -0.2598 -0.3096 -0.1625
   79CHL1   H14 8269   0.461   4.661   7.803 -0.5807 -0.5991  0.7303
   79CHL1   C15 8270   0.273   4.683   7.869  0.5173 -0.0364 -0.9333
   79CHL1  H15A 8271   0.182   4.739   7.839 -1.3509 -1.9248  0.8064
   79CHL1  H15B 8272   0.253   4.578   7.838 -1.7085  0.0739 -0.0260
   79CHL1   C16 8273   0.311   4.688   8.019 -0.4841 -0.1842  0.1465
   79CHL1  H16A 8274   0.225   4.724   8.079  1.1077  1.8600  1.3251
   79CHL1  H16B 8275   0.348   4.589   8.052 -1.0778  0.2299  2.1579
   79CHL1   C17 8276   0.433   4.782   8.034  0.4279 -0.6380  0.1214
   79CHL1   H17 8277   0.521   4.715   8.040 -0.0958 -1.2642  1.1073
   79CHL1   C13 8278   0.445   4.862   7.901 -0.5268 -0.3825  0.3044
   79CHL1   C18 8279   0.346   4.982   7.902 -0.0810 -0.4115  0.5265
   79CHL1  H18A 8280   0.329   5.027   7.803  2.3084 -0.4422  0.0539
   79CHL1  H18B 8281   0.254   4.953   7.959  0.8032 -2.8768  0.8538
   79CHL1  H18C 8282   0.388   5.062   7.966 -1.7170 -0.9291  2.3589
   79CHL1   C12 8283   0.589   4.904   7.855  0.2388  0.2378  0.2863
   79CHL1  H12A 8284   0.619   4.995   7.911 -2.8959  1.2433  0.5398
   79CHL1  H12B 8285   0.649   4.811   7.851 -1.7800 -1.0827 -1.1154
   79CHL1   C11 8286   0.579   4.956   7.710 -0.4385  0.3891 -0.2082
   79CHL1  H11A 8287   0.530   5.055   7.711  1.5040  1.4133 -0.7554
   79CHL1  H11B 8288   0.684   4.967   7.676 -0.4659 -1.4299 -1.0217
   79CHL1    C9 8289   0.515   4.860   7.605 -0.0392  0.5608 -0.0301
   79CHL1    H9 8290   0.588   4.776   7.608 -0.2471  0.3471 -0.6125
   79CHL1   C10 8291   0.504   4.902   7.457  0.3225  0.0371  0.8051
   79CHL1   C19 8292   0.431   5.041   7.455 -0.0129  0.5822  0.0695
   79CHL1  H19A 8293   0.336   5.039   7.513  0.0021 -0.9322  0.0718
   79CHL1  H19B 8294   0.492   5.117   7.508 -1.6002  0.0582  2.8226
   79CHL1  H19C 8295   0.407   5.071   7.350  0.1671 -0.7548 -0.3713
   79CHL1    C1 8296   0.641   4.928   7.396  0.2346 -0.0841 -0.3311
   79CHL1   H1A 8297   0.683   5.017   7.446  0.8288  0.9515 -2.5327
   79CHL1   H1B 8298   0.701   4.836   7.414 -1.3461 -0.8799  1.1898
   79CHL1    C2 8299   0.636   4.960   7.248 -0.3750  0.1275 -0.2441
   79CHL1   H2A 8300   0.739   4.970   7.209 -0.0307  2.1423  1.0492
   79CHL1   H2B 8301   0.601   5.065   7.241 -0.1285  0.2836  0.7443
   79CHL1   C20 8302   0.432   4.858   8.174 -0.2741 -0.0890 -0.6023
   79CHL1   H20 8303   0.336   4.913   8.170  1.0166  2.3532  0.0853
   79CHL1   C21 8304   0.550   4.963   8.188  0.2541  0.7914  0.2797
   79CHL1  H21A 8305   0.645   4.908   8.205  1.6524  2.0433 -2.6908
   79CHL1  H21B 8306   0.512   5.025   8.272 -0.8175  1.1325 -0.4337
   79CHL1  H21C 8307   0.564   5.031   8.101 -1.8695  0.6650 -0.2186
   79CHL1   C22 8308   0.423   4.761   8.299 -0.6589 -0.9561  0.0875
   79CHL1  H22A 8309   0.348   4.679   8.292  0.5904 -2.2580  1.3519
   79CHL1  H22B 8310   0.520   4.721   8.334 -0.3293 -1.0291 -0.8937
   79CHL1   C23 8311   0.374   4.845   8.423 -0.0207 -0.6670 -0.0815
   79CHL1  H23A 8312   0.457   4.919   8.432  0.0439 -0.3764 -2.4091
   79CHL1  H23B 8313   0.275   4.888   8.398 -1.0109 -2.2495  0.9810
   79CHL1   C24 8314   0.355   4.764   8.552  0.4661  0.1711 -0.1679
   79CHL1  H24A 8315   0.252   4.726   8.536  1.2295 -1.5934 -1.3316
   79CHL1  H24B 8316   0.414   4.669   8.546 -1.4295 -1.1795  1.4503
   79CHL1   C25 8317   0.370   4.832   8.682 -0.1542  0.3218 -0.2719
   79CHL1   H25 8318   0.332   4.936   8.668  1.9499  1.5050  1.8095
   79CHL1   C26 8319   0.291   4.761   8.792  0.1542  0.7399  0.5321
   79CHL1  H26A 8320   0.190   4.807   8.798  0.0585  0.6527 -0.3000
   79CHL1  H26B 8321   0.295   4.652   8.772 -0.7353  0.6927  0.5443
   79CHL1  H26C 8322   0.330   4.781   8.894 -0.4837  0.9465  0.7404
   79CHL1   C27 8323   0.517   4.839   8.733 -0.4054  0.1920 -0.2340
   79CHL1  H27A 8324   0.504   4.908   8.819  3.1186  0.0491  0.5649
   79CHL1  H27B 8325   0.564   4.741   8.755  0.1108  0.0391 -1.8530
   79CHL1  H27C 8326   0.580   4.893   8.659  2.4446 -2.1651  0.2986
   80CHL1    C3 8327   5.516   1.617   6.941 -0.4176 -0.4463 -0.2029
   80CHL1    H3 8328   5.414   1.579   6.917 -0.5079  0.4447 -1.3209
   80CHL1    O3 8329   5.564   1.669   6.820  0.1121 -0.0516  0.1260
   80CHL1   H3' 8330   5.544   1.607   6.749 -2.6874  0.2477  0.5308
   80CHL1    C4 8331   5.513   1.732   7.044  0.6247  0.4048  0.4624
   80CHL1   H4A 8332   5.610   1.786   7.052 -0.1542  1.7819  1.0834
   80CHL1   H4B 8333   5.437   1.805   7.009  2.7012  1.6768 -1.6211
   80CHL1    C5 8334   5.493   1.688   7.182  0.4956  0.1837 -0.2041
   80CHL1    C6 8335   5.387   1.735   7.254  0.1180  0.2493 -0.0074
   80CHL1    H6 8336   5.314   1.809   7.216  0.4993  0.5916 -0.0842
   80CHL1    C7 8337   5.364   1.688   7.393 -0.8838 -0.2047 -0.4235
   80CHL1   H7A 8338   5.320   1.769   7.453  0.2946 -0.8714  1.4200
   80CHL1   H7B 8339   5.293   1.603   7.384  0.2691 -1.2178 -0.3506
   80CHL1    C8 8340   5.490   1.632   7.456 -0.4676  0.4641  0.3241
   80CHL1    H8 8341   5.562   1.713   7.480 -0.8538  0.3437  2.0677
   80CHL1   C14 8342   5.458   1.564   7.591 -0.1264  0.6512  1.1220
   80CHL1   H14 8343   5.382   1.487   7.569  2.8031 -2.0627 -0.2752
   80CHL1   C15 8344   5.383   1.654   7.690 -0.0660  0.4075  0.1726
   80CHL1  H15A 8345   5.425   1.757   7.693  1.5643 -0.1408 -1.7458
   80CHL1  H15B 8346   5.279   1.671   7.655  0.9937  1.2649 -2.8296
   80CHL1   C16 8347   5.394   1.578   7.824 -0.2367  0.1257 -0.7823
   80CHL1  H16A 8348   5.432   1.647   7.902 -3.7869  1.7438 -0.2617
   80CHL1  H16B 8349   5.291   1.544   7.850  0.2071 -2.6095 -2.1647
   80CHL1   C17 8350   5.491   1.459   7.795 -1.3204 -0.5720 -0.4467
   80CHL1   H17 8351   5.434   1.368   7.769 -2.2758  0.4002 -1.9295
   80CHL1   C13 8352   5.563   1.489   7.663 -0.1168  0.4808 -0.7726
   80CHL1   C18 8353   5.675   1.590   7.696 -1.0021 -0.1876  0.1681
   80CHL1  H18A 8354   5.645   1.675   7.760 -0.6845 -0.2768  0.4380
   80CHL1  H18B 8355   5.759   1.539   7.747 -0.6848 -0.4307 -0.5729
   80CHL1  H18C 8356   5.717   1.631   7.601  0.4167  1.6296  1.5082
   80CHL1   C12 8357   5.608   1.369   7.579  0.1772 -0.7631  0.2699
   80CHL1  H12A 8358   5.694   1.317   7.626  1.2542  0.2399 -0.5529
   80CHL1  H12B 8359   5.517   1.307   7.563 -0.0853  0.1020 -1.8600
   80CHL1   C11 8360   5.647   1.430   7.440  0.1534  0.1691 -0.1689
   80CHL1  H11A 8361   5.736   1.496   7.440 -0.9217  1.6933 -0.9540
   80CHL1  H11B 8362   5.669   1.341   7.377 -0.7965 -0.2270  0.0277
   80CHL1    C9 8363   5.543   1.514   7.372  0.3634 -0.7993 -0.2665
   80CHL1    H9 8364   5.456   1.452   7.340  1.2452 -1.7139 -0.9505
   80CHL1   C10 8365   5.583   1.574   7.234 -0.2065  0.4565  0.4167
   80CHL1   C19 8366   5.732   1.620   7.239 -0.3191 -0.3307 -0.0013
   80CHL1  H19A 8367   5.750   1.682   7.330  1.4934 -1.3446  0.3926
   80CHL1  H19B 8368   5.802   1.534   7.245  0.2544  0.0172 -1.2993
   80CHL1  H19C 8369   5.768   1.664   7.144 -0.9099 -1.5505 -0.8118
   80CHL1    C1 8370   5.571   1.461   7.123  0.1988  0.1827 -0.6150
   80CHL1   H1A 8371   5.642   1.382   7.155  0.2386  0.6085  0.3840
   80CHL1   H1B 8372   5.466   1.424   7.123 -0.7234  2.5837  0.5189
   80CHL1    C2 8373   5.607   1.502   6.987 -1.3437 -0.0742 -0.8750
   80CHL1   H2A 8374   5.581   1.427   6.909 -0.4622 -0.1211 -1.1302
   80CHL1   H2B 8375   5.716   1.521   6.990 -1.2502 -0.5846 -0.9218
   80CHL1   C20 8376   5.575   1.420   7.918 -0.4336 -0.3021  0.3508
   80CHL1   H20 8377   5.638   1.510   7.937  0.5973 -0.2920 -2.6282
   80CHL1   C21 8378   5.675   1.309   7.890 -0.6618 -0.3338 -0.1932
   80CHL1  H21A 8379   5.617   1.221   7.853 -1.6325 -0.3124  1.2026
   80CHL1  H21B 8380   5.728   1.276   7.981  1.4424 -0.3307 -1.3670
   80CHL1  H21C 8381   5.759   1.334   7.823  2.1752 -2.3995  2.3272
   80CHL1   C22 8382   5.502   1.388   8.046 -0.4967  0.7303  0.6123
   80CHL1  H22A 8383   5.405   1.443   8.047 -0.9165  0.1055 -0.9633
   80CHL1  H22B 8384   5.468   1.282   8.055  2.7057 -0.6202 -1.3486
   80CHL1   C23 8385   5.565   1.432   8.174 -0.1296 -0.4918 -0.0215
   80CHL1  H23A 8386   5.666   1.385   8.183 -0.6149 -2.0272 -2.0114
   80CHL1  H23B 8387   5.570   1.543   8.170 -0.1587 -0.5066 -0.4195
   80CHL1   C24 8388   5.483   1.401   8.305  0.2335 -0.2065 -0.4087
   80CHL1  H24A 8389   5.381   1.444   8.303  0.1666 -0.3742 -1.8798
   80CHL1  H24B 8390   5.466   1.292   8.317  2.8709 -0.6098  0.4371
   80CHL1   C25 8391   5.560   1.441   8.427 -0.0335 -0.0004 -0.7370
   80CHL1   H25 8392   5.640   1.513   8.397  0.9359 -0.9744 -0.5501
   80CHL1   C26 8393   5.477   1.511   8.534  0.7293  0.3390 -0.6642
   80CHL1  H26A 8394   5.388   1.446   8.548  2.8052 -2.2671  1.6009
   80CHL1  H26B 8395   5.537   1.508   8.628  0.0745  1.6222 -0.1768
   80CHL1  H26C 8396   5.458   1.616   8.505 -0.6119  0.6264  1.0511
   80CHL1   C27 8397   5.627   1.312   8.489  0.0468  0.1218 -0.5754
   80CHL1  H27A 8398   5.684   1.273   8.402 -0.6314  1.4430 -1.6393
   80CHL1  H27B 8399   5.694   1.342   8.572  1.9587  1.9325 -2.6613
   80CHL1  H27C 8400   5.541   1.247   8.520  1.6898 -1.7405  0.3000
   81CHL1    C3 8401   3.800   2.891   7.055  0.1843  0.4070 -0.2723
   81CHL1    H3 8402   3.910   2.877   7.058  0.4543  1.6546 -2.4612
   81CHL1    O3 8403   3.758   2.889   6.916  0.0248 -0.4702 -0.5921
   81CHL1   H3' 8404   3.663   2.907   6.915  0.4134  1.9741  0.2017
   81CHL1    C4 8405   3.738   2.763   7.120 -0.3378  0.6461 -0.2914
   81CHL1   H4A 8406   3.628   2.770   7.101 -0.3185  3.6385  0.2170
   81CHL1   H4B 8407   3.767   2.671   7.065 -2.8833 -0.1463 -0.4448
   81CHL1    C5 8408   3.771   2.759   7.268 -0.1918  0.6981  0.3300
   81CHL1    C6 8409   3.837   2.655   7.327  0.3199 -1.1838  0.6777
   81CHL1    H6 8410   3.845   2.564   7.265 -0.8980 -0.7487 -0.1548
   81CHL1    C7 8411   3.873   2.647   7.469 -0.1891 -0.0450  0.3756
   81CHL1   H7A 8412   3.860   2.542   7.504  1.3714 -0.1210  0.7976
   81CHL1   H7B 8413   3.979   2.677   7.484  0.7293 -2.0125 -1.6639
   81CHL1    C8 8414   3.794   2.747   7.552 -0.5838  0.3018 -0.2556
   81CHL1    H8 8415   3.696   2.695   7.553 -0.9098  0.9008 -0.7887
   81CHL1   C14 8416   3.849   2.753   7.698  0.1938 -0.2419  0.0929
   81CHL1   H14 8417   3.956   2.782   7.699  0.0662  0.2698  1.6008
   81CHL1   C15 8418   3.848   2.614   7.773 -0.0179  0.1413 -0.2164
   81CHL1  H15A 8419   3.747   2.568   7.769 -0.4476  0.8380  1.4830
   81CHL1  H15B 8420   3.924   2.541   7.738  0.0168  1.2538 -2.6732
   81CHL1   C16 8421   3.877   2.651   7.915  0.7711 -0.3570 -0.2830
   81CHL1  H16A 8422   3.817   2.600   7.993 -0.9698  0.6970 -0.8686
   81CHL1  H16B 8423   3.985   2.641   7.937  0.6244  1.0705  1.2692
   81CHL1   C17 8424   3.861   2.810   7.915  0.3245 -0.9896 -0.5123
   81CHL1   H17 8425   3.958   2.857   7.889  0.0442  0.9347  1.6560
   81CHL1   C13 8426   3.782   2.853   7.786  0.1107  0.2949 -0.4408
   81CHL1   C18 8427   3.636   2.819   7.817 -0.2923 -0.7228  0.7195
   81CHL1  H18A 8428   3.573   2.810   7.726  0.7837 -0.6674 -0.0545
   81CHL1  H18B 8429   3.611   2.730   7.879 -1.6985 -1.5120 -0.8863
   81CHL1  H18C 8430   3.597   2.905   7.875  0.9860  0.4655 -0.1160
   81CHL1   C12 8431   3.783   2.998   7.732 -0.1983 -0.0284 -0.3684
   81CHL1  H12A 8432   3.713   3.066   7.784  2.9227  2.9696  0.2170
   81CHL1  H12B 8433   3.885   3.040   7.739  0.0060 -0.4646 -0.7132
   81CHL1   C11 8434   3.721   2.993   7.585 -0.1528 -0.1080  0.0868
   81CHL1  H11A 8435   3.615   2.966   7.603  0.7674 -2.8081  1.9590
   81CHL1  H11B 8436   3.712   3.098   7.551 -1.1412 -0.8380 -2.0925
   81CHL1    C9 8437   3.790   2.889   7.490  0.0906  0.0524  0.3098
   81CHL1    H9 8438   3.897   2.913   7.473 -0.5117  0.2807 -4.4670
   81CHL1   C10 8439   3.735   2.891   7.343  0.5873  0.3101  0.4318
   81CHL1   C19 8440   3.584   2.902   7.357  0.1202 -0.4197  0.6591
   81CHL1  H19A 8441   3.562   3.006   7.388 -0.9660  0.0812 -1.6234
   81CHL1  H19B 8442   3.518   2.898   7.268  1.1474  2.6439 -0.3439
   81CHL1  H19C 8443   3.544   2.822   7.424 -0.1927  0.1299  1.1370
   81CHL1    C1 8444   3.797   3.017   7.269  0.5643  0.5417  0.4623
   81CHL1   H1A 8445   3.763   3.109   7.322  1.5079  0.4449  1.2794
   81CHL1   H1B 8446   3.905   3.006   7.292  0.5107  0.6145  0.7508
   81CHL1    C2 8447   3.772   3.027   7.115 -0.1368 -0.6691 -0.4061
   81CHL1   H2A 8448   3.832   3.104   7.063  1.8508 -2.6486 -1.2110
   81CHL1   H2B 8449   3.665   3.055   7.108  0.3147  1.8140  1.4599
   81CHL1   C20 8450   3.816   2.860   8.051 -0.1640 -0.3033 -0.2168
   81CHL1   H20 8451   3.705   2.860   8.061 -0.1403 -1.7970  0.3039
   81CHL1   C21 8452   3.856   3.007   8.054  0.2467 -0.6857 -0.2805
   81CHL1  H21A 8453   3.966   3.026   8.051 -0.2055  2.3763 -0.4048
   81CHL1  H21B 8454   3.820   3.063   8.143 -2.5738 -2.7001 -0.0146
   81CHL1  H21C 8455   3.809   3.075   7.979 -1.3370 -2.0504 -0.5654
   81CHL1   C22 8456   3.882   2.786   8.169  0.4950  0.5588  0.3122
   81CHL1  H22A 8457   3.863   2.677   8.177 -2.0127  0.5988 -2.9107
   81CHL1  H22B 8458   3.991   2.803   8.158  0.5357  0.3040  0.3144
   81CHL1   C23 8459   3.836   2.829   8.309  0.2445 -0.5674  0.5346
   81CHL1  H23A 8460   3.872   2.933   8.326  0.7527 -0.7635  0.6661
   81CHL1  H23B 8461   3.725   2.835   8.305  0.3421  1.2360 -0.3980
   81CHL1   C24 8462   3.882   2.740   8.430  0.0936  0.5744  0.9356
   81CHL1  H24A 8463   3.808   2.657   8.434  1.8158 -1.1632 -0.7668
   81CHL1  H24B 8464   3.977   2.690   8.401 -0.6572 -0.0192 -0.6119
   81CHL1   C25 8465   3.900   2.796   8.571  0.2535  0.5969  0.2395
   81CHL1   H25 8466   3.974   2.879   8.570 -0.4439  1.2320 -0.9604
   81CHL1   C26 8467   3.766   2.859   8.626  0.1051 -0.6922  0.6335
   81CHL1  H26A 8468   3.681   2.787   8.625 -0.2204 -0.3095 -0.4584
   81CHL1  H26B 8469   3.785   2.902   8.727  0.4928  0.3486  0.1291
   81CHL1  H26C 8470   3.731   2.940   8.559 -0.3377 -0.5971  0.9732
   81CHL1   C27 8471   3.962   2.697   8.673 -0.1012 -0.4384 -0.3061
   81CHL1  H27A 8472   4.010   2.750   8.758 -1.1901  1.2933 -0.7092
   81CHL1  H27B 8473   3.890   2.623   8.714 -3.2723  2.6724  0.2926
   81CHL1  H27C 8474   4.048   2.650   8.620 -0.3687 -1.5850  0.2483
   82CHL1    C3 8475   3.367   4.215   7.124  0.2736 -0.5014  0.1519
   82CHL1    H3 8476   3.364   4.326   7.121  0.7204 -0.4991 -2.0211
   82CHL1    O3 8477   3.351   4.183   6.987  0.2654 -0.6637 -0.0203
   82CHL1   H3' 8478   3.369   4.089   6.983  1.2940 -0.4781 -0.0788
   82CHL1    C4 8479   3.496   4.158   7.178  0.5409  0.5274  0.0784
   82CHL1   H4A 8480   3.487   4.053   7.143 -1.5889  0.8573 -0.5224
   82CHL1   H4B 8481   3.577   4.207   7.119  1.7170 -0.8091  0.5256
   82CHL1    C5 8482   3.508   4.154   7.329 -0.2033 -0.4363  0.1062
   82CHL1    C6 8483   3.612   4.210   7.394  0.4061  0.1352  0.0487
   82CHL1    H6 8484   3.690   4.269   7.343  0.3365  0.6098  0.4812
   82CHL1    C7 8485   3.632   4.202   7.540  0.8538  0.2390  0.1176
   82CHL1   H7A 8486   3.734   4.162   7.562  1.3180 -0.2366 -2.5599
   82CHL1   H7B 8487   3.636   4.309   7.570 -0.8893  0.4579 -0.3423
   82CHL1    C8 8488   3.532   4.103   7.614  0.0014 -0.3355  0.8467
   82CHL1    H8 8489   3.584   4.007   7.593  0.2802  0.3488 -2.0341
   82CHL1   C14 8490   3.522   4.136   7.761 -0.5255 -0.5386 -0.2239
   82CHL1   H14 8491   3.466   4.232   7.773  0.2964 -0.4123  4.8616
   82CHL1   C15 8492   3.655   4.156   7.834 -0.3169  0.1063  0.9568
   82CHL1  H15A 8493   3.721   4.076   7.795 -0.2222 -0.3660  2.0373
   82CHL1  H15B 8494   3.699   4.257   7.815 -0.1101  0.3627  2.6333
   82CHL1   C16 8495   3.625   4.141   7.979  0.2152 -0.5852  0.1891
   82CHL1  H16A 8496   3.684   4.057   8.022  1.7595  0.2298 -0.2542
   82CHL1  H16B 8497   3.637   4.233   8.040 -1.4694 -1.1513  1.4232
   82CHL1   C17 8498   3.476   4.099   7.984  0.0620  0.2765  0.0394
   82CHL1   H17 8499   3.423   4.197   7.987 -0.1962  0.1104  2.0605
   82CHL1   C13 8500   3.440   4.043   7.849  0.0905  0.4375 -0.5181
   82CHL1   C18 8501   3.499   3.900   7.841  0.3220  0.9430 -0.0030
   82CHL1  H18A 8502   3.603   3.899   7.880  1.2127 -0.0612 -2.2608
   82CHL1  H18B 8503   3.437   3.832   7.903 -1.2072  1.6026 -0.7764
   82CHL1  H18C 8504   3.505   3.854   7.741  1.2049  1.6695 -0.2990
   82CHL1   C12 8505   3.302   4.042   7.794  0.7887 -0.2436 -0.5351
   82CHL1  H12A 8506   3.225   3.986   7.852  1.5682 -0.1841  0.5848
   82CHL1  H12B 8507   3.266   4.146   7.802  0.5895 -0.3402 -0.1366
   82CHL1   C11 8508   3.296   4.015   7.641  0.6223  0.1160  0.7751
   82CHL1  H11A 8509   3.321   3.907   7.632 -0.5356 -0.2321  1.4699
   82CHL1  H11B 8510   3.192   4.037   7.610  1.3342  1.1115 -1.0274
   82CHL1    C9 8511   3.390   4.105   7.558 -0.5376 -0.8437 -0.1688
   82CHL1    H9 8512   3.356   4.209   7.577  0.0807 -0.8865  1.3239
   82CHL1   C10 8513   3.395   4.086   7.403  0.2636 -0.0776 -0.4072
   82CHL1   C19 8514   3.389   3.935   7.379 -0.2987 -0.2881  0.2956
   82CHL1  H19A 8515   3.399   3.926   7.268 -0.6312 -0.2872  0.2643
   82CHL1  H19B 8516   3.477   3.882   7.422 -1.6549 -2.8303  0.1155
   82CHL1  H19C 8517   3.297   3.891   7.421 -0.3845  0.8025  1.3078
   82CHL1    C1 8518   3.269   4.162   7.353 -0.2682  0.3190 -0.6320
   82CHL1   H1A 8519   3.178   4.110   7.389 -0.0994 -0.1394 -0.8570
   82CHL1   H1B 8520   3.276   4.267   7.390  0.7143 -0.3678  1.2986
   82CHL1    C2 8521   3.251   4.159   7.198 -0.2068  0.6182 -1.0980
   82CHL1   H2A 8522   3.160   4.220   7.182 -1.3169 -1.1760 -2.0290
   82CHL1   H2B 8523   3.230   4.054   7.168 -2.4417  0.5394  0.4778
   82CHL1   C20 8524   3.438   4.041   8.122 -0.6243 -0.1255 -0.0099
   82CHL1   H20 8525   3.499   3.948   8.130  0.1513  0.2962 -0.9223
   82CHL1   C21 8526   3.291   3.991   8.113 -0.0585 -0.8071  0.3769
   82CHL1  H21A 8527   3.263   3.965   8.217 -0.7729  0.7812  0.6131
   82CHL1  H21B 8528   3.282   3.897   8.055  1.5325  0.2263 -1.6399
   82CHL1  H21C 8529   3.218   4.069   8.081 -0.9549 -0.5837  2.7080
   82CHL1   C22 8530   3.472   4.144   8.230 -0.0134 -1.2280 -0.1059
   82CHL1  H22A 8531   3.576   4.182   8.225  0.0942 -1.5848 -0.7826
   82CHL1  H22B 8532   3.413   4.235   8.209 -0.0229 -1.0655  0.5986
   82CHL1   C23 8533   3.457   4.080   8.369 -0.2153  0.0718  0.5732
   82CHL1  H23A 8534   3.354   4.041   8.388 -0.4646  0.4857  0.1167
   82CHL1  H23B 8535   3.519   3.989   8.368 -0.0222  0.1946  1.0610
   82CHL1   C24 8536   3.503   4.166   8.479  0.2394  0.7541 -0.1814
   82CHL1  H24A 8537   3.614   4.163   8.482  0.2531  1.3104  0.0156
   82CHL1  H24B 8538   3.461   4.269   8.474 -1.0643  0.4899  2.8655
   82CHL1   C25 8539   3.464   4.117   8.622 -0.1713 -0.0603 -0.5750
   82CHL1   H25 8540   3.353   4.122   8.623 -0.1566  3.5352  2.5484
   82CHL1   C26 8541   3.522   3.981   8.649  0.5638 -0.0003  0.0880
   82CHL1  H26A 8542   3.485   3.953   8.750  0.7639  2.1313  0.8009
   82CHL1  H26B 8543   3.500   3.901   8.574 -1.1735  0.9401 -0.4779
   82CHL1  H26C 8544   3.630   3.993   8.667  0.6886 -1.6510  0.6889
   82CHL1   C27 8545   3.516   4.223   8.719  0.1763 -0.3997  0.8389
   82CHL1  H27A 8546   3.484   4.186   8.818  2.4190 -2.3758  0.9210
   82CHL1  H27B 8547   3.626   4.239   8.718  0.2762 -0.9654 -0.3731
   82CHL1  H27C 8548   3.463   4.320   8.705  1.9614  0.5470  0.3789
   83CHL1    C3 8549   2.309   0.687   7.034  0.5388 -0.2905 -0.4297
   83CHL1    H3 8550   2.337   0.588   7.076  0.7995  0.0809  0.2929
   83CHL1    O3 8551   2.287   0.689   6.895  0.3629  0.5022 -0.1708
   83CHL1   H3' 8552   2.259   0.780   6.879 -0.8992  0.4121  1.3330
   83CHL1    C4 8553   2.183   0.740   7.108 -0.6220 -0.0777 -0.1558
   83CHL1   H4A 8554   2.162   0.837   7.058  0.2986 -0.4523 -1.3042
   83CHL1   H4B 8555   2.108   0.663   7.079  1.0817 -1.8051 -0.2041
   83CHL1    C5 8556   2.208   0.753   7.256 -0.2016  0.1354 -0.3874
   83CHL1    C6 8557   2.124   0.701   7.346  0.5018 -0.3475 -0.1741
   83CHL1    H6 8558   2.036   0.644   7.311 -0.0427  0.0537  0.5119
   83CHL1    C7 8559   2.141   0.707   7.498  0.5711 -0.2389  0.1363
   83CHL1   H7A 8560   2.039   0.728   7.535  0.7215  0.1850  0.3237
   83CHL1   H7B 8561   2.161   0.606   7.540  1.7347  0.1647  0.6038
   83CHL1    C8 8562   2.244   0.810   7.543  0.3314  0.3320 -0.1007
   83CHL1    H8 8563   2.200   0.913   7.544 -0.2856  0.1986 -3.3951
   83CHL1   C14 8564   2.298   0.762   7.680 -0.4225 -0.2934 -0.1912
   83CHL1   H14 8565   2.361   0.673   7.658  0.5414  0.1411  0.6955
   83CHL1   C15 8566   2.203   0.734   7.794  1.0714  0.6674 -0.7061
   83CHL1  H15A 8567   2.121   0.809   7.798  1.4619  1.1517 -1.5185
   83CHL1  H15B 8568   2.157   0.636   7.771  0.5969 -0.1641  3.0567
   83CHL1   C16 8569   2.287   0.746   7.915 -0.1410  0.4068  0.0797
   83CHL1  H16A 8570   2.247   0.832   7.972 -0.7361  0.8811 -1.0213
   83CHL1  H16B 8571   2.291   0.657   7.982  0.4038 -0.8093 -1.5051
   83CHL1   C17 8572   2.431   0.780   7.861  0.0722  0.0481 -1.0586
   83CHL1   H17 8573   2.470   0.680   7.834 -0.9201 -0.4938 -0.5403
   83CHL1   C13 8574   2.404   0.862   7.738 -0.1710 -1.0216  0.6391
   83CHL1   C18 8575   2.348   1.004   7.769  0.5057  0.2351 -0.0857
   83CHL1  H18A 8576   2.428   1.067   7.812  1.3746 -0.9124  0.0236
   83CHL1  H18B 8577   2.306   1.061   7.684 -0.9185  1.0317  1.1056
   83CHL1  H18C 8578   2.270   0.993   7.848  2.1001 -2.4403  1.2788
   83CHL1   C12 8579   2.525   0.870   7.640  0.1618  0.2678 -0.2014
   83CHL1  H12A 8580   2.593   0.949   7.677  1.0543 -1.3862  1.9063
   83CHL1  H12B 8581   2.584   0.775   7.639  1.0009  0.7205  1.8828
   83CHL1   C11 8582   2.477   0.901   7.501 -0.1439  0.4955 -0.3732
   83CHL1  H11A 8583   2.435   1.003   7.515  0.5293  0.6295  0.8341
   83CHL1  H11B 8584   2.565   0.899   7.433  0.0796  4.0466 -0.3705
   83CHL1    C9 8585   2.363   0.816   7.448 -0.3980  0.1329 -0.0790
   83CHL1    H9 8586   2.404   0.713   7.448  0.6492  0.5406 -0.1833
   83CHL1   C10 8587   2.329   0.837   7.299  0.0393 -0.2746  0.4460
   83CHL1   C19 8588   2.280   0.981   7.277  0.5869  0.9931 -0.9779
   83CHL1  H19A 8589   2.232   0.997   7.177 -0.5814 -0.0755 -0.6204
   83CHL1  H19B 8590   2.206   1.003   7.357  0.6544 -2.2540  0.1112
   83CHL1  H19C 8591   2.365   1.052   7.283  0.5899  0.9547 -0.5501
   83CHL1    C1 8592   2.459   0.791   7.212  0.8724  0.4765 -0.0454
   83CHL1   H1A 8593   2.544   0.861   7.223  0.9856  0.7154 -2.0811
   83CHL1   H1B 8594   2.477   0.689   7.254 -0.8218  1.0255  2.2227
   83CHL1    C2 8595   2.436   0.774   7.064  0.5954  0.0390 -0.1746
   83CHL1   H2A 8596   2.521   0.713   7.025 -1.1319 -1.6600 -1.4235
   83CHL1   H2B 8597   2.429   0.865   7.000  0.7681  0.1114 -0.0928
   83CHL1   C20 8598   2.511   0.850   7.973 -0.0358 -0.0735  0.3409
   83CHL1   H20 8599   2.481   0.956   7.990  0.8717  0.1347  0.7155
   83CHL1   C21 8600   2.654   0.838   7.921  0.3367 -0.1119 -0.2669
   83CHL1  H21A 8601   2.671   0.921   7.848 -2.4690  1.4946  0.7511
   83CHL1  H21B 8602   2.664   0.743   7.865 -0.5781 -0.2170 -0.2684
   83CHL1  H21C 8603   2.733   0.844   7.998 -1.6387 -0.6325  1.9204
   83CHL1   C22 8604   2.504   0.784   8.113 -0.0321  0.1552 -1.2512
   83CHL1  H22A 8605   2.581   0.836   8.175  1.3214 -3.1830  0.0988
   83CHL1  H22B 8606   2.406   0.805   8.160 -0.4157 -2.0175 -0.9763
   83CHL1   C23 8607   2.542   0.636   8.133 -0.4370  0.6482  0.6311
   83CHL1  H23A 8608   2.480   0.566   8.073  2.0301 -0.1081 -1.2056
   83CHL1  H23B 8609   2.641   0.610   8.090 -0.6610  1.7246 -0.6062
   83CHL1   C24 8610   2.547   0.580   8.275  0.3499  0.4466  0.1636
   83CHL1  H24A 8611   2.445   0.546   8.304  0.3694 -1.5706 -1.8786
   83CHL1  H24B 8612   2.597   0.480   8.266 -0.9478 -0.0266 -4.4261
   83CHL1   C25 8613   2.610   0.663   8.389 -0.4992 -0.1408 -0.8250
   83CHL1   H25 8614   2.572   0.768   8.381  0.1085  0.1531  0.0092
   83CHL1   C26 8615   2.580   0.606   8.527  0.5415  0.3623 -0.3691
   83CHL1  H26A 8616   2.470   0.591   8.527  0.7296 -1.3595  0.9739
   83CHL1  H26B 8617   2.625   0.511   8.561 -0.8346  0.0737  0.7140
   83CHL1  H26C 8618   2.613   0.685   8.599 -1.9310  1.4545 -0.3482
   83CHL1   C27 8619   2.760   0.677   8.368 -0.8715  0.5512  0.0670
   83CHL1  H27A 8620   2.815   0.710   8.460  0.5857  1.2536 -1.0183
   83CHL1  H27B 8621   2.782   0.569   8.353 -1.2293  0.4014  0.5703
   83CHL1  H27C 8622   2.788   0.739   8.281 -1.8729  0.1250 -0.5724
   84CHL1    C3 8623   0.719   0.347   6.909  0.3622  0.2953  0.0986
   84CHL1    H3 8624   0.811   0.287   6.887  0.2239  0.6958 -1.7034
   84CHL1    O3 8625   0.655   0.399   6.790 -0.2692  0.3902 -0.2362
   84CHL1   H3' 8626   0.592   0.463   6.824  0.2760  0.9485 -0.2557
   84CHL1    C4 8627   0.606   0.278   6.998  0.0659 -1.0869  0.6671
   84CHL1   H4A 8628   0.518   0.346   6.998  1.0211  0.2177 -0.6970
   84CHL1   H4B 8629   0.560   0.194   6.942  1.2694 -0.5906 -1.1541
   84CHL1    C5 8630   0.653   0.237   7.136  0.9459  0.4326 -0.4955
   84CHL1    C6 8631   0.675   0.111   7.176  0.1374 -0.1461  0.5069
   84CHL1    H6 8632   0.654   0.035   7.100 -1.1395  1.7549 -1.1557
   84CHL1    C7 8633   0.728   0.076   7.315 -0.0804 -0.2923  0.4593
   84CHL1   H7A 8634   0.675  -0.015   7.352  1.5454 -1.7746 -0.6796
   84CHL1   H7B 8635   0.832   0.038   7.314  0.9351  2.2554  1.2947
   84CHL1    C8 8636   0.721   0.193   7.414 -0.8825  0.0540  0.0526
   84CHL1    H8 8637   0.616   0.198   7.450 -0.7470  1.3850  0.3203
   84CHL1   C14 8638   0.802   0.162   7.536 -0.4064  0.1319  0.4090
   84CHL1   H14 8639   0.904   0.155   7.493 -0.1294 -0.0514  1.0718
   84CHL1   C15 8640   0.790   0.026   7.602  0.2950  0.2760  0.3459
   84CHL1  H15A 8641   0.683  -0.002   7.609  0.5421 -0.6173  0.7454
   84CHL1  H15B 8642   0.837  -0.050   7.537 -3.0069 -1.4122 -0.2502
   84CHL1   C16 8643   0.852   0.048   7.741 -0.4613 -0.3291  0.7575
   84CHL1  H16A 8644   0.773   0.026   7.817 -1.6980 -0.9388 -0.6392
   84CHL1  H16B 8645   0.942  -0.016   7.750 -0.8761 -1.0044  0.2006
   84CHL1   C17 8646   0.899   0.194   7.749  0.4986 -0.4774 -0.0845
   84CHL1   H17 8647   1.003   0.202   7.711  0.3437 -3.2481 -1.2990
   84CHL1   C13 8648   0.811   0.263   7.644 -0.7149  0.6166  0.4467
   84CHL1   C18 8649   0.675   0.291   7.711 -0.5507 -0.0052  0.3830
   84CHL1  H18A 8650   0.675   0.386   7.770  2.1854  1.5471 -1.8899
   84CHL1  H18B 8651   0.589   0.303   7.641 -0.7938  0.7892  0.7999
   84CHL1  H18C 8652   0.640   0.205   7.772 -1.2557 -1.4909 -1.9996
   84CHL1   C12 8653   0.871   0.394   7.582  0.5692 -0.1267  0.1340
   84CHL1  H12A 8654   0.879   0.473   7.659  1.9869  2.1002 -2.1426
   84CHL1  H12B 8655   0.977   0.385   7.550  0.6896  0.3630  0.3814
   84CHL1   C11 8656   0.796   0.428   7.456  0.5901  0.6684 -0.9728
   84CHL1  H11A 8657   0.694   0.447   7.495  0.4269  0.7264 -1.4248
   84CHL1  H11B 8658   0.835   0.517   7.402 -0.9745  1.7140 -0.4535
   84CHL1    C9 8659   0.774   0.317   7.352 -0.0147  1.0290  0.0983
   84CHL1    H9 8660   0.875   0.286   7.318 -1.1974 -2.2381 -0.8924
   84CHL1   C10 8661   0.693   0.356   7.225  0.5810 -0.1135 -0.7516
   84CHL1   C19 8662   0.570   0.444   7.263 -0.0191  0.4551 -0.1924
   84CHL1  H19A 8663   0.509   0.464   7.172 -0.2654 -2.4506 -0.7408
   84CHL1  H19B 8664   0.508   0.387   7.336 -0.0259 -1.3820 -1.5624
   84CHL1  H19C 8665   0.581   0.543   7.313  0.8075  1.4639 -2.2283
   84CHL1    C1 8666   0.801   0.428   7.136  0.2081 -0.0599 -0.3986
   84CHL1   H1A 8667   0.843   0.512   7.195  1.2037  0.4779 -1.7871
   84CHL1   H1B 8668   0.893   0.365   7.127 -0.4164 -1.0354 -0.0996
   84CHL1    C2 8669   0.770   0.466   6.995  0.7438 -0.2256  0.6285
   84CHL1   H2A 8670   0.855   0.507   6.938  0.2782  1.6754  1.2363
   84CHL1   H2B 8671   0.694   0.547   6.989 -0.6796 -1.5940 -1.0334
   84CHL1   C20 8672   0.910   0.243   7.895 -0.1995 -0.1268  0.0897
   84CHL1   H20 8673   0.814   0.224   7.948 -0.5699 -0.3147 -0.6367
   84CHL1   C21 8674   0.938   0.395   7.914  0.6152 -0.3947 -0.5028
   84CHL1  H21A 8675   0.852   0.454   7.874  1.2626  2.4518  1.9649
   84CHL1  H21B 8676   1.041   0.419   7.879  1.1480  0.3238  1.4689
   84CHL1  H21C 8677   0.932   0.427   8.020 -0.6096  0.9846 -0.9553
   84CHL1   C22 8678   1.021   0.170   7.971  0.0642 -0.7516  0.1248
   84CHL1  H22A 8679   1.016   0.061   7.954 -2.0461 -0.8371  1.0348
   84CHL1  H22B 8680   1.115   0.210   7.926 -0.5174  1.8262  0.9711
   84CHL1   C23 8681   1.011   0.189   8.118  0.1415  0.1797  0.4590
   84CHL1  H23A 8682   1.035   0.295   8.143 -1.6962  0.5829  0.6577
   84CHL1  H23B 8683   0.906   0.179   8.153 -0.5611  0.7745 -1.3638
   84CHL1   C24 8684   1.085   0.089   8.206  0.1026 -0.6749  0.1178
   84CHL1  H24A 8685   1.021  -0.001   8.224 -0.0727 -0.3058  1.4757
   84CHL1  H24B 8686   1.181   0.058   8.161  0.1740  1.5255 -1.3991
   84CHL1   C25 8687   1.099   0.146   8.353 -0.3427 -0.2182  0.8140
   84CHL1   H25 8688   1.163   0.236   8.341  0.0446 -0.3182  2.0712
   84CHL1   C26 8689   0.966   0.184   8.423  0.0159  0.0217 -0.1939
   84CHL1  H26A 8690   0.928   0.280   8.382  1.3823  0.6450 -0.0428
   84CHL1  H26B 8691   0.887   0.109   8.401  1.4796 -1.7489  0.3046
   84CHL1  H26C 8692   0.994   0.201   8.529  3.3566  1.8656 -1.2249
   84CHL1   C27 8693   1.173   0.050   8.439  0.5364 -0.0504  0.2662
   84CHL1  H27A 8694   1.115  -0.044   8.447 -0.4522  0.6545  2.2416
   84CHL1  H27B 8695   1.271   0.037   8.389  0.9250  1.7405  0.4984
   84CHL1  H27C 8696   1.195   0.100   8.536  0.2381  1.5645 -0.4630
   85CHL1    C3 8697   2.393   4.378   6.879  0.0576 -0.5939  0.5477
   85CHL1    H3 8698   2.359   4.272   6.871 -0.2146 -0.4867  0.2672
   85CHL1    O3 8699   2.400   4.425   6.751  0.3776 -0.4360  0.7268
   85CHL1   H3' 8700   2.450   4.361   6.699 -0.3651  0.3448 -1.0291
   85CHL1    C4 8701   2.300   4.461   6.967  0.3567 -0.9314  0.1347
   85CHL1   H4A 8702   2.333   4.566   6.962  1.0440 -1.0236  2.1780
   85CHL1   H4B 8703   2.198   4.475   6.924  1.0517  2.5785 -0.6630
   85CHL1    C5 8704   2.284   4.432   7.115 -0.0862  0.4795  0.5146
   85CHL1    C6 8705   2.175   4.391   7.178 -0.2009  0.3104 -0.2173
   85CHL1    H6 8706   2.080   4.381   7.124 -0.8145 -2.2382  1.1228
   85CHL1    C7 8707   2.174   4.351   7.328 -0.2323 -0.3248  0.1989
   85CHL1   H7A 8708   2.085   4.381   7.388  0.7601 -0.0210  1.5664
   85CHL1   H7B 8709   2.163   4.241   7.334  2.7478 -0.8218 -1.5484
   85CHL1    C8 8710   2.297   4.393   7.406 -0.3762 -0.1587 -0.2457
   85CHL1    H8 8711   2.285   4.502   7.424 -1.4283 -0.1193 -1.0570
   85CHL1   C14 8712   2.307   4.312   7.533 -0.4895 -0.0987 -0.6869
   85CHL1   H14 8713   2.311   4.204   7.508  0.3299 -0.7771  2.0578
   85CHL1   C15 8714   2.185   4.322   7.628 -0.1375 -0.4724  0.1958
   85CHL1  H15A 8715   2.150   4.427   7.633  0.3108 -0.2250 -1.2650
   85CHL1  H15B 8716   2.095   4.259   7.609 -0.7427  0.1416  0.9771
   85CHL1   C16 8717   2.235   4.285   7.765 -0.2528  0.0852 -0.3098
   85CHL1  H16A 8718   2.220   4.369   7.836 -3.0958 -1.4011  1.0224
   85CHL1  H16B 8719   2.189   4.199   7.818 -1.3663  0.7917 -0.1058
   85CHL1   C17 8720   2.393   4.258   7.747 -0.7169 -0.1212 -0.3208
   85CHL1   H17 8721   2.393   4.151   7.717 -2.0154 -0.3362  0.3577
   85CHL1   C13 8722   2.430   4.341   7.628 -0.2266  0.3988 -0.0188
   85CHL1   C18 8723   2.421   4.491   7.665 -0.6214 -0.3107  0.1030
   85CHL1  H18A 8724   2.428   4.559   7.578 -1.1108 -1.3502 -0.7603
   85CHL1  H18B 8725   2.336   4.516   7.732  1.1575  1.5989  1.8090
   85CHL1  H18C 8726   2.512   4.512   7.726 -0.9603 -0.4771  0.6747
   85CHL1   C12 8727   2.549   4.299   7.537 -0.0065  0.1467 -0.1036
   85CHL1  H12A 8728   2.649   4.314   7.582  0.6556 -1.3164 -1.0232
   85CHL1  H12B 8729   2.530   4.190   7.525  1.0236  0.0029 -0.4970
   85CHL1   C11 8730   2.551   4.376   7.402 -0.1562  0.7404 -0.2315
   85CHL1  H11A 8731   2.573   4.480   7.433  1.6443  0.4348 -0.4188
   85CHL1  H11B 8732   2.639   4.330   7.352 -0.9601 -0.3404 -0.7070
   85CHL1    C9 8733   2.421   4.364   7.323 -0.1557  1.0096 -0.3634
   85CHL1    H9 8734   2.411   4.255   7.303 -1.8056  0.8445  1.0639
   85CHL1   C10 8735   2.426   4.432   7.185 -0.1178  0.0012 -0.7539
   85CHL1   C19 8736   2.483   4.575   7.198  0.5507 -0.6621  0.9095
   85CHL1  H19A 8737   2.418   4.648   7.252 -0.2982  0.1582 -1.1492
   85CHL1  H19B 8738   2.582   4.579   7.248  0.9788 -2.7285  0.2905
   85CHL1  H19C 8739   2.500   4.619   7.098  0.9395  0.2913  1.3774
   85CHL1    C1 8740   2.526   4.346   7.096  0.4311 -0.3555 -0.1038
   85CHL1   H1A 8741   2.634   4.328   7.118  0.7037 -2.6335 -2.7425
   85CHL1   H1B 8742   2.466   4.253   7.095 -0.5806  0.2546  0.8852
   85CHL1    C2 8743   2.533   4.377   6.943  0.2196 -0.6027  0.3895
   85CHL1   H2A 8744   2.615   4.319   6.896  0.6793 -0.5992  1.1569
   85CHL1   H2B 8745   2.572   4.480   6.929 -0.2340 -0.0557  2.6850
   85CHL1   C20 8746   2.480   4.266   7.874  0.5394  1.2805  0.0589
   85CHL1   H20 8747   2.477   4.371   7.910  0.5504  1.6719 -1.0421
   85CHL1   C21 8748   2.625   4.245   7.847 -0.1298 -1.0157  0.0578
   85CHL1  H21A 8749   2.638   4.142   7.808  0.3460 -1.1163  0.4641
   85CHL1  H21B 8750   2.689   4.256   7.937 -1.2109 -0.6486  0.7931
   85CHL1  H21C 8751   2.669   4.325   7.783 -3.1388  0.3896 -0.4130
   85CHL1   C22 8752   2.427   4.161   7.979  0.7576 -0.6676  0.3922
   85CHL1  H22A 8753   2.319   4.180   7.997  0.5302 -0.6160 -0.9230
   85CHL1  H22B 8754   2.442   4.062   7.931  0.9870  0.6293 -2.4306
   85CHL1   C23 8755   2.494   4.154   8.121 -0.2576  0.1617  0.0446
   85CHL1  H23A 8756   2.437   4.075   8.175 -1.0655  1.0369  0.5097
   85CHL1  H23B 8757   2.604   4.137   8.125 -0.2402 -0.3254 -1.5922
   85CHL1   C24 8758   2.457   4.274   8.212  0.5591  0.0654 -0.1310
   85CHL1  H24A 8759   2.513   4.367   8.190  0.8932 -0.2754 -0.7269
   85CHL1  H24B 8760   2.350   4.298   8.193  0.0440 -2.6744 -1.1993
   85CHL1   C25 8761   2.471   4.238   8.365 -0.0267  0.2015  0.2457
   85CHL1   H25 8762   2.401   4.158   8.396  2.6440 -1.5182  2.1996
   85CHL1   C26 8763   2.612   4.173   8.378 -0.3458  0.7661  0.0659
   85CHL1  H26A 8764   2.613   4.069   8.337  3.4654  0.5052  0.3710
   85CHL1  H26B 8765   2.688   4.212   8.307  1.1331 -3.3317 -0.9353
   85CHL1  H26C 8766   2.648   4.175   8.484  1.7672  0.8043 -0.5917
   85CHL1   C27 8767   2.448   4.350   8.466  0.4769 -0.2043  0.4368
   85CHL1  H27A 8768   2.351   4.403   8.455  1.4416  1.4258 -0.6292
   85CHL1  H27B 8769   2.473   4.316   8.569  1.6074  2.0427  0.9761
   85CHL1  H27C 8770   2.526   4.425   8.442 -0.3588  0.1888 -1.2418
   86CHL1    C3 8771   5.702   1.115   6.989 -0.3574  0.2628 -0.9357
   86CHL1    H3 8772   5.723   1.220   7.019  2.8735 -0.9259  1.5221
   86CHL1    O3 8773   5.722   1.116   6.846  0.3451  0.4702 -0.0374
   86CHL1   H3' 8774   5.655   1.166   6.798  0.5530 -0.7787 -1.7477
   86CHL1    C4 8775   5.818   1.034   7.042 -0.0878  0.6237 -0.2284
   86CHL1   H4A 8776   5.818   0.930   7.001  1.8964  0.6681 -0.4449
   86CHL1   H4B 8777   5.921   1.059   7.011 -0.4295  1.5324 -0.6590
   86CHL1    C5 8778   5.812   1.018   7.196 -0.4176  0.0496  0.4345
   86CHL1    C6 8779   5.914   1.056   7.277 -0.1158  0.1447  0.0540
   86CHL1    H6 8780   6.010   1.082   7.229 -0.3100 -0.6702 -0.7976
   86CHL1    C7 8781   5.913   1.025   7.421  0.0623 -0.5387 -0.0661
   86CHL1   H7A 8782   6.001   0.968   7.455 -1.1884 -1.8280  1.1073
   86CHL1   H7B 8783   5.913   1.123   7.473 -1.8991  0.9816 -2.6655
   86CHL1    C8 8784   5.800   0.940   7.474 -0.4151  1.2602 -0.1202
   86CHL1    H8 8785   5.817   0.832   7.454  1.2575  1.4949 -0.0602
   86CHL1   C14 8786   5.798   0.957   7.624  0.8368 -0.2702  0.0560
   86CHL1   H14 8787   5.779   1.065   7.638 -0.7699 -0.4424 -0.6430
   86CHL1   C15 8788   5.927   0.925   7.701 -0.6659 -0.2461  0.2523
   86CHL1  H15A 8789   5.978   0.830   7.675  1.4916  1.0884 -0.6962
   86CHL1  H15B 8790   5.994   1.013   7.694 -0.8342 -0.1368 -0.0225
   86CHL1   C16 8791   5.868   0.913   7.844  0.3644  0.0997  0.0166
   86CHL1  H16A 8792   5.895   0.822   7.903 -1.2944 -1.5050 -1.5521
   86CHL1  H16B 8793   5.905   1.003   7.896  3.6047 -0.4887 -1.0019
   86CHL1   C17 8794   5.711   0.918   7.836  0.4234 -0.7186 -0.2801
   86CHL1   H17 8795   5.697   1.028   7.837 -0.1318 -0.7731  1.6555
   86CHL1   C13 8796   5.677   0.889   7.693  0.1415  0.0634  0.3763
   86CHL1   C18 8797   5.681   0.734   7.666 -0.9598 -0.2709 -0.3093
   86CHL1  H18A 8798   5.595   0.682   7.712  0.6778 -2.6754  0.2281
   86CHL1  H18B 8799   5.697   0.712   7.558 -2.1910  2.8670 -1.2434
   86CHL1  H18C 8800   5.770   0.683   7.707 -0.0675  1.2532 -0.2517
   86CHL1   C12 8801   5.546   0.946   7.634  0.2087 -0.3112 -0.9628
   86CHL1  H12A 8802   5.457   0.905   7.687  0.0591 -0.5945 -1.4261
   86CHL1  H12B 8803   5.550   1.053   7.664 -0.4833 -0.8658  1.3097
   86CHL1   C11 8804   5.538   0.926   7.486 -0.0759 -0.2254 -0.1953
   86CHL1  H11A 8805   5.518   0.819   7.467 -2.2429 -0.1591  1.4062
   86CHL1  H11B 8806   5.457   0.986   7.439  0.8499  1.5659  0.3735
   86CHL1    C9 8807   5.661   0.978   7.410  0.2698  0.0741  0.0808
   86CHL1    H9 8808   5.654   1.087   7.426  0.0878  0.1997 -0.8355
   86CHL1   C10 8809   5.670   0.967   7.251 -0.1866 -0.2592 -0.8680
   86CHL1   C19 8810   5.650   0.816   7.212  1.0194 -0.5527  0.2641
   86CHL1  H19A 8811   5.649   0.815   7.101 -2.4271 -0.9131  0.1935
   86CHL1  H19B 8812   5.729   0.750   7.254 -0.9446 -2.1691  1.6026
   86CHL1  H19C 8813   5.550   0.780   7.243 -0.2514  1.5886 -1.1008
   86CHL1    C1 8814   5.557   1.051   7.184  0.0561  0.0678 -0.3487
   86CHL1   H1A 8815   5.456   1.009   7.203  0.1617  0.1595  0.4433
   86CHL1   H1B 8816   5.563   1.152   7.230 -2.8056 -1.0044  2.8007
   86CHL1    C2 8817   5.566   1.056   7.031 -0.2074  0.1272 -0.0632
   86CHL1   H2A 8818   5.484   1.117   6.986  1.0984  0.0971 -2.6664
   86CHL1   H2B 8819   5.557   0.953   6.992  0.3155 -0.1396  0.5035
   86CHL1   C20 8820   5.635   0.859   7.948  0.3924  0.2955  0.2837
   86CHL1   H20 8821   5.634   0.749   7.935 -1.6039 -0.0841  2.8147
   86CHL1   C21 8822   5.495   0.907   7.961  0.0649 -0.4707 -0.0094
   86CHL1  H21A 8823   5.480   1.017   7.953  1.1212 -0.0596  2.7507
   86CHL1  H21B 8824   5.453   0.867   8.055  0.9271  0.6066  0.8704
   86CHL1  H21C 8825   5.435   0.861   7.880 -1.5825  0.4160  0.6642
   86CHL1   C22 8826   5.707   0.868   8.086  0.5736  0.0057 -0.2054
   86CHL1  H22A 8827   5.649   0.796   8.148  0.3670  0.4025  0.0710
   86CHL1  H22B 8828   5.814   0.842   8.077  0.5626  0.1245 -0.7479
   86CHL1   C23 8829   5.714   1.011   8.142  0.1154 -0.2920 -0.0892
   86CHL1  H23A 8830   5.753   1.090   8.075  1.3096 -1.3670 -0.7086
   86CHL1  H23B 8831   5.609   1.040   8.163  0.4416  0.1361  0.9875
   86CHL1   C24 8832   5.807   1.017   8.267 -0.3188  0.4480  0.1741
   86CHL1  H24A 8833   5.792   1.119   8.310  2.7894  0.5496  1.3127
   86CHL1  H24B 8834   5.769   0.935   8.332 -0.7943  1.7369  1.5806
   86CHL1   C25 8835   5.959   1.003   8.243 -0.7503  0.6209 -0.8915
   86CHL1   H25 8836   5.978   0.913   8.181  4.3715 -0.3775  1.6082
   86CHL1   C26 8837   6.017   1.115   8.157 -0.4109  0.3892 -1.2469
   86CHL1  H26A 8838   6.124   1.100   8.129  1.0128  2.3199  2.3976
   86CHL1  H26B 8839   5.955   1.138   8.068 -1.5476 -2.9587 -1.4554
   86CHL1  H26C 8840   6.017   1.207   8.219 -2.4077  0.5782 -1.4719
   86CHL1   C27 8841   6.034   0.995   8.375 -0.2061 -0.2451 -0.3700
   86CHL1  H27A 8842   5.999   0.912   8.440  0.0712 -0.1103 -0.0436
   86CHL1  H27B 8843   6.138   0.979   8.338  0.5492  2.8718  0.1218
   86CHL1  H27C 8844   6.022   1.092   8.429  1.6925  0.6553 -1.4568
   87CHL1    C3 8845   4.992   6.714   7.030 -0.1430 -0.1723 -0.6236
   87CHL1    H3 8846   4.957   6.819   7.023 -2.3788 -0.7534  0.9418
   87CHL1    O3 8847   5.008   6.659   6.900  0.2693  0.0753 -0.5295
   87CHL1   H3' 8848   4.994   6.566   6.917 -0.1120 -0.0273 -1.3676
   87CHL1    C4 8849   5.128   6.719   7.097 -0.5469  0.2658 -0.3259
   87CHL1   H4A 8850   5.173   6.617   7.103  0.5219  0.7704  0.7582
   87CHL1   H4B 8851   5.191   6.792   7.043  0.6868 -1.0025 -0.6429
   87CHL1    C5 8852   5.114   6.764   7.239  1.0673  0.0751 -0.9212
   87CHL1    C6 8853   5.168   6.876   7.282  0.1538  0.5268 -0.1770
   87CHL1    H6 8854   5.231   6.932   7.211 -0.1129  0.1673 -0.7090
   87CHL1    C7 8855   5.164   6.935   7.423  0.4711  0.2969  0.2028
   87CHL1   H7A 8856   5.267   6.944   7.463 -0.6713 -0.6396  3.6817
   87CHL1   H7B 8857   5.120   7.038   7.421  0.4960  0.3031 -0.1398
   87CHL1    C8 8858   5.103   6.835   7.520 -0.3066 -0.8389  0.1915
   87CHL1    H8 8859   5.174   6.752   7.539 -0.2053 -0.7067  0.4022
   87CHL1   C14 8860   5.066   6.903   7.649  0.0452  0.6389  0.1466
   87CHL1   H14 8861   4.984   6.974   7.626 -0.9176 -0.0116  1.4143
   87CHL1   C15 8862   5.188   6.974   7.715 -0.2722 -0.7065  0.5921
   87CHL1  H15A 8863   5.286   6.922   7.716 -1.0655 -2.2655  0.5061
   87CHL1  H15B 8864   5.193   7.077   7.673  1.6768 -0.0199  2.3212
   87CHL1   C16 8865   5.142   6.998   7.858  0.3276 -0.3127  0.1376
   87CHL1  H16A 8866   5.226   6.972   7.926  1.6547  3.5091  0.2117
   87CHL1  H16B 8867   5.122   7.107   7.869  0.0139 -0.3031 -0.4777
   87CHL1   C17 8868   5.002   6.918   7.872  0.4424  0.3620  0.1367
   87CHL1   H17 8869   4.927   6.995   7.841  1.2218  0.6686 -1.0170
   87CHL1   C13 8870   5.003   6.817   7.761 -1.0115  0.1008 -0.3286
   87CHL1   C18 8871   5.111   6.716   7.806 -0.3232  0.4691 -0.2133
   87CHL1  H18A 8872   5.199   6.755   7.862 -2.1835 -0.0856  3.3630
   87CHL1  H18B 8873   5.069   6.657   7.890 -1.7385 -1.6557 -2.2791
   87CHL1  H18C 8874   5.141   6.647   7.724  0.7220  0.2637  0.3183
   87CHL1   C12 8875   4.879   6.746   7.708 -0.2738  0.4130 -0.6472
   87CHL1  H12A 8876   4.828   6.667   7.768 -0.5199  0.4384 -0.8173
   87CHL1  H12B 8877   4.810   6.832   7.696  0.4306  1.1944  0.7659
   87CHL1   C11 8878   4.899   6.682   7.571 -0.2834 -0.6899 -0.1232
   87CHL1  H11A 8879   4.955   6.591   7.601  0.0126  0.0643  1.7710
   87CHL1  H11B 8880   4.804   6.651   7.522 -0.0623 -0.9892 -0.3663
   87CHL1    C9 8881   4.980   6.764   7.466 -0.0145  0.1820 -0.8165
   87CHL1    H9 8882   4.909   6.846   7.443  0.1512  0.3106 -0.8697
   87CHL1   C10 8883   5.010   6.688   7.332 -0.9632  0.7402 -0.0905
   87CHL1   C19 8884   5.045   6.537   7.361 -0.3380 -0.0651  0.0406
   87CHL1  H19A 8885   5.073   6.493   7.263 -1.2648 -0.7843  0.0859
   87CHL1  H19B 8886   5.131   6.524   7.430  0.0554 -0.8375 -0.5729
   87CHL1  H19C 8887   4.952   6.488   7.397  0.2765 -1.2610  0.0518
   87CHL1    C1 8888   4.882   6.689   7.248 -0.2616 -0.0906  0.2134
   87CHL1   H1A 8889   4.807   6.635   7.310 -0.4543  0.2773  0.3005
   87CHL1   H1B 8890   4.854   6.796   7.241  2.1618  0.5859 -0.0379
   87CHL1    C2 8891   4.891   6.637   7.107  1.0288  0.4206 -0.2048
   87CHL1   H2A 8892   4.795   6.639   7.051  1.0588 -0.5579 -0.2971
   87CHL1   H2B 8893   4.922   6.531   7.112  1.7502  0.4859 -2.2634
   87CHL1   C20 8894   4.970   6.881   8.019  0.3663 -0.0785  0.1180
   87CHL1   H20 8895   5.027   6.792   8.055 -0.6459  0.2106  2.6416
   87CHL1   C21 8896   4.821   6.833   8.026 -0.2878 -0.5122  0.5233
   87CHL1  H21A 8897   4.809   6.759   8.108  1.4269 -1.4322 -0.0132
   87CHL1  H21B 8898   4.786   6.773   7.940 -2.8413  0.0525  1.0923
   87CHL1  H21C 8899   4.749   6.917   8.036  1.3578  0.9266  0.7751
   87CHL1   C22 8900   5.007   6.992   8.122 -0.0303 -0.3827 -0.2147
   87CHL1  H22A 8901   5.110   7.031   8.111 -0.2656  0.6120  0.8032
   87CHL1  H22B 8902   4.945   7.079   8.091  1.3785  0.0850 -1.9037
   87CHL1   C23 8903   4.970   6.960   8.273 -0.6313  0.4708 -0.2106
   87CHL1  H23A 8904   4.861   6.949   8.258 -0.2537 -0.6244 -2.5749
   87CHL1  H23B 8905   5.027   6.869   8.299 -1.7042 -0.3014 -0.5157
   87CHL1   C24 8906   4.988   7.078   8.375 -0.4885  0.1988 -0.2166
   87CHL1  H24A 8907   5.090   7.122   8.370 -0.1342 -0.5632  0.1925
   87CHL1  H24B 8908   4.921   7.160   8.342 -2.2086 -1.6464 -1.4979
   87CHL1   C25 8909   4.956   7.032   8.519  0.7378  0.5148 -0.5986
   87CHL1   H25 8910   4.857   6.984   8.504  1.1755  0.1333 -2.6171
   87CHL1   C26 8911   5.048   6.925   8.573  0.6747  0.4438 -0.3636
   87CHL1  H26A 8912   5.051   6.836   8.506  1.4919 -1.4418  2.0262
   87CHL1  H26B 8913   5.153   6.960   8.577  0.5737  0.6496  1.2762
   87CHL1  H26C 8914   5.005   6.898   8.672 -0.8470  0.7519 -0.9035
   87CHL1   C27 8915   4.943   7.147   8.620  0.4968 -0.5469  0.1793
   87CHL1  H27A 8916   4.866   7.214   8.576  1.2912  0.4457  0.2487
   87CHL1  H27B 8917   4.906   7.119   8.721 -1.3213  2.8749  0.6287
   87CHL1  H27C 8918   5.037   7.202   8.645 -0.2145  1.7174 -1.7990
   88CHL1    C3 8919   1.667   6.719   7.054  0.0642  0.8948  0.3649
   88CHL1    H3 8920   1.610   6.624   7.058 -2.2135  2.1846  0.2076
   88CHL1    O3 8921   1.637   6.768   6.924 -0.0544 -0.0444 -0.0375
   88CHL1   H3' 8922   1.649   6.863   6.931  0.8321 -0.1414 -0.0622
   88CHL1    C4 8923   1.620   6.825   7.155  0.2338  0.4336 -0.0872
   88CHL1   H4A 8924   1.651   6.925   7.119  1.8749 -0.5863 -1.6369
   88CHL1   H4B 8925   1.509   6.827   7.159  0.1739  0.2902 -1.4524
   88CHL1    C5 8926   1.666   6.811   7.302 -0.0589 -0.0114  0.0382
   88CHL1    C6 8927   1.577   6.821   7.404 -0.2062  0.5181 -0.2107
   88CHL1    H6 8928   1.476   6.861   7.383  0.1437  1.1744 -0.6977
   88CHL1    C7 8929   1.615   6.802   7.547 -0.2488  0.3327  0.0584
   88CHL1   H7A 8930   1.567   6.873   7.618  0.5395 -0.9335  1.9237
   88CHL1   H7B 8931   1.560   6.713   7.583 -2.7454  0.8794 -2.1012
   88CHL1    C8 8932   1.765   6.799   7.571 -0.1230 -0.0893 -0.0315
   88CHL1    H8 8933   1.805   6.902   7.565  1.7555 -0.7763  0.0649
   88CHL1   C14 8934   1.801   6.736   7.710 -0.1688 -0.4305 -0.3883
   88CHL1   H14 8935   1.752   6.636   7.709 -2.5182  0.4842  3.2509
   88CHL1   C15 8936   1.726   6.784   7.831 -0.6717 -0.1354 -0.1494
   88CHL1  H15A 8937   1.714   6.894   7.837  2.0088  0.1805  1.0691
   88CHL1  H15B 8938   1.627   6.736   7.843 -1.5347  1.5532 -0.2733
   88CHL1   C16 8939   1.814   6.729   7.950 -0.0297  0.2715 -0.2334
   88CHL1  H16A 8940   1.827   6.807   8.029 -0.2521 -2.3920  2.6048
   88CHL1  H16B 8941   1.752   6.657   8.007 -2.0153  0.5819 -1.8950
   88CHL1   C17 8942   1.950   6.665   7.900  0.4875 -0.4533 -0.4262
   88CHL1   H17 8943   1.932   6.556   7.886  1.6583 -0.5335 -1.4687
   88CHL1   C13 8944   1.951   6.725   7.753  0.2175  0.6247  0.7671
   88CHL1   C18 8945   2.015   6.861   7.756 -0.8514 -0.0200  1.0296
   88CHL1  H18A 8946   2.000   6.912   7.659  2.5780 -2.2684 -0.9196
   88CHL1  H18B 8947   1.980   6.919   7.844  0.4707 -2.4802  3.3574
   88CHL1  H18C 8948   2.126   6.854   7.761 -0.5213  1.8552 -1.8742
   88CHL1   C12 8949   2.007   6.630   7.651 -0.0922  0.3737 -0.2662
   88CHL1  H12A 8950   2.112   6.601   7.673 -1.4017 -2.7747  2.5574
   88CHL1  H12B 8951   1.952   6.534   7.657 -0.4064  0.6506  2.1955
   88CHL1   C11 8952   1.989   6.683   7.504 -0.0263  0.5578 -0.7183
   88CHL1  H11A 8953   2.051   6.774   7.487 -0.4080  0.6741 -1.5832
   88CHL1  H11B 8954   2.026   6.614   7.425 -0.4112  1.7838 -2.0153
   88CHL1    C9 8955   1.838   6.714   7.465 -0.3031  0.6863 -0.5681
   88CHL1    H9 8956   1.786   6.616   7.476  1.8009 -0.4865 -0.7140
   88CHL1   C10 8957   1.813   6.755   7.321 -0.2662 -0.3099 -0.9567
   88CHL1   C19 8958   1.913   6.874   7.300  0.1693 -0.2555  0.3984
   88CHL1  H19A 8959   1.942   6.934   7.389  1.0305  3.5543 -2.1771
   88CHL1  H19B 8960   2.006   6.837   7.252  1.2856 -1.2015  3.1090
   88CHL1  H19C 8961   1.863   6.953   7.239 -0.6723  0.4729  1.9566
   88CHL1    C1 8962   1.845   6.644   7.217 -0.6126 -0.5668 -0.1739
   88CHL1   H1A 8963   1.946   6.599   7.223  1.5515  3.8596  0.9044
   88CHL1   H1B 8964   1.777   6.565   7.256 -0.0574 -1.7830 -1.6089
   88CHL1    C2 8965   1.813   6.682   7.071  0.1610 -0.4944  0.1905
   88CHL1   H2A 8966   1.850   6.602   7.003 -0.1507  0.4543 -1.1515
   88CHL1   H2B 8967   1.872   6.770   7.035  0.6038 -1.6570 -2.1063
   88CHL1   C20 8968   2.068   6.681   7.996 -0.2066  0.1992 -0.0249
   88CHL1   H20 8969   2.110   6.784   7.993 -0.8242  0.5413  1.5871
   88CHL1   C21 8970   2.177   6.580   7.959 -0.4417  0.3464 -0.5733
   88CHL1  H21A 8971   2.200   6.582   7.851 -0.8745  0.5053 -0.6603
   88CHL1  H21B 8972   2.175   6.476   7.998  2.5347  0.2503 -0.4578
   88CHL1  H21C 8973   2.274   6.616   7.999 -1.0648  2.1066 -0.5851
   88CHL1   C22 8974   2.031   6.663   8.141 -0.0990 -0.3646  0.0878
   88CHL1  H22A 8975   1.946   6.734   8.151  0.6981  0.6551 -0.3226
   88CHL1  H22B 8976   1.995   6.561   8.168 -1.6818 -0.5826 -2.4914
   88CHL1   C23 8977   2.146   6.694   8.240 -0.7804  0.1993 -0.3106
   88CHL1  H23A 8978   2.187   6.591   8.242 -3.5347 -0.9929 -0.6322
   88CHL1  H23B 8979   2.212   6.773   8.198  0.2510 -0.6483 -0.3144
   88CHL1   C24 8980   2.090   6.753   8.365 -0.5864 -0.5962 -0.0120
   88CHL1  H24A 8981   2.047   6.853   8.342  0.2250 -0.6194 -1.8511
   88CHL1  H24B 8982   2.014   6.693   8.421 -0.5630  2.0479  3.1250
   88CHL1   C25 8983   2.202   6.783   8.467  0.7184 -0.3589 -0.4320
   88CHL1   H25 8984   2.274   6.851   8.416  0.2344  1.1344  0.8181
   88CHL1   C26 8985   2.136   6.850   8.587 -0.0902  0.1441  0.0863
   88CHL1  H26A 8986   2.060   6.785   8.636  1.8149 -0.2291  2.7874
   88CHL1  H26B 8987   2.217   6.865   8.661  0.1560 -0.2017 -0.1088
   88CHL1  H26C 8988   2.098   6.952   8.567 -0.5769 -0.0763 -0.1275
   88CHL1   C27 8989   2.268   6.652   8.509 -0.8375 -0.1631 -0.0078
   88CHL1  H27A 8990   2.303   6.599   8.418  1.6367  1.3365 -0.0313
   88CHL1  H27B 8991   2.348   6.678   8.581 -4.0419  2.6741  2.8760
   88CHL1  H27C 8992   2.200   6.591   8.572 -0.7265  0.1162  0.3822
   89CHL1    C3 8993   5.242   6.277   7.140 -0.1232 -0.2499 -0.2388
   89CHL1    H3 8994   5.206   6.370   7.189 -0.6816  0.4729 -1.9104
   89CHL1    O3 8995   5.226   6.308   7.001  0.4337 -0.3803  0.3201
   89CHL1   H3' 8996   5.296   6.255   6.961  2.6452  1.7038  1.2025
   89CHL1    C4 8997   5.383   6.227   7.169  0.1196  0.0375 -1.0101
   89CHL1   H4A 8998   5.414   6.138   7.111 -1.8272 -0.9753 -0.5808
   89CHL1   H4B 8999   5.456   6.301   7.131 -0.1845  0.0204 -1.6389
   89CHL1    C5 9000   5.398   6.203   7.319  0.3084 -0.0029 -0.1580
   89CHL1    C6 9001   5.499   6.260   7.390 -0.5840  0.6817  0.5196
   89CHL1    H6 9002   5.551   6.339   7.334 -3.2515  1.1085 -1.6308
   89CHL1    C7 9003   5.526   6.226   7.534 -0.9144  0.1778  0.6044
   89CHL1   H7A 9004   5.634   6.207   7.552 -0.8364 -0.0592 -0.0854
   89CHL1   H7B 9005   5.497   6.306   7.606 -1.7805 -0.6976  1.2431
   89CHL1    C8 9006   5.455   6.100   7.575  0.5519  0.6025  0.2840
   89CHL1    H8 9007   5.497   6.007   7.531 -1.0244 -0.2042  0.4068
   89CHL1   C14 9008   5.466   6.093   7.725  0.4202 -0.3421 -0.2105
   89CHL1   H14 9009   5.402   6.173   7.768  1.9931 -0.5447  2.7589
   89CHL1   C15 9010   5.604   6.099   7.792  0.4064  0.6211  0.2063
   89CHL1  H15A 9011   5.678   6.040   7.734  0.9951  1.8551 -0.3427
   89CHL1  H15B 9012   5.641   6.204   7.797  0.1969  0.6415  1.9978
   89CHL1   C16 9013   5.586   6.048   7.931  0.9987  0.3291 -0.5775
   89CHL1  H16A 9014   5.658   5.966   7.950  0.6379 -0.0237 -0.7143
   89CHL1  H16B 9015   5.598   6.132   8.002  0.2715 -0.7553  0.8936
   89CHL1   C17 9016   5.435   5.994   7.937 -0.3667 -0.1572 -0.4647
   89CHL1   H17 9017   5.368   6.077   7.969 -0.1430 -0.1877  0.1049
   89CHL1   C13 9018   5.393   5.974   7.788 -0.4601 -0.0631 -0.0189
   89CHL1   C18 9019   5.448   5.833   7.739 -0.4065 -0.5067  0.1141
   89CHL1  H18A 9020   5.431   5.827   7.630 -0.4966  1.6249 -0.0299
   89CHL1  H18B 9021   5.558   5.837   7.755 -0.3693 -0.5381 -0.1450
   89CHL1  H18C 9022   5.400   5.743   7.782 -0.0497 -0.6036  0.3152
   89CHL1   C12 9023   5.240   5.984   7.754  0.4228  0.0336  0.1138
   89CHL1  H12A 9024   5.181   5.899   7.794 -2.5339  2.5700  1.6281
   89CHL1  H12B 9025   5.201   6.077   7.800  1.3399  0.3824  0.1948
   89CHL1   C11 9026   5.219   5.997   7.606  0.0497 -0.1638 -0.0514
   89CHL1  H11A 9027   5.238   5.893   7.572 -0.2024 -0.7208  1.4712
   89CHL1  H11B 9028   5.115   6.033   7.588  0.9648  1.3417 -3.0189
   89CHL1    C9 9029   5.305   6.101   7.526 -0.3341 -0.2904 -0.1427
   89CHL1    H9 9030   5.272   6.200   7.565  1.2872  0.2905 -0.1679
   89CHL1   C10 9031   5.300   6.102   7.375  0.3469  0.0278 -0.3144
   89CHL1   C19 9032   5.348   5.965   7.316 -0.1810  0.1947  0.1738
   89CHL1  H19A 9033   5.457   5.957   7.335 -0.7231  1.1426  5.0830
   89CHL1  H19B 9034   5.298   5.880   7.367  1.3824 -0.5938  0.4453
   89CHL1  H19C 9035   5.330   5.960   7.207  0.4700 -0.2601  0.0850
   89CHL1    C1 9036   5.161   6.141   7.327 -0.2958  0.2907 -0.0707
   89CHL1   H1A 9037   5.092   6.058   7.354 -0.7879  0.9889  0.8551
   89CHL1   H1B 9038   5.123   6.230   7.382 -2.6735 -1.8952  2.1235
   89CHL1    C2 9039   5.142   6.175   7.178  0.4832  0.1616  0.2450
   89CHL1   H2A 9040   5.041   6.217   7.159  1.2434  1.0663 -2.1767
   89CHL1   H2B 9041   5.151   6.092   7.104  0.1656 -0.8325  1.2843
   89CHL1   C20 9042   5.418   5.880   8.040 -0.0466  0.4712  0.7618
   89CHL1   H20 9043   5.465   5.788   8.000 -0.0120  0.8366 -0.0511
   89CHL1   C21 9044   5.267   5.839   8.060  0.1903 -0.1522 -0.2885
   89CHL1  H21A 9045   5.214   5.936   8.071 -0.0417  0.0758 -2.8269
   89CHL1  H21B 9046   5.267   5.773   8.150  0.8740  0.8573  0.4770
   89CHL1  H21C 9047   5.225   5.784   7.974  0.7224  0.9574 -1.2766
   89CHL1   C22 9048   5.478   5.911   8.181 -0.1678  0.3177  0.0266
   89CHL1  H22A 9049   5.565   5.977   8.167 -1.1710  1.1608 -2.9789
   89CHL1  H22B 9050   5.400   5.962   8.242 -0.7325  0.1283 -0.5196
   89CHL1   C23 9051   5.516   5.777   8.261 -0.1949 -0.0534 -0.0214
   89CHL1  H23A 9052   5.444   5.692   8.258 -1.4132  0.9822 -1.5551
   89CHL1  H23B 9053   5.594   5.734   8.194 -0.3979 -0.4088 -0.0343
   89CHL1   C24 9054   5.571   5.806   8.402 -0.5032 -0.6787  0.5666
   89CHL1  H24A 9055   5.681   5.820   8.392 -0.7857  1.4746  0.0218
   89CHL1  H24B 9056   5.526   5.901   8.437  0.7234  0.6301 -1.2181
   89CHL1   C25 9057   5.542   5.693   8.504  0.2163  0.1890 -0.3075
   89CHL1   H25 9058   5.564   5.592   8.462 -1.6668 -0.7331  0.8073
   89CHL1   C26 9059   5.639   5.692   8.623  0.0961  0.3910 -0.2657
   89CHL1  H26A 9060   5.742   5.684   8.582  0.2529  1.0012  0.0018
   89CHL1  H26B 9061   5.634   5.780   8.690 -0.6105  0.2774 -0.1613
   89CHL1  H26C 9062   5.625   5.599   8.684 -0.7706 -0.0960 -1.1771
   89CHL1   C27 9063   5.395   5.694   8.560  0.3415 -0.9128 -0.0701
   89CHL1  H27A 9064   5.326   5.712   8.475  0.0347  2.1255  0.7083
   89CHL1  H27B 9065   5.369   5.600   8.613  0.2077 -1.2819 -0.7880
   89CHL1  H27C 9066   5.386   5.784   8.624 -1.0435 -1.2203  0.1921
   90CHL1    C3 9067   6.339   2.243   6.775 -0.6297 -0.1147 -0.0164
   90CHL1    H3 9068   6.325   2.136   6.799 -1.1006 -0.1011 -0.2197
   90CHL1    O3 9069   6.310   2.247   6.638 -0.2373 -0.4527  0.9712
   90CHL1   H3' 9070   6.215   2.247   6.639 -0.2738 -2.1915  0.9378
   90CHL1    C4 9071   6.241   2.327   6.860 -0.3436 -0.2906 -0.1875
   90CHL1   H4A 9072   6.230   2.427   6.814 -1.2165 -1.6085 -3.0658
   90CHL1   H4B 9073   6.137   2.291   6.849 -0.3268 -0.2705 -0.4205
   90CHL1    C5 9074   6.288   2.330   7.006  0.3575 -0.3181 -0.4238
   90CHL1    C6 9075   6.191   2.302   7.096 -0.5864  0.0360  0.6518
   90CHL1    H6 9076   6.093   2.279   7.052  0.8059 -0.9773 -2.1712
   90CHL1    C7 9077   6.224   2.291   7.242  0.0989 -0.4176 -0.1659
   90CHL1   H7A 9078   6.144   2.339   7.304 -0.1869 -0.9716 -0.1043
   90CHL1   H7B 9079   6.217   2.184   7.269 -0.5655 -0.2926  0.1841
   90CHL1    C8 9080   6.363   2.364   7.278 -0.2774 -0.0420 -0.7201
   90CHL1    H8 9081   6.343   2.473   7.271 -0.0569  0.1015  0.5646
   90CHL1   C14 9082   6.405   2.327   7.416 -0.5354  0.1343 -0.3869
   90CHL1   H14 9083   6.440   2.222   7.417  2.1192  0.9506 -0.5335
   90CHL1   C15 9084   6.298   2.348   7.521  0.2806  0.3015  0.6690
   90CHL1  H15A 9085   6.240   2.442   7.506 -0.9662 -0.6806 -1.0401
   90CHL1  H15B 9086   6.230   2.262   7.533 -1.8831  1.9433  0.7208
   90CHL1   C16 9087   6.373   2.352   7.649  0.1388  0.2968 -1.1448
   90CHL1  H16A 9088   6.360   2.453   7.692 -3.4227 -0.6589  0.3437
   90CHL1  H16B 9089   6.343   2.266   7.713  2.1962 -0.6037 -1.3029
   90CHL1   C17 9090   6.525   2.355   7.616 -0.0456 -0.0946 -0.0203
   90CHL1   H17 9091   6.554   2.248   7.610  1.8930  0.4791 -2.0666
   90CHL1   C13 9092   6.529   2.400   7.468  0.7509 -0.4099 -0.5391
   90CHL1   C18 9093   6.508   2.554   7.464  0.1302  0.0271  0.3087
   90CHL1  H18A 9094   6.508   2.592   7.360 -0.7632  1.8507  0.9220
   90CHL1  H18B 9095   6.409   2.586   7.505  0.0851  0.7095 -0.3086
   90CHL1  H18C 9096   6.587   2.614   7.513 -0.3029  0.4632  0.4805
   90CHL1   C12 9097   6.646   2.349   7.377 -0.5445  1.0172 -0.5791
   90CHL1  H12A 9098   6.746   2.393   7.401 -0.1572  0.1017 -0.4743
   90CHL1  H12B 9099   6.653   2.240   7.397  0.1148  0.8273 -1.7505
   90CHL1   C11 9100   6.609   2.379   7.230 -0.1679  0.4625  0.5945
   90CHL1  H11A 9101   6.623   2.487   7.208  0.7342  0.6054  1.7691
   90CHL1  H11B 9102   6.682   2.314   7.177 -0.4423  0.8909 -0.3432
   90CHL1    C9 9103   6.472   2.328   7.180 -0.7895 -1.1528  0.2426
   90CHL1    H9 9104   6.477   2.217   7.189 -0.2947 -1.0665  1.2248
   90CHL1   C10 9105   6.437   2.369   7.033 -0.3870  0.5665  0.4750
   90CHL1   C19 9106   6.457   2.513   7.009 -0.0440  0.2195  0.0036
   90CHL1  H19A 9107   6.400   2.555   6.923 -0.6797  0.3740  0.4890
   90CHL1  H19B 9108   6.426   2.573   7.098  1.0909  1.4160 -0.3765
   90CHL1  H19C 9109   6.564   2.532   6.990 -0.1072 -1.5488 -2.5535
   90CHL1    C1 9110   6.529   2.296   6.937  0.1165 -0.4160 -0.1590
   90CHL1   H1A 9111   6.636   2.328   6.942 -0.2721  1.2959 -1.8291
   90CHL1   H1B 9112   6.525   2.188   6.965  1.8571 -0.8147 -1.2885
   90CHL1    C2 9113   6.480   2.300   6.792 -0.3417 -0.2502 -1.0577
   90CHL1   H2A 9114   6.548   2.259   6.715  0.5781  0.5275 -0.6705
   90CHL1   H2B 9115   6.479   2.408   6.769 -0.3988  0.3959  1.6112
   90CHL1   C20 9116   6.603   2.425   7.725  0.5033  0.2832  0.1307
   90CHL1   H20 9117   6.597   2.536   7.734 -2.0173  0.0984  1.8826
   90CHL1   C21 9118   6.752   2.390   7.705 -0.4381  0.4135 -0.2677
   90CHL1  H21A 9119   6.788   2.447   7.616  1.2242  1.6400  1.1262
   90CHL1  H21B 9120   6.760   2.281   7.687 -1.3593  0.5009 -1.3213
   90CHL1  H21C 9121   6.816   2.416   7.792 -1.2393  3.8224 -0.5267
   90CHL1   C22 9122   6.552   2.374   7.870 -1.1353 -0.4220  0.2140
   90CHL1  H22A 9123   6.442   2.390   7.880 -1.3148 -0.6526 -1.2123
   90CHL1  H22B 9124   6.564   2.264   7.881  0.1935 -0.3395 -0.2534
   90CHL1   C23 9125   6.619   2.458   7.979  0.6827 -0.0629 -0.3625
   90CHL1  H23A 9126   6.729   2.442   7.977  0.2772 -3.5479 -0.7353
   90CHL1  H23B 9127   6.597   2.565   7.956  0.0831 -0.2883 -0.8730
   90CHL1   C24 9128   6.559   2.416   8.110 -0.9314 -0.0589 -1.0134
   90CHL1  H24A 9129   6.453   2.449   8.117 -0.7868  0.2418 -0.1830
   90CHL1  H24B 9130   6.553   2.305   8.121  0.6375 -0.0292  0.6103
   90CHL1   C25 9131   6.621   2.476   8.235  0.1129  0.7639 -0.2037
   90CHL1   H25 9132   6.731   2.463   8.221  0.1802 -1.5218  1.7851
   90CHL1   C26 9133   6.595   2.625   8.251 -0.2517 -0.3333  0.1623
   90CHL1  H26A 9134   6.490   2.641   8.285 -0.1436  0.4674  0.1341
   90CHL1  H26B 9135   6.663   2.668   8.326  3.3179 -0.0186 -2.9631
   90CHL1  H26C 9136   6.613   2.680   8.156 -0.9906 -0.5192 -0.0980
   90CHL1   C27 9137   6.595   2.392   8.357 -0.4157  0.3084 -0.8154
   90CHL1  H27A 9138   6.487   2.389   8.382 -0.1185  1.1645  0.6816
   90CHL1  H27B 9139   6.610   2.285   8.333 -0.4451  0.1537 -0.1451
   90CHL1  H27C 9140   6.658   2.432   8.439  0.7288 -0.9067 -1.0729
   91CHL1    C3 9141   6.455   3.931   6.909 -0.6835 -0.7110 -0.3983
   91CHL1    H3 9142   6.421   4.036   6.909  0.5900 -0.2789 -0.5747
   91CHL1    O3 9143   6.473   3.894   6.773 -0.0326  0.0692  0.1958
   91CHL1   H3' 9144   6.490   3.801   6.763 -1.5806 -0.2670  0.4457
   91CHL1    C4 9145   6.591   3.920   6.986  0.5458  0.3923 -0.2336
   91CHL1   H4A 9146   6.649   3.826   6.975  0.7836  0.6660 -1.3960
   91CHL1   H4B 9147   6.648   4.002   6.937 -0.9541  1.0882 -0.8774
   91CHL1    C5 9148   6.563   3.941   7.135 -0.2518  0.0106 -0.2320
   91CHL1    C6 9149   6.626   4.036   7.202 -0.2897  0.0597 -0.1604
   91CHL1    H6 9150   6.704   4.092   7.150  0.4794 -0.3109  0.5769
   91CHL1    C7 9151   6.615   4.065   7.350  0.2166 -0.2007  0.3175
   91CHL1   H7A 9152   6.717   4.074   7.394 -0.1144  3.3522  0.6408
   91CHL1   H7B 9153   6.569   4.165   7.367  0.7107 -0.3339  2.8989
   91CHL1    C8 9154   6.529   3.957   7.425  0.3420 -0.0793 -0.1017
   91CHL1    H8 9155   6.590   3.866   7.444  0.9200  0.6060  1.4871
   91CHL1   C14 9156   6.486   4.014   7.559 -0.4225 -0.2812  0.4986
   91CHL1   H14 9157   6.438   4.111   7.534  3.2024  2.0316  1.7264
   91CHL1   C15 9158   6.592   4.075   7.658  0.3596 -0.1594 -0.3427
   91CHL1  H15A 9159   6.686   4.016   7.664 -0.0200 -1.0027 -2.0302
   91CHL1  H15B 9160   6.612   4.184   7.646  0.0430 -0.0686 -0.0387
   91CHL1   C16 9161   6.510   4.059   7.793 -1.0188  0.4285  0.8771
   91CHL1  H16A 9162   6.547   3.985   7.867  0.2756  0.1694 -0.0011
   91CHL1  H16B 9163   6.528   4.153   7.850 -1.3363  2.5325 -2.2331
   91CHL1   C17 9164   6.361   4.018   7.759  0.5142 -0.2403 -0.0039
   91CHL1   H17 9165   6.313   4.111   7.722  0.7634 -0.4235 -0.8123
   91CHL1   C13 9166   6.385   3.931   7.639 -0.1144  0.4932 -0.2046
   91CHL1   C18 9167   6.453   3.801   7.678  0.0681 -1.0539 -0.3267
   91CHL1  H18A 9168   6.555   3.803   7.723  0.1778 -0.8400 -0.5824
   91CHL1  H18B 9169   6.389   3.736   7.741 -0.9819  1.3413  1.2215
   91CHL1  H18C 9170   6.476   3.745   7.585  0.2497  0.9515 -1.5504
   91CHL1   C12 9171   6.258   3.903   7.552 -0.5203 -0.1417 -0.0047
   91CHL1  H12A 9172   6.194   3.827   7.600  0.3527 -0.3725  0.8383
   91CHL1  H12B 9173   6.196   3.994   7.537  1.8854  1.2147 -3.1029
   91CHL1   C11 9174   6.297   3.840   7.420 -0.1251 -0.1891 -0.1910
   91CHL1  H11A 9175   6.335   3.735   7.427 -0.2131 -0.4189 -2.6242
   91CHL1  H11B 9176   6.203   3.846   7.362 -0.0192  0.9177 -0.2715
   91CHL1    C9 9177   6.408   3.924   7.345 -0.0904 -0.0642 -0.1632
   91CHL1    H9 9178   6.360   4.019   7.311  1.4644 -0.0338 -2.5657
   91CHL1   C10 9179   6.439   3.866   7.200  0.0791  0.0808 -0.2857
   91CHL1   C19 9180   6.466   3.714   7.212 -0.0711  0.2706 -0.1343
   91CHL1  H19A 9181   6.533   3.696   7.299  0.0230 -1.3783 -0.5165
   91CHL1  H19B 9182   6.378   3.649   7.236 -0.9730  0.8004 -1.8829
   91CHL1  H19C 9183   6.507   3.668   7.120  1.1411  0.4540  0.2952
   91CHL1    C1 9184   6.317   3.882   7.113 -0.5073 -0.3444  0.2368
   91CHL1   H1A 9185   6.243   3.810   7.154  0.6968 -1.1696  1.0322
   91CHL1   H1B 9186   6.279   3.985   7.125  0.8564  0.1943  0.1198
   91CHL1    C2 9187   6.348   3.849   6.966 -0.2499  0.0427 -0.1585
   91CHL1   H2A 9188   6.255   3.869   6.909  1.0165  0.1582 -2.2768
   91CHL1   H2B 9189   6.375   3.743   6.948 -0.2971 -0.2240  1.1979
   91CHL1   C20 9190   6.286   3.954   7.880 -0.7429  0.0204 -0.3002
   91CHL1   H20 9191   6.314   3.848   7.899 -2.0486 -0.1109  1.0675
   91CHL1   C21 9192   6.133   3.958   7.852  0.5660 -0.2052  0.4121
   91CHL1  H21A 9193   6.099   4.057   7.815 -2.7539 -1.2826  0.2128
   91CHL1  H21B 9194   6.068   3.936   7.939 -1.7367  0.7585 -0.9738
   91CHL1  H21C 9195   6.110   3.882   7.774  0.7001 -0.4049  0.5675
   91CHL1   C22 9196   6.312   4.037   8.007  0.2074 -0.0664  0.0416
   91CHL1  H22A 9197   6.247   3.987   8.081 -0.0131 -1.7444 -1.2194
   91CHL1  H22B 9198   6.416   4.025   8.045  0.0136  0.4197  0.7429
   91CHL1   C23 9199   6.285   4.185   8.003 -0.0812 -0.7331 -0.1185
   91CHL1  H23A 9200   6.337   4.229   7.915 -0.8733  2.4939  0.8779
   91CHL1  H23B 9201   6.176   4.201   7.990 -0.1082  0.1747  1.0722
   91CHL1   C24 9202   6.346   4.252   8.125 -0.4477 -0.8727 -0.0341
   91CHL1  H24A 9203   6.292   4.215   8.214 -0.9416  0.3999  0.2210
   91CHL1  H24B 9204   6.454   4.229   8.141 -0.3969 -0.1390  0.8033
   91CHL1   C25 9205   6.335   4.409   8.135  0.5466 -0.1149  0.1703
   91CHL1   H25 9206   6.237   4.446   8.097  1.9857  1.9738 -1.7982
   91CHL1   C26 9207   6.345   4.460   8.276  0.2944 -0.0357 -0.1953
   91CHL1  H26A 9208   6.439   4.421   8.321 -1.0009 -0.8964  1.8921
   91CHL1  H26B 9209   6.348   4.571   8.275 -2.0376  0.0945 -2.0101
   91CHL1  H26C 9210   6.260   4.434   8.342  0.2409  2.2620  0.7232
   91CHL1   C27 9211   6.447   4.482   8.041  0.0269 -0.2772 -0.5310
   91CHL1  H27A 9212   6.541   4.444   8.086  0.0183  0.1271 -0.1680
   91CHL1  H27B 9213   6.447   4.456   7.933  2.5455 -0.1967 -0.6120
   91CHL1  H27C 9214   6.434   4.592   8.054  1.1644 -0.4269  2.8311
   92CHL1    C3 9215   0.680   6.418   6.800 -0.2513 -0.0034  0.9787
   92CHL1    H3 9216   0.788   6.417   6.773 -0.2447 -2.7131  0.8583
   92CHL1    O3 9217   0.613   6.425   6.675  0.3358  0.5667  0.1780
   92CHL1   H3' 9218   0.518   6.417   6.687  0.4361 -2.3686 -0.0694
   92CHL1    C4 9219   0.642   6.290   6.869  0.4525 -0.4520  0.6252
   92CHL1   H4A 9220   0.531   6.300   6.864  0.0351 -3.8876  0.4352
   92CHL1   H4B 9221   0.653   6.200   6.804 -1.2398 -1.3145  1.4612
   92CHL1    C5 9222   0.699   6.275   7.008  0.1983  0.4740  0.7503
   92CHL1    C6 9223   0.763   6.162   7.052  0.2526 -0.7235 -0.2206
   92CHL1    H6 9224   0.792   6.083   6.981  3.1327 -2.6976  2.8001
   92CHL1    C7 9225   0.798   6.139   7.202  0.4375 -0.1217 -0.0471
   92CHL1   H7A 9226   0.772   6.034   7.228 -1.0126 -0.0930 -1.2449
   92CHL1   H7B 9227   0.905   6.146   7.229  0.7170  1.0054 -1.3159
   92CHL1    C8 9228   0.728   6.240   7.299 -0.4564  0.6265  0.4216
   92CHL1    H8 9229   0.621   6.213   7.317 -0.9265  3.0381  1.7187
   92CHL1   C14 9230   0.806   6.256   7.430  0.4587  0.5223 -0.7318
   92CHL1   H14 9231   0.903   6.298   7.395  0.0528  1.1743 -1.0736
   92CHL1   C15 9232   0.832   6.127   7.504  0.1565 -0.9016  0.4937
   92CHL1  H15A 9233   0.751   6.052   7.491  0.6154 -2.0718  3.5746
   92CHL1  H15B 9234   0.927   6.071   7.490  1.1077  0.4487  1.2598
   92CHL1   C16 9235   0.834   6.154   7.655 -0.5927 -0.0043 -0.0251
   92CHL1  H16A 9236   0.744   6.122   7.711 -0.6061 -0.0365 -0.0644
   92CHL1  H16B 9237   0.921   6.105   7.704 -1.5545 -2.9708 -1.0890
   92CHL1   C17 9238   0.834   6.311   7.660 -0.2097 -0.0726  1.1511
   92CHL1   H17 9239   0.939   6.344   7.640  0.2109  0.0421  3.3262
   92CHL1   C13 9240   0.751   6.352   7.533 -0.4090 -0.8339 -0.1936
   92CHL1   C18 9241   0.604   6.317   7.568  0.3694 -0.1440  0.0487
   92CHL1  H18A 9242   0.529   6.320   7.486  0.2414 -0.9994  0.1253
   92CHL1  H18B 9243   0.599   6.217   7.615  0.5476  0.4799  1.4367
   92CHL1  H18C 9244   0.565   6.382   7.649 -2.2604 -0.7234 -0.6719
   92CHL1   C12 9245   0.771   6.488   7.478 -0.0937 -0.3290 -0.5349
   92CHL1  H12A 9246   0.723   6.562   7.545  1.1517 -1.0160  1.1854
   92CHL1  H12B 9247   0.879   6.515   7.470 -0.1613  0.5170  1.0627
   92CHL1   C11 9248   0.708   6.498   7.338 -0.2825 -0.5908  0.3796
   92CHL1  H11A 9249   0.597   6.502   7.339 -0.3785 -1.2428 -1.7501
   92CHL1  H11B 9250   0.734   6.596   7.293 -1.8952 -0.4005 -0.2086
   92CHL1    C9 9251   0.736   6.381   7.234  0.0375 -0.2678 -0.3386
   92CHL1    H9 9252   0.845   6.390   7.214  0.4274 -1.3798  1.1018
   92CHL1   C10 9253   0.664   6.390   7.096  0.0630  0.4341 -0.3302
   92CHL1   C19 9254   0.507   6.390   7.126  0.1385  0.2718 -0.3102
   92CHL1  H19A 9255   0.481   6.330   7.216 -2.8371  0.7125 -0.7919
   92CHL1  H19B 9256   0.479   6.492   7.159  1.6048  0.7924 -0.6060
   92CHL1  H19C 9257   0.447   6.360   7.038  0.7398 -3.2723  0.3265
   92CHL1    C1 9258   0.711   6.523   7.021  0.1293 -0.0749 -0.0129
   92CHL1   H1A 9259   0.669   6.605   7.084  0.7678  1.3468 -1.3771
   92CHL1   H1B 9260   0.821   6.529   7.029  0.1343  0.4451 -0.4235
   92CHL1    C2 9261   0.650   6.542   6.884 -0.1225  0.3869  0.3935
   92CHL1   H2A 9262   0.694   6.629   6.833 -1.7702  1.1710  0.2280
   92CHL1   H2B 9263   0.539   6.555   6.888 -0.4146 -0.5222 -2.6011
   92CHL1   C20 9264   0.800   6.367   7.800 -0.1342  0.2168 -0.2657
   92CHL1   H20 9265   0.699   6.329   7.828 -0.1239 -1.4320 -2.2566
   92CHL1   C21 9266   0.811   6.517   7.804  0.5160 -0.3073  0.3583
   92CHL1  H21A 9267   0.721   6.566   7.760  1.6022  1.2556 -0.1996
   92CHL1  H21B 9268   0.904   6.557   7.758 -0.6937  1.2327 -0.8757
   92CHL1  H21C 9269   0.817   6.540   7.912  1.0917 -0.0907  0.2826
   92CHL1   C22 9270   0.893   6.303   7.911  0.1317  0.1635 -0.3418
   92CHL1  H22A 9271   0.935   6.205   7.881 -0.1194  0.5567 -2.0696
   92CHL1  H22B 9272   0.977   6.374   7.930  2.0254 -2.1944  0.6776
   92CHL1   C23 9273   0.812   6.292   8.046  0.3229  0.1025 -0.7282
   92CHL1  H23A 9274   0.798   6.394   8.087 -0.5259 -0.2239 -0.1802
   92CHL1  H23B 9275   0.722   6.229   8.029  1.3902 -1.0973 -2.1434
   92CHL1   C24 9276   0.897   6.208   8.141 -0.3144 -0.0111  1.1658
   92CHL1  H24A 9277   0.937   6.111   8.104 -1.1673  0.4379 -1.1185
   92CHL1  H24B 9278   0.988   6.270   8.152 -0.8190  1.0773 -0.4088
   92CHL1   C25 9279   0.841   6.183   8.280  0.0992  0.4622 -0.0283
   92CHL1   H25 9280   0.783   6.271   8.317 -0.0694  0.7317 -0.9150
   92CHL1   C26 9281   0.747   6.064   8.283 -0.5400  0.3670  0.7296
   92CHL1  H26A 9282   0.796   5.964   8.276 -3.4674 -1.2347  1.6058
   92CHL1  H26B 9283   0.694   6.060   8.381 -0.1188 -0.6335  0.9322
   92CHL1  H26C 9284   0.676   6.076   8.199 -0.6641  0.4061  0.8411
   92CHL1   C27 9285   0.954   6.155   8.378  0.0154  0.1254  0.8585
   92CHL1  H27A 9286   1.025   6.241   8.379 -0.1340  0.3142 -1.2727
   92CHL1  H27B 9287   0.911   6.137   8.479 -1.6968  0.3164  0.1894
   92CHL1  H27C 9288   1.000   6.062   8.339 -2.8142 -1.2722  0.6026
   93CHL1    C3 9289   6.155   5.047   6.973 -0.3819  0.2180  0.4073
   93CHL1    H3 9290   6.135   5.139   7.033  0.8402 -0.0876  1.3336
   93CHL1    O3 9291   6.194   5.097   6.848 -0.0981  0.1634 -0.0205
   93CHL1   H3' 9292   6.169   5.035   6.779  0.6340 -0.7184  0.5014
   93CHL1    C4 9293   6.265   4.956   7.034  0.3063  0.4539  0.6560
   93CHL1   H4A 9294   6.293   4.881   6.957 -1.8405 -1.7428  1.8595
   93CHL1   H4B 9295   6.359   5.015   7.040  0.3370  0.3509  1.3522
   93CHL1    C5 9296   6.224   4.904   7.167  0.3351 -0.2115 -0.5016
   93CHL1    C6 9297   6.295   4.925   7.280  0.9609 -0.5402 -0.5191
   93CHL1    H6 9298   6.393   4.975   7.282 -0.1934  1.9316 -1.4284
   93CHL1    C7 9299   6.264   4.877   7.419  0.5577 -0.1112 -0.2629
   93CHL1   H7A 9300   6.354   4.828   7.461  0.1687  0.2463  1.0374
   93CHL1   H7B 9301   6.250   4.959   7.492  0.1727 -0.4263  0.0213
   93CHL1    C8 9302   6.159   4.769   7.417 -0.4152  0.4260 -0.4291
   93CHL1    H8 9303   6.211   4.683   7.370  1.0176  0.8777  0.2453
   93CHL1   C14 9304   6.115   4.728   7.558 -1.0249 -0.5774  0.2284
   93CHL1   H14 9305   6.067   4.821   7.595  0.9895  2.1831 -3.4082
   93CHL1   C15 9306   6.226   4.675   7.661  0.4679 -0.7953 -0.4768
   93CHL1  H15A 9307   6.290   4.598   7.612 -1.0099 -1.9067 -0.7571
   93CHL1  H15B 9308   6.276   4.763   7.705 -0.0192 -1.4646  1.5563
   93CHL1   C16 9309   6.139   4.605   7.771  0.2279  0.0261 -0.3881
   93CHL1  H16A 9310   6.183   4.508   7.801  0.4992  0.4099  0.4744
   93CHL1  H16B 9311   6.132   4.661   7.866 -0.1489 -2.4395  1.1083
   93CHL1   C17 9312   5.994   4.602   7.719 -0.4932 -0.3150 -0.1402
   93CHL1   H17 9313   5.940   4.694   7.751 -1.2883 -0.7503 -0.1980
   93CHL1   C13 9314   6.005   4.623   7.566 -0.6955 -0.3162  0.8060
   93CHL1   C18 9315   6.046   4.493   7.501  0.7519 -0.6099 -0.3815
   93CHL1  H18A 9316   5.950   4.436   7.497  0.2609  0.0838  1.0580
   93CHL1  H18B 9317   6.078   4.508   7.396  0.2479 -0.2298 -0.4860
   93CHL1  H18C 9318   6.125   4.433   7.551  0.1836  0.0239  1.3314
   93CHL1   C12 9319   5.883   4.683   7.495  0.5195 -0.3179  0.6455
   93CHL1  H12A 9320   5.806   4.603   7.498  0.4638 -0.2358  2.4068
   93CHL1  H12B 9321   5.846   4.776   7.544  1.7624  1.7609 -2.0789
   93CHL1   C11 9322   5.924   4.715   7.347  0.3929  0.5371 -0.0643
   93CHL1  H11A 9323   5.928   4.624   7.282 -1.3869 -0.5077  1.2150
   93CHL1  H11B 9324   5.840   4.773   7.304  0.5352  1.5197  0.9496
   93CHL1    C9 9325   6.043   4.810   7.321  0.3069 -0.3459  0.6166
   93CHL1    H9 9326   5.998   4.907   7.350  1.7049  0.4631  0.1944
   93CHL1   C10 9327   6.087   4.822   7.170  0.2409  0.3324  0.6767
   93CHL1   C19 9328   6.107   4.687   7.096 -0.4004  0.2891  0.0133
   93CHL1  H19A 9329   6.142   4.711   6.993  0.4393  0.0542  0.2360
   93CHL1  H19B 9330   6.188   4.630   7.146  2.3565  1.8719 -2.3152
   93CHL1  H19C 9331   6.026   4.612   7.084 -0.1371  0.1954 -1.4030
   93CHL1    C1 9332   5.981   4.903   7.081 -0.1647 -0.0209  0.3128
   93CHL1   H1A 9333   5.897   4.831   7.071 -0.8740  0.8290  0.0553
   93CHL1   H1B 9334   5.942   4.984   7.145 -1.1434 -0.5170  0.3694
   93CHL1    C2 9335   6.026   4.955   6.953  0.2976 -0.7277  0.4924
   93CHL1   H2A 9336   5.950   5.021   6.906  1.4260  1.0943  1.0930
   93CHL1   H2B 9337   6.040   4.870   6.883 -0.3438  0.3817 -1.0384
   93CHL1   C20 9338   5.913   4.478   7.773  0.2018 -0.1811  0.3477
   93CHL1   H20 9339   5.961   4.384   7.741  3.4484  0.9996  1.3785
   93CHL1   C21 9340   5.768   4.495   7.738 -0.1108 -0.0752  0.2761
   93CHL1  H21A 9341   5.692   4.444   7.801 -0.7198 -0.0935 -0.4564
   93CHL1  H21B 9342   5.753   4.455   7.635  0.4917  0.7583 -0.1520
   93CHL1  H21C 9343   5.729   4.598   7.722 -1.9321 -0.3751  2.3460
   93CHL1   C22 9344   5.924   4.471   7.927  0.0872 -0.4770 -0.7560
   93CHL1  H22A 9345   6.029   4.484   7.961 -0.3998 -2.1946  1.6278
   93CHL1  H22B 9346   5.883   4.566   7.968  0.6899 -0.8787  0.8503
   93CHL1   C23 9347   5.864   4.349   7.989 -0.0181  0.2908 -0.4632
   93CHL1  H23A 9348   5.756   4.335   7.968  0.3591  0.4221 -2.7684
   93CHL1  H23B 9349   5.918   4.262   7.945  0.9496 -0.2948  1.7112
   93CHL1   C24 9350   5.899   4.334   8.141  0.0351  0.9390  0.3227
   93CHL1  H24A 9351   6.008   4.347   8.161 -0.2751  3.6248  0.6076
   93CHL1  H24B 9352   5.843   4.409   8.200 -0.9134 -1.0098  2.0464
   93CHL1   C25 9353   5.856   4.205   8.202  0.3857  0.1021  0.1037
   93CHL1   H25 9354   5.748   4.192   8.182 -0.2424  3.3182  0.9782
   93CHL1   C26 9355   5.914   4.080   8.148  0.4052 -0.3230  0.1178
   93CHL1  H26A 9356   5.866   4.055   8.051 -0.2605  1.2907 -0.0107
   93CHL1  H26B 9357   6.022   4.092   8.125  0.0939 -0.6124 -1.6435
   93CHL1  H26C 9358   5.906   3.992   8.215  2.1545 -0.8269 -0.2666
   93CHL1   C27 9359   5.876   4.213   8.350 -0.5711  0.0317  0.0798
   93CHL1  H27A 9360   5.833   4.303   8.399 -1.2504  0.8557 -1.9128
   93CHL1  H27B 9361   5.819   4.127   8.391  0.2503 -1.6978 -2.1994
   93CHL1  H27C 9362   5.979   4.200   8.387 -0.8392  1.5047  1.4385
   94CHL1    C3 9363   1.238   5.608   6.966  0.2463 -0.3160  0.0805
   94CHL1    H3 9364   1.179   5.701   6.953 -1.2515 -1.2567 -0.1004
   94CHL1    O3 9365   1.213   5.535   6.850  0.2648  0.2964  0.6013
   94CHL1   H3' 9366   1.257   5.453   6.873  1.0636  1.1061  2.1272
   94CHL1    C4 9367   1.384   5.641   6.979 -0.5425  0.2948  0.5277
   94CHL1   H4A 9368   1.437   5.549   6.945  1.4039  1.8608 -0.9308
   94CHL1   H4B 9369   1.405   5.730   6.916 -1.5572  0.9901  1.1478
   94CHL1    C5 9370   1.445   5.670   7.114 -0.3456  0.0301  0.6807
   94CHL1    C6 9371   1.532   5.774   7.122 -0.5927 -0.1203  0.2575
   94CHL1    H6 9372   1.566   5.824   7.030  0.4634  0.4468  0.9317
   94CHL1    C7 9373   1.599   5.823   7.251  0.1172 -0.2143 -0.2434
   94CHL1   H7A 9374   1.708   5.841   7.241  0.6056 -2.1989  0.8836
   94CHL1   H7B 9375   1.546   5.912   7.292  0.8012  0.2299 -0.3204
   94CHL1    C8 9376   1.583   5.717   7.361  0.5998 -0.5339 -0.2863
   94CHL1    H8 9377   1.659   5.638   7.340  0.5895 -0.0299 -2.4550
   94CHL1   C14 9378   1.620   5.785   7.497  0.2708 -0.3444 -0.4579
   94CHL1   H14 9379   1.539   5.860   7.509  1.8427  1.5523 -0.9365
   94CHL1   C15 9380   1.748   5.880   7.510 -0.8190  0.6231 -0.3143
   94CHL1  H15A 9381   1.831   5.828   7.456 -0.7928 -0.0341  0.3442
   94CHL1  H15B 9382   1.735   5.984   7.473  1.1779 -0.1389 -3.6530
   94CHL1   C16 9383   1.779   5.885   7.664  0.2455  0.6961  0.0458
   94CHL1  H16A 9384   1.884   5.849   7.665  0.6457  1.8221  1.1555
   94CHL1  H16B 9385   1.779   5.983   7.718 -0.9992 -0.3381  2.0622
   94CHL1   C17 9386   1.674   5.790   7.737  0.1197 -0.5104  0.4737
   94CHL1   H17 9387   1.589   5.858   7.756  1.0556  1.2791 -1.2934
   94CHL1   C13 9388   1.621   5.695   7.623 -0.2670  0.7824 -0.2221
   94CHL1   C18 9389   1.713   5.580   7.596  0.0079  0.0385 -0.5059
   94CHL1  H18A 9390   1.672   5.507   7.522  0.1429  0.4919 -1.0296
   94CHL1  H18B 9391   1.809   5.606   7.547  0.6114 -3.4390 -1.4961
   94CHL1  H18C 9392   1.740   5.524   7.688 -0.1455 -0.2010 -0.6042
   94CHL1   C12 9393   1.468   5.641   7.629 -0.4460 -0.7008 -0.5157
   94CHL1  H12A 9394   1.453   5.558   7.700  1.6748  0.8379  1.9078
   94CHL1  H12B 9395   1.398   5.719   7.665 -1.8402 -1.7373 -0.9271
   94CHL1   C11 9396   1.416   5.578   7.497 -0.0726 -0.1870  0.5215
   94CHL1  H11A 9397   1.446   5.471   7.495  0.1614 -0.1118 -1.0015
   94CHL1  H11B 9398   1.306   5.565   7.510  0.4407 -5.1323  1.8356
   94CHL1    C9 9399   1.444   5.658   7.369 -0.3023  0.2560 -0.0696
   94CHL1    H9 9400   1.384   5.750   7.382  0.9237  0.8878  1.5263
   94CHL1   C10 9401   1.391   5.588   7.230 -0.2500 -0.1425 -0.4694
   94CHL1   C19 9402   1.460   5.449   7.217 -0.3098 -0.6390  0.6869
   94CHL1  H19A 9403   1.571   5.453   7.219 -0.3410  0.5659  3.1403
   94CHL1  H19B 9404   1.419   5.385   7.297  0.6831 -0.2293  1.5486
   94CHL1  H19C 9405   1.434   5.415   7.114  0.3055  3.7115 -1.1236
   94CHL1    C1 9406   1.235   5.584   7.224  0.0121 -0.4859 -0.3736
   94CHL1   H1A 9407   1.192   5.529   7.311 -1.7279  2.5946  0.8612
   94CHL1   H1B 9408   1.206   5.691   7.232  0.2764 -0.5345  1.7030
   94CHL1    C2 9409   1.175   5.533   7.087 -0.3056 -0.0986 -0.6879
   94CHL1   H2A 9410   1.065   5.542   7.085 -0.2620  0.2986 -1.5903
   94CHL1   H2B 9411   1.194   5.426   7.065 -0.8530  0.0897 -2.2133
   94CHL1   C20 9412   1.717   5.719   7.865  0.1977  0.4311 -0.7059
   94CHL1   H20 9413   1.802   5.652   7.843 -0.4741 -0.5828 -0.2931
   94CHL1   C21 9414   1.599   5.633   7.933 -0.5296 -0.2350  0.7763
   94CHL1  H21A 9415   1.514   5.702   7.953  0.3821  0.5793  2.0159
   94CHL1  H21B 9416   1.639   5.594   8.029  0.8875 -3.0278 -0.8284
   94CHL1  H21C 9417   1.566   5.549   7.868 -1.5734  0.7642 -0.0201
   94CHL1   C22 9418   1.750   5.830   7.971  0.0616  0.3123 -0.5223
   94CHL1  H22A 9419   1.813   5.905   7.917 -0.2951  1.3436  0.4515
   94CHL1  H22B 9420   1.660   5.882   8.010  0.4854 -0.5698  1.7832
   94CHL1   C23 9421   1.847   5.775   8.086 -0.8175 -0.3717 -0.0612
   94CHL1  H23A 9422   1.774   5.719   8.149 -0.0384  0.2955  1.4843
   94CHL1  H23B 9423   1.933   5.715   8.049 -0.3671  1.4801 -2.2032
   94CHL1   C24 9424   1.890   5.885   8.182 -0.2437  0.0433  0.4108
   94CHL1  H24A 9425   1.934   5.971   8.128 -1.6674  0.5328 -0.0206
   94CHL1  H24B 9426   1.797   5.929   8.224  0.5270  1.4460  0.7343
   94CHL1   C25 9427   1.989   5.835   8.292 -0.3231  0.9784 -0.5370
   94CHL1   H25 9428   2.084   5.813   8.240 -0.2747 -1.0722  0.3367
   94CHL1   C26 9429   2.022   5.944   8.396  0.1489 -0.1605 -0.3105
   94CHL1  H26A 9430   2.021   6.047   8.356 -1.5052  0.1720  0.4792
   94CHL1  H26B 9431   1.954   5.949   8.483  1.1329  0.7606  0.4155
   94CHL1  H26C 9432   2.121   5.917   8.437  0.4727  1.3035 -0.0840
   94CHL1   C27 9433   1.936   5.716   8.378 -0.1420 -1.0329  0.2831
   94CHL1  H27A 9434   1.958   5.617   8.331 -1.4241 -1.0716 -0.2735
   94CHL1  H27B 9435   1.972   5.706   8.483 -0.9364  0.9423  0.7865
   94CHL1  H27C 9436   1.826   5.730   8.375  0.0557  0.4477 -0.5046
   95CHL1    C3 9437   2.873   5.819   6.876 -0.6451 -0.2717 -0.3397
   95CHL1    H3 9438   2.943   5.741   6.912 -2.3603 -2.5386 -1.6061
   95CHL1    O3 9439   2.865   5.808   6.741  0.2355  0.0876  0.0868
   95CHL1   H3' 9440   2.773   5.796   6.717  0.5010 -0.8604 -0.4857
   95CHL1    C4 9441   2.736   5.798   6.939 -0.1905 -0.1391 -0.4608
   95CHL1   H4A 9442   2.652   5.842   6.882 -0.6516 -1.3767 -0.7831
   95CHL1   H4B 9443   2.719   5.688   6.931  1.6544 -0.6105  1.3150
   95CHL1    C5 9444   2.719   5.838   7.086  0.5997 -0.0514 -0.0539
   95CHL1    C6 9445   2.677   5.758   7.187  0.6409 -0.1211 -0.1070
   95CHL1    H6 9446   2.655   5.653   7.161 -2.6501  0.1559  1.1068
   95CHL1    C7 9447   2.652   5.803   7.332 -0.7183 -0.5365  1.1985
   95CHL1   H7A 9448   2.547   5.782   7.360 -1.4775 -0.8237 -1.5511
   95CHL1   H7B 9449   2.725   5.751   7.398  1.8342  0.4834 -0.6358
   95CHL1    C8 9450   2.655   5.955   7.347 -0.3919 -0.0373 -0.1054
   95CHL1    H8 9451   2.557   5.995   7.314 -1.1293  0.1241  2.1301
   95CHL1   C14 9452   2.667   5.983   7.505  0.0423 -0.1531  0.1184
   95CHL1   H14 9453   2.765   5.942   7.538 -0.4027  0.3292  2.1974
   95CHL1   C15 9454   2.569   5.916   7.601 -0.3279  0.5690 -0.8277
   95CHL1  H15A 9455   2.464   5.926   7.566 -0.3868  1.0149 -0.5375
   95CHL1  H15B 9456   2.595   5.808   7.608  0.2256  0.7378 -0.1620
   95CHL1   C16 9457   2.599   5.996   7.732  0.0819 -0.3035 -0.3130
   95CHL1  H16A 9458   2.498   6.023   7.770  0.3695  0.2933  0.0458
   95CHL1  H16B 9459   2.647   5.943   7.818 -0.1608 -0.0067  0.0076
   95CHL1   C17 9460   2.679   6.125   7.693  0.3406 -0.2850 -0.4119
   95CHL1   H17 9461   2.784   6.099   7.719  0.7204  1.8006  0.3352
   95CHL1   C13 9462   2.677   6.133   7.537  0.2107  0.1794 -0.7302
   95CHL1   C18 9463   2.540   6.204   7.503  0.3293  0.5441 -0.2780
   95CHL1  H18A 9464   2.546   6.314   7.510  0.1594  0.6012 -0.9903
   95CHL1  H18B 9465   2.512   6.189   7.396  2.0937  1.1767 -0.8548
   95CHL1  H18C 9466   2.454   6.159   7.557  0.2885  0.6215 -0.2792
   95CHL1   C12 9467   2.794   6.192   7.462  0.0565  0.1235 -0.5271
   95CHL1  H12A 9468   2.791   6.301   7.487  2.2408 -0.1642  1.3565
   95CHL1  H12B 9469   2.887   6.148   7.503 -0.4470  0.7484  1.3590
   95CHL1   C11 9470   2.787   6.161   7.310 -0.4888 -0.1298  0.5102
   95CHL1  H11A 9471   2.694   6.212   7.277 -0.9033 -0.3109  1.3706
   95CHL1  H11B 9472   2.878   6.203   7.262  0.1429 -0.6116  1.2633
   95CHL1    C9 9473   2.772   6.013   7.273 -0.3068  0.8885 -0.3250
   95CHL1    H9 9474   2.859   5.955   7.308 -2.0900 -1.7102  0.0841
   95CHL1   C10 9475   2.757   5.982   7.118  0.0464 -0.1844  0.3097
   95CHL1   C19 9476   2.678   6.089   7.049  0.1702  0.2607 -0.2928
   95CHL1  H19A 9477   2.730   6.186   7.045 -0.3914  0.5449 -0.7906
   95CHL1  H19B 9478   2.665   6.069   6.941 -1.6490 -0.7832  0.0676
   95CHL1  H19C 9479   2.579   6.100   7.099  0.8052 -0.6784  1.2778
   95CHL1    C1 9480   2.911   5.986   7.061  0.1332 -0.1263  0.2731
   95CHL1   H1A 9481   2.944   6.091   7.076 -2.6986  1.3513 -2.6650
   95CHL1   H1B 9482   2.987   5.935   7.124  2.4251 -0.2584 -2.3792
   95CHL1    C2 9483   2.929   5.950   6.914 -0.0049  0.3252 -0.6367
   95CHL1   H2A 9484   3.037   5.955   6.889 -0.1549  3.1480 -0.9611
   95CHL1   H2B 9485   2.883   6.027   6.850  1.5845  0.3663 -1.7887
   95CHL1   C20 9486   2.643   6.252   7.782 -0.2576 -0.0557  0.3884
   95CHL1   H20 9487   2.548   6.299   7.750  1.3664  3.6547  0.5186
   95CHL1   C21 9488   2.751   6.365   7.765  0.5854  0.0597 -0.1232
   95CHL1  H21A 9489   2.852   6.326   7.788  0.9716  1.4113  0.5584
   95CHL1  H21B 9490   2.731   6.458   7.821  0.5601  0.2953 -0.5219
   95CHL1  H21C 9491   2.751   6.387   7.656  0.4293  0.5026 -0.0353
   95CHL1   C22 9492   2.637   6.233   7.935 -0.4618 -1.2208  0.2150
   95CHL1  H22A 9493   2.610   6.332   7.976  0.8266  0.3750 -2.4921
   95CHL1  H22B 9494   2.556   6.159   7.950 -0.1722 -1.4634  0.6318
   95CHL1   C23 9495   2.762   6.188   8.017  0.6448 -0.0983 -0.0311
   95CHL1  H23A 9496   2.779   6.083   7.985 -1.4549 -0.7739  0.9251
   95CHL1  H23B 9497   2.850   6.255   8.001  0.3668  0.2116 -0.3062
   95CHL1   C24 9498   2.722   6.177   8.167  0.1729  0.0272  0.0341
   95CHL1  H24A 9499   2.671   6.272   8.194 -0.2740  0.0734 -0.9521
   95CHL1  H24B 9500   2.642   6.106   8.199 -0.0088  0.4121  0.4545
   95CHL1   C25 9501   2.848   6.165   8.261  0.9868 -0.6088 -0.2257
   95CHL1   H25 9502   2.919   6.235   8.213 -0.0903  0.6916 -0.0129
   95CHL1   C26 9503   2.830   6.214   8.404 -0.2334  0.2979 -0.2394
   95CHL1  H26A 9504   2.778   6.311   8.411  0.0453  0.5249 -1.1198
   95CHL1  H26B 9505   2.768   6.139   8.457 -0.7611  0.0072 -1.2418
   95CHL1  H26C 9506   2.929   6.223   8.454 -0.1626  2.6626 -0.7203
   95CHL1   C27 9507   2.891   6.022   8.258 -0.3855 -0.1123  0.4228
   95CHL1  H27A 9508   2.825   5.960   8.322  0.5655  0.4015  1.9881
   95CHL1  H27B 9509   2.893   5.988   8.153  3.0823 -0.9085  0.6270
   95CHL1  H27C 9510   2.998   6.017   8.290 -0.8422 -0.7004  1.9791
   96CHL1    C3 9511   1.807   2.129   6.915  0.1221  0.4919  0.5164
   96CHL1    H3 9512   1.779   2.222   6.970  1.5018 -0.3349  2.7467
   96CHL1    O3 9513   1.753   2.129   6.778  0.7625 -0.2813  0.3583
   96CHL1   H3' 9514   1.790   2.051   6.736  0.3667  0.6494 -1.8649
   96CHL1    C4 9515   1.960   2.129   6.893  0.0461  0.0219  0.3022
   96CHL1   H4A 9516   1.994   2.038   6.838  0.5694 -0.0101  0.6687
   96CHL1   H4B 9517   1.986   2.214   6.828  0.4537 -1.2211 -1.2208
   96CHL1    C5 9518   2.032   2.118   7.027 -0.4751 -0.6070 -0.9791
   96CHL1    C6 9519   2.104   2.218   7.077  0.5587  0.4435  0.3966
   96CHL1    H6 9520   2.116   2.309   7.016 -0.5580  0.3759  0.0474
   96CHL1    C7 9521   2.176   2.209   7.202 -0.2972  0.1659  0.5913
   96CHL1   H7A 9522   2.279   2.249   7.189 -0.8644  0.9721 -1.9119
   96CHL1   H7B 9523   2.118   2.276   7.270 -1.0411 -0.5150  0.6364
   96CHL1    C8 9524   2.184   2.069   7.263 -0.3030 -0.2333  0.2777
   96CHL1    H8 9525   2.259   2.015   7.201  0.1022  1.5590 -0.8830
   96CHL1   C14 9526   2.224   2.087   7.406 -0.6482 -0.6960 -0.4425
   96CHL1   H14 9527   2.142   2.147   7.449 -0.7736 -3.0961  3.0597
   96CHL1   C15 9528   2.349   2.179   7.448 -0.0097 -0.5822 -0.2974
   96CHL1  H15A 9529   2.426   2.163   7.370  1.2582  0.5867  0.6603
   96CHL1  H15B 9530   2.312   2.283   7.445  0.4628 -0.3326  1.4138
   96CHL1   C16 9531   2.388   2.118   7.587  0.5142 -0.1457  1.2541
   96CHL1  H16A 9532   2.494   2.090   7.572  0.4674  0.1472  0.2774
   96CHL1  H16B 9533   2.368   2.186   7.673  0.9854  1.3620  0.1999
   96CHL1   C17 9534   2.287   2.005   7.621 -0.0758  0.3454 -0.1512
   96CHL1   H17 9535   2.195   2.054   7.658 -0.2212 -0.6712  0.9059
   96CHL1   C13 9536   2.240   1.955   7.485  0.3074  0.0759  0.1769
   96CHL1   C18 9537   2.352   1.871   7.418 -0.3875  0.4384  0.4231
   96CHL1  H18A 9538   2.330   1.851   7.311  0.0578 -0.9040  0.5620
   96CHL1  H18B 9539   2.457   1.910   7.419 -0.2543  0.1888 -1.0125
   96CHL1  H18C 9540   2.358   1.770   7.464 -1.0568  0.6935  1.0818
   96CHL1   C12 9541   2.097   1.888   7.488 -0.3066 -0.3227  0.1599
   96CHL1  H12A 9542   2.107   1.795   7.547  2.3689 -0.2940 -0.1516
   96CHL1  H12B 9543   2.025   1.960   7.532  1.0818  1.8022 -0.8698
   96CHL1   C11 9544   2.039   1.866   7.341  0.4689  0.4648  0.2448
   96CHL1  H11A 9545   2.104   1.790   7.292 -0.0390 -0.1912  0.5775
   96CHL1  H11B 9546   1.933   1.836   7.348  0.7279 -0.1935  1.9915
   96CHL1    C9 9547   2.043   2.004   7.253 -0.3530  0.7912 -0.3907
   96CHL1    H9 9548   1.980   2.083   7.300 -1.7643 -0.4337 -0.1539
   96CHL1   C10 9549   1.995   1.995   7.105  0.2706 -0.0195  0.0055
   96CHL1   C19 9550   2.063   1.862   7.040  0.4681  0.5890 -0.5308
   96CHL1  H19A 9551   2.170   1.862   7.069  0.4618 -1.1154 -0.4094
   96CHL1  H19B 9552   2.023   1.764   7.074 -0.4225  1.0091 -0.3308
   96CHL1  H19C 9553   2.053   1.850   6.930 -0.3220  0.7340 -0.4794
   96CHL1    C1 9554   1.835   1.972   7.112  0.3582 -0.4975 -0.1505
   96CHL1   H1A 9555   1.810   1.877   7.165  2.9745 -1.1832 -0.0079
   96CHL1   H1B 9556   1.802   2.049   7.185  0.2637 -0.8865  0.2258
   96CHL1    C2 9557   1.766   1.993   6.980 -0.6488  0.5442  0.0956
   96CHL1   H2A 9558   1.656   1.986   6.996 -0.6432  0.8311  0.2662
   96CHL1   H2B 9559   1.787   1.911   6.909 -1.4305  0.7213 -0.3599
   96CHL1   C20 9560   2.334   1.908   7.729 -0.4462  0.7675  0.1107
   96CHL1   H20 9561   2.393   1.825   7.685  0.5006 -0.2957  3.1335
   96CHL1   C21 9562   2.211   1.848   7.794  0.2583 -0.2252 -0.0949
   96CHL1  H21A 9563   2.230   1.807   7.895 -1.0522  0.0150  0.2725
   96CHL1  H21B 9564   2.181   1.757   7.737 -2.2834 -0.3781  1.3138
   96CHL1  H21C 9565   2.124   1.917   7.804 -1.0169 -2.1158  3.8596
   96CHL1   C22 9566   2.436   1.963   7.839  0.4787 -0.1841 -0.1155
   96CHL1  H22A 9567   2.522   2.001   7.779  1.5347 -0.1602  1.3499
   96CHL1  H22B 9568   2.392   2.052   7.888  3.6803  1.5408 -0.0607
   96CHL1   C23 9569   2.487   1.858   7.939  0.1819  0.4987 -0.6384
   96CHL1  H23A 9570   2.405   1.817   8.002 -0.0793 -0.1708 -1.3912
   96CHL1  H23B 9571   2.523   1.768   7.886 -0.1172 -1.6435  2.5162
   96CHL1   C24 9572   2.595   1.919   8.033 -1.3256  0.0688 -0.0500
   96CHL1  H24A 9573   2.689   1.949   7.982 -1.3489 -1.9806 -1.3972
   96CHL1  H24B 9574   2.562   2.014   8.080 -0.0978 -0.2813  1.5885
   96CHL1   C25 9575   2.639   1.827   8.154 -0.1264  0.1149 -0.3479
   96CHL1   H25 9576   2.543   1.790   8.196  0.0587  1.0510  0.9651
   96CHL1   C26 9577   2.719   1.708   8.100 -0.9569 -0.3790 -0.4027
   96CHL1  H26A 9578   2.768   1.659   8.186 -0.4400  1.1218  0.1878
   96CHL1  H26B 9579   2.653   1.637   8.044 -1.4019 -0.5228  0.2837
   96CHL1  H26C 9580   2.802   1.746   8.038  0.1419 -1.8861  0.1000
   96CHL1   C27 9581   2.720   1.913   8.260 -0.1511  0.1933  0.0177
   96CHL1  H27A 9582   2.658   1.987   8.315 -0.5504  0.0865 -0.2762
   96CHL1  H27B 9583   2.763   1.846   8.338 -0.9806  2.7630  2.8612
   96CHL1  H27C 9584   2.800   1.960   8.199  0.4859  0.7634  1.2706
   97OSM      N 9585   0.342   6.070  11.312 -0.4039 -0.3419  0.6753
   97OSM    C15 9586   0.435   6.127  11.209  0.2898  0.0655 -0.0435
   97OSM   H15A 9587   0.535   6.095  11.234 -0.2177 -2.3013 -0.8149
   97OSM   H15B 9588   0.436   6.235  11.204  1.3519  0.1027  0.6519
   97OSM   H15C 9589   0.417   6.087  11.110  1.7497  1.9442 -1.1390
   97OSM    C14 9590   0.366   6.141  11.444  0.1119  0.3186  0.6078
   97OSM   H14A 9591   0.361   6.248  11.430 -1.2819 -0.0195 -2.2156
   97OSM   H14B 9592   0.458   6.108  11.490 -0.1244  0.1291  0.9435
   97OSM   H14C 9593   0.293   6.115  11.519  0.7474  0.2446  1.2120
   97OSM    C13 9594   0.205   6.111  11.275  0.1606 -0.5035 -0.0221
   97OSM   H13A 9595   0.173   6.199  11.329  0.5980  0.0360 -0.6189
   97OSM   H13B 9596   0.138   6.032  11.305 -0.5746  0.1177  0.0189
   97OSM   H13C 9597   0.192   6.124  11.168 -1.1731  2.4124  0.3789
   97OSM    C12 9598   0.347   5.925  11.310 -0.3171  0.0148 -0.4920
   97OSM   H12A 9599   0.296   5.895  11.400 -0.3925  1.3531 -0.0693
   97OSM   H12B 9600   0.450   5.893  11.314  0.4073  2.2848  0.4648
   97OSM    C11 9601   0.281   5.848  11.192 -0.2776 -0.1291 -0.1747
   97OSM   H11A 9602   0.172   5.873  11.191 -1.0943 -3.2078 -1.8414
   97OSM   H11B 9603   0.285   5.738  11.205 -0.1420  0.0483  1.5253
   97OSM      P 9604   0.453   5.806  10.995  0.1362  0.2244  0.0575
   97OSM    O13 9605   0.527   5.908  10.919 -0.3792 -0.7651  0.1803
   97OSM    O14 9606   0.527   5.735  11.094 -0.0897 -0.3192 -0.1064
   97OSM    O11 9607   0.387   5.706  10.895  0.0888  0.4743 -0.5571
   97OSM    O12 9608   0.329   5.886  11.064  0.6681 -0.3316 -0.4469
   97OSM    C1S 9609   0.269   5.744  10.819  0.6842  0.8923  0.6243
   97OSM    H1S 9610   0.292   5.846  10.781 -1.3903  1.8261  1.7151
   97OSM    H1T 9611   0.177   5.737  10.880 -0.0552  0.0545 -0.5306
   97OSM     NF 9612   0.142   5.710  10.619  0.4539  0.1442 -0.2569
   97OSM    HNF 9613   0.063   5.650  10.614  0.8826 -0.4962  0.4530
   97OSM    C2S 9614   0.252   5.651  10.686 -0.6891  0.3914 -0.1484
   97OSM    H2S 9615   0.340   5.662  10.620  0.0944  0.1670  0.8277
   97OSM    C3S 9616   0.238   5.504  10.725  0.3219  0.1210 -0.5060
   97OSM    H3S 9617   0.143   5.473  10.773  0.1937 -0.4159 -1.0965
   97OSM     O3 9618   0.338   5.454  10.806 -0.4141  0.6226  0.0799
   97OSM    HO3 9619   0.392   5.531  10.821  2.4601 -0.3619 -3.5826
   97OSM    C4S 9620   0.238   5.428  10.600  0.1665 -0.0106  0.3558
   97OSM    H4S 9621   0.334   5.428  10.547  0.4008  1.1878  0.7524
   97OSM    C5S 9622   0.132   5.369  10.548  0.1633  0.0004  0.8364
   97OSM    H5S 9623   0.042   5.366  10.610  1.9482 -1.2016  3.5864
   97OSM    C6S 9624   0.137   5.298  10.413  0.0317 -0.3929 -0.1495
   97OSM    H6S 9625   0.094   5.196  10.421 -0.3373 -0.2513 -0.3182
   97OSM    H6T 9626   0.245   5.287  10.388  1.1100 -0.7282  3.9578
   97OSM    C7S 9627   0.065   5.358  10.292  0.2263 -0.9828 -0.4414
   97OSM    H7S 9628  -0.044   5.362  10.312  0.4404  0.9734  0.5557
   97OSM    H7T 9629   0.062   5.282  10.211  1.1619  0.9895 -2.4357
   97OSM    C8S 9630   0.111   5.489  10.243  0.0787 -0.4363  0.0346
   97OSM    H8S 9631   0.217   5.473  10.211  0.1643 -2.7733  1.2683
   97OSM    H8T 9632   0.118   5.562  10.326  2.1490  1.2694 -1.4877
   97OSM    C9S 9633   0.033   5.551  10.130 -0.2294 -0.4795 -0.3981
   97OSM    H9S 9634   0.060   5.659  10.130 -0.5118 -0.4066 -1.1590
   97OSM    H9T 9635  -0.076   5.546  10.153  0.0110  0.1402  0.9863
   97OSM   C10S 9636   0.069   5.477   9.995  0.8198 -0.3269 -0.3334
   97OSM   H10S 9637   0.009   5.383   9.993 -0.2266  0.2946  0.5050
   97OSM   H10T 9638   0.175   5.448   9.987  0.5718 -1.2628 -0.3810
   97OSM   C11S 9639   0.024   5.584   9.891 -0.6930 -0.1543 -0.4715
   97OSM   H11S 9640   0.075   5.682   9.900  0.1813 -0.6567  0.2003
   97OSM   H11T 9641  -0.079   5.616   9.916 -0.7184 -0.3210 -0.3620
   97OSM   C12S 9642   0.019   5.538   9.745  0.3309  0.1629 -0.1790
   97OSM   H12S 9643  -0.034   5.440   9.737  0.8294  0.0430 -2.8294
   97OSM   H12T 9644   0.121   5.515   9.708  0.9130  3.7948 -1.1277
   97OSM   C13S 9645  -0.063   5.624   9.652 -0.1364  0.1002  0.3539
   97OSM   H13S 9646  -0.030   5.731   9.655  0.4816  0.0440 -2.2670
   97OSM   H13T 9647  -0.173   5.615   9.663 -0.1209  0.4542  0.8245
   97OSM   C14S 9648  -0.051   5.572   9.506 -0.1654 -0.2389  0.4717
   97OSM   H14S 9649  -0.059   5.461   9.507 -1.1772 -0.1965 -0.4561
   97OSM   H14T 9650   0.048   5.599   9.463  0.2173 -2.1609  0.0310
   97OSM   C15S 9651  -0.160   5.627   9.408  0.0803  0.2847  0.7044
   97OSM   H15S 9652  -0.148   5.738   9.412 -0.6755  0.4814 -1.3328
   97OSM   H15T 9653  -0.262   5.601   9.443 -0.0142 -1.0692 -0.5012
   97OSM   C16S 9654  -0.130   5.575   9.269 -0.4600 -0.0980 -0.9239
   97OSM   H16S 9655  -0.115   5.466   9.286  0.1229  0.4205  2.6410
   97OSM   H16T 9656  -0.037   5.619   9.225  0.4543  0.2693  1.2634
   97OSM   C17S 9657  -0.247   5.588   9.177 -0.0161  0.4563 -0.6579
   97OSM   H17S 9658  -0.280   5.692   9.154  0.9854  1.1274  0.7548
   97OSM   H17T 9659  -0.329   5.525   9.218 -0.9000  2.2743  0.5111
   97OSM   C18S 9660  -0.219   5.539   9.037  0.1339 -0.7631 -0.9910
   97OSM   H18S 9661  -0.302   5.570   8.969  1.4059  0.6551 -1.9603
   97OSM   H18T 9662  -0.212   5.428   9.044 -2.8736 -0.9222  2.6615
   97OSM   H18U 9663  -0.127   5.586   8.997 -0.4405  0.3866 -0.9823
   97OSM    C1F 9664   0.149   5.828  10.556  0.1362 -0.2158  0.4534
   97OSM     OF 9665   0.263   5.873  10.541 -0.2340 -0.0836  0.4652
   97OSM    C2F 9666   0.024   5.892  10.505 -0.5904  0.0937  1.0206
   97OSM    H2F 9667  -0.045   5.927  10.585 -0.9343  1.6634  0.0872
   97OSM    H2G 9668  -0.032   5.813  10.451 -0.1993  1.4721 -1.5520
   97OSM    C3F 9669   0.047   6.004  10.408 -0.2051  0.1601  0.5699
   97OSM    H3F 9670   0.120   6.075  10.454 -0.4098  0.0456  1.0839
   97OSM    H3G 9671  -0.048   6.059  10.388  0.6794  1.7265  0.4703
   97OSM    C4F 9672   0.096   5.968  10.263  0.1475  0.0569  0.3390
   97OSM    H4F 9673   0.026   5.894  10.219 -0.2866 -0.2083  1.4452
   97OSM    H4G 9674   0.197   5.923  10.276 -0.2688 -1.5874 -1.6233
   97OSM    C5F 9675   0.125   6.083  10.172 -0.4888 -0.3708  0.2863
   97OSM    H5F 9676   0.200   6.150  10.219  1.2719 -0.6204 -1.9812
   97OSM    H5G 9677   0.029   6.140  10.164 -0.1140  0.0678 -1.6819
   97OSM    C6F 9678   0.186   6.046  10.036  0.3713  0.2589  0.3393
   97OSM    H6F 9679   0.251   5.959  10.057 -0.3090 -0.9488 -2.2536
   97OSM    H6G 9680   0.235   6.141  10.005 -1.0978  0.7542 -0.5675
   97OSM    C7F 9681   0.073   6.015   9.934 -0.1220  0.0929  0.5008
   97OSM    H7F 9682  -0.011   5.981   9.997 -0.7617 -0.8320 -0.7841
   97OSM    H7G 9683   0.110   5.938   9.862 -0.1452  0.4823  0.0669
   97OSM    C8F 9684   0.011   6.131   9.864  0.3268 -0.4471  0.1377
   97OSM    H8F 9685  -0.044   6.184   9.944 -0.7018 -0.9645 -0.2115
   97OSM    H8G 9686  -0.058   6.084   9.791 -1.1711  1.8256  0.0115
   97OSM    C9F 9687   0.107   6.232   9.796  0.0609 -0.6346  0.2122
   97OSM    H9F 9688   0.178   6.289   9.859 -0.5564  1.0188 -0.5188
   97OSM   C10F 9689   0.121   6.251   9.658  0.2020 -0.1170 -0.1441
   97OSM   H10F 9690   0.204   6.313   9.621  0.9744 -1.1327 -0.1369
   97OSM   C11F 9691   0.035   6.180   9.556  0.3561  0.1956  0.1448
   97OSM   H11F 9692   0.044   6.226   9.455  1.5784  1.1002  0.6447
   97OSM   H11G 9693  -0.073   6.187   9.581 -0.6291 -2.4161 -2.6949
   97OSM   C12F 9694   0.065   6.035   9.523  0.3968 -0.2364  0.0968
   97OSM   H12F 9695  -0.019   5.988   9.469 -0.5462  0.2809  1.0813
   97OSM   H12G 9696   0.075   5.977   9.617  0.4836  0.6181  0.6289
   97OSM   C13F 9697   0.191   6.008   9.442 -0.1169  1.1113 -0.7552
   97OSM   H13F 9698   0.278   6.070   9.472 -0.4498  1.3285 -0.2186
   97OSM   H13G 9699   0.162   6.043   9.341  1.1542  1.1244 -1.1231
   97OSM   C14F 9700   0.235   5.857   9.456 -0.6308 -0.0894 -0.0781
   97OSM   H14F 9701   0.164   5.796   9.515 -0.3401 -1.3791 -1.0166
   97OSM   H14G 9702   0.334   5.832   9.500 -0.7033 -0.9418 -0.3910
   97OSM   C15F 9703   0.244   5.780   9.321 -0.0591  0.0063  0.0403
   97OSM   H15F 9704   0.152   5.793   9.260  0.8921  1.6152 -1.1418
   97OSM   H15G 9705   0.252   5.671   9.342 -0.8614  0.2495  1.8038
   97OSM   C16F 9706   0.354   5.820   9.227  0.0171 -0.2488 -0.4947
   97OSM   H16F 9707   0.449   5.787   9.274  0.4933 -1.2590 -2.0876
   97OSM   H16G 9708   0.355   5.929   9.207 -0.9009 -0.2704 -0.6832
   97OSM   C17F 9709   0.354   5.740   9.101 -0.1667  0.6201 -0.7107
   97OSM   H17F 9710   0.253   5.760   9.060 -1.4701  0.0743  2.0119
   97OSM   H17G 9711   0.369   5.631   9.118  1.2732  0.9798  0.5176
   97OSM   C18F 9712   0.462   5.790   9.010 -0.2141  0.0531 -0.1179
   97OSM   H18F 9713   0.567   5.784   9.047 -0.0350  0.4174 -0.5489
   97OSM   H18G 9714   0.457   5.900   8.995 -0.4335 -0.0634 -0.9777
   97OSM   H18H 9715   0.453   5.738   8.912  0.0019 -1.2600  0.5379
   98OSM      N 9716   6.700   5.098  10.940 -0.3879 -0.1188 -0.3272
   98OSM    C15 9717   6.654   5.148  11.080  0.5376 -0.2466 -0.5042
   98OSM   H15A 9718   6.725   5.132  11.160 -1.5523  1.1276  1.7342
   98OSM   H15B 9719   6.559   5.111  11.115  1.0902 -2.5422 -1.1992
   98OSM   H15C 9720   6.646   5.255  11.072  0.2983 -0.3749 -2.5306
   98OSM    C14 9721   6.823   5.172  10.886  0.7451  0.1558 -0.1012
   98OSM   H14A 9722   6.792   5.273  10.867 -0.1511 -0.2245 -0.7001
   98OSM   H14B 9723   6.854   5.112  10.802 -2.0813 -1.3661 -0.1390
   98OSM   H14C 9724   6.893   5.174  10.969  1.2144  1.8817 -0.4876
   98OSM    C13 9725   6.736   4.952  10.957  0.0785  0.4828  0.7681
   98OSM   H13A 9726   6.761   4.906  10.863  0.7878  1.1035  0.6436
   98OSM   H13B 9727   6.653   4.888  10.985 -0.0132 -0.1842 -0.8821
   98OSM   H13C 9728   6.816   4.945  11.029  1.3583  0.3954 -0.6035
   98OSM    C12 9729   6.584   5.120  10.846 -0.9001  0.1498  0.2797
   98OSM   H12A 9730   6.496   5.070  10.883  0.2258 -0.3931  2.3674
   98OSM   H12B 9731   6.598   5.066  10.753 -1.9844 -1.1308  0.8249
   98OSM    C11 9732   6.536   5.260  10.824 -0.0785 -0.6386  0.7798
   98OSM   H11A 9733   6.470   5.246  10.735  0.8623  0.2346 -0.0760
   98OSM   H11B 9734   6.613   5.328  10.781 -2.3201  3.8196  3.1492
   98OSM      P 9735   6.334   5.294  10.988 -0.0372 -0.0574  0.1502
   98OSM    O13 9736   6.318   5.156  11.038 -0.5738  0.0419  0.8509
   98OSM    O14 9737   6.292   5.402  11.084 -0.1867  0.0713 -0.0196
   98OSM    O11 9738   6.256   5.314  10.857  0.8837 -0.4279 -0.1231
   98OSM    O12 9739   6.482   5.323  10.936 -0.5535 -0.1351  0.1429
   98OSM    C1S 9740   6.275   5.434  10.782  0.2483 -0.2113 -0.1530
   98OSM    H1S 9741   6.380   5.441  10.747 -0.1471  0.3722 -1.2661
   98OSM    H1T 9742   6.246   5.523  10.843 -0.0571 -2.0932  2.6321
   98OSM     NF 9743   6.234   5.547  10.571  1.3826  0.2361 -0.2424
   98OSM    HNF 9744   6.162   5.615  10.570  1.1881  0.0342 -0.1383
   98OSM    C2S 9745   6.204   5.428  10.646  0.1518  0.0041 -0.0058
   98OSM    H2S 9746   6.238   5.334  10.596 -0.3443 -1.2068  1.8407
   98OSM    C3S 9747   6.053   5.409  10.662 -0.0860  0.5096 -0.2410
   98OSM    H3S 9748   6.010   5.494  10.718 -2.5162 -1.9115  1.8342
   98OSM     O3 9749   6.012   5.309  10.754  0.5290 -0.6358  0.2166
   98OSM    HO3 9750   6.086   5.278  10.808  0.8211 -1.4246 -0.6193
   98OSM    C4S 9751   5.990   5.378  10.533 -0.1156 -0.1524  0.3358
   98OSM    H4S 9752   6.029   5.280  10.500  1.8151  0.2191  1.3639
   98OSM    C5S 9753   5.916   5.464  10.455  0.0783  0.8580 -0.1755
   98OSM    H5S 9754   5.917   5.568  10.491  0.5277 -0.3998  3.9582
   98OSM    C6S 9755   5.856   5.437  10.321 -0.3191  0.1672  0.1314
   98OSM    H6S 9756   5.907   5.501  10.246  0.4231  1.1580  1.4363
   98OSM    H6T 9757   5.750   5.469  10.331 -0.0881  1.0456 -0.1638
   98OSM    C7S 9758   5.854   5.294  10.271  0.0802  0.0842  0.3960
   98OSM    H7S 9759   5.797   5.231  10.342 -0.6305 -1.9545 -1.8294
   98OSM    H7T 9760   5.955   5.250  10.283  0.5171  1.2807  1.2983
   98OSM    C8S 9761   5.810   5.280  10.128 -0.3677 -0.5819 -0.0508
   98OSM    H8S 9762   5.885   5.332  10.064 -0.5440 -0.6357 -0.3048
   98OSM    H8T 9763   5.713   5.332  10.119  0.6243  2.2095  3.2071
   98OSM    C9S 9764   5.796   5.132  10.075 -0.0956 -0.5216 -1.1120
   98OSM    H9S 9765   5.751   5.073  10.158  1.0221  0.4838  0.2566
   98OSM    H9T 9766   5.894   5.084  10.052  1.1398  1.8074 -1.0324
   98OSM   C10S 9767   5.702   5.110   9.954  0.0755 -0.6509  0.1447
   98OSM   H10S 9768   5.616   5.175   9.982  0.3584 -1.3876  3.0976
   98OSM   H10T 9769   5.659   5.008   9.942  1.0652 -1.0894  0.1912
   98OSM   C11S 9770   5.771   5.151   9.822 -0.4841 -0.0881 -0.0145
   98OSM   H11S 9771   5.880   5.128   9.819 -0.2952  0.8729 -1.4841
   98OSM   H11T 9772   5.757   5.261   9.813 -1.6889 -0.1491  0.9393
   98OSM   C12S 9773   5.694   5.092   9.703  0.3985  0.3893  0.2311
   98OSM   H12S 9774   5.596   5.144   9.691  0.9108  1.5692  1.0759
   98OSM   H12T 9775   5.661   4.986   9.717 -2.1691  1.2450  1.2731
   98OSM   C13S 9776   5.777   5.111   9.574  0.1179 -0.4179  0.2327
   98OSM   H13S 9777   5.865   5.049   9.601  1.0368  1.5222  2.0006
   98OSM   H13T 9778   5.818   5.214   9.566 -1.9251  0.3225 -1.8518
   98OSM   C14S 9779   5.712   5.081   9.442  0.0197  0.2791  0.4618
   98OSM   H14S 9780   5.635   5.159   9.428  0.8318  1.0009 -0.1296
   98OSM   H14T 9781   5.665   4.981   9.452 -0.2457  0.3772  0.1917
   98OSM   C15S 9782   5.817   5.087   9.329  0.9001  0.5137  0.0240
   98OSM   H15S 9783   5.899   5.018   9.357 -0.9606 -2.7469 -1.9074
   98OSM   H15T 9784   5.852   5.192   9.316  1.9308  0.3756  1.4898
   98OSM   C16S 9785   5.746   5.032   9.205 -0.0248 -0.2697  0.0751
   98OSM   H16S 9786   5.646   5.078   9.187  0.8026  1.3523 -0.5531
   98OSM   H16T 9787   5.723   4.926   9.229 -1.0917 -0.5393 -1.8938
   98OSM   C17S 9788   5.834   5.044   9.085 -0.6132 -0.2218 -0.0567
   98OSM   H17S 9789   5.930   4.988   9.090  0.0810  0.9113 -0.4698
   98OSM   H17T 9790   5.869   5.149   9.076 -0.4811 -0.2795 -0.2182
   98OSM   C18S 9791   5.769   5.000   8.952 -0.3912  0.7757  0.1601
   98OSM   H18S 9792   5.842   5.038   8.877  0.7971 -0.7209  0.5018
   98OSM   H18T 9793   5.676   5.054   8.926 -1.0168 -1.0582 -1.6322
   98OSM   H18U 9794   5.756   4.891   8.939  0.5014  0.7838 -0.9912
   98OSM    C1F 9795   6.341   5.578  10.508 -0.0737  1.3535 -1.0422
   98OSM     OF 9796   6.434   5.503  10.524 -0.2482 -0.0383  0.4141
   98OSM    C2F 9797   6.348   5.698  10.422 -0.3498 -0.4531 -0.4359
   98OSM    H2F 9798   6.330   5.788  10.484 -0.0556 -1.1466  0.6759
   98OSM    H2G 9799   6.278   5.678  10.337  0.1584  3.1759 -1.8816
   98OSM    C3F 9800   6.498   5.717  10.375  1.0463 -0.2621  0.5012
   98OSM    H3F 9801   6.542   5.619  10.346 -0.5235 -1.5099  2.1344
   98OSM    H3G 9802   6.559   5.756  10.459  1.8231 -0.4886  0.0525
   98OSM    C4F 9803   6.511   5.807  10.255 -0.4055 -0.2638  0.2847
   98OSM    H4F 9804   6.616   5.844  10.258 -0.5452  0.4653 -2.1010
   98OSM    H4G 9805   6.461   5.907  10.252  0.9840  0.4462 -2.4930
   98OSM    C5F 9806   6.487   5.743  10.116 -0.1823 -0.0845 -0.0947
   98OSM    H5F 9807   6.382   5.706  10.113 -0.3622 -0.0392  2.8617
   98OSM    H5G 9808   6.541   5.647  10.105 -0.2663 -0.2489  0.9049
   98OSM    C6F 9809   6.521   5.841  10.001 -0.0064  0.4343 -0.2144
   98OSM    H6F 9810   6.630   5.864  10.004 -0.2326  1.8478 -1.4610
   98OSM    H6G 9811   6.465   5.933  10.027  0.2630 -0.1695  2.8669
   98OSM    C7F 9812   6.478   5.791   9.864 -0.2283 -0.5847  0.1931
   98OSM    H7F 9813   6.368   5.808   9.860 -0.0013  1.0506  0.2563
   98OSM    H7G 9814   6.505   5.684   9.858 -3.7140 -1.4994 -2.2446
   98OSM    C8F 9815   6.533   5.860   9.738 -0.0126 -0.8549  0.6967
   98OSM    H8F 9816   6.477   5.827   9.648  2.0714 -1.1467 -0.5708
   98OSM    H8G 9817   6.641   5.833   9.743  0.4443  0.1030 -2.2557
   98OSM    C9F 9818   6.523   6.011   9.730  0.4417 -0.3878  0.0071
   98OSM    H9F 9819   6.564   6.064   9.818  0.1774  2.1456 -1.3044
   98OSM   C10F 9820   6.477   6.082   9.626  0.2112 -0.3349 -0.0193
   98OSM   H10F 9821   6.488   6.192   9.631 -1.0047 -0.2598  2.3150
   98OSM   C11F 9822   6.425   6.023   9.498 -0.7935  0.0813 -0.7594
   98OSM   H11F 9823   6.317   6.050   9.495 -0.9189  0.0546  1.4176
   98OSM   H11G 9824   6.434   5.913   9.482 -1.4431  0.1496 -1.6766
   98OSM   C12F 9825   6.504   6.087   9.383 -0.2013  0.0342 -0.3290
   98OSM   H12F 9826   6.612   6.061   9.388 -0.2748 -0.0872  0.9813
   98OSM   H12G 9827   6.491   6.198   9.389 -0.5991 -0.0488  0.4544
   98OSM   C13F 9828   6.460   6.036   9.242  0.5141  0.8261  0.5893
   98OSM   H13F 9829   6.350   6.043   9.234  0.5570  0.0595 -0.9675
   98OSM   H13G 9830   6.484   5.928   9.233  1.5266  1.0834  0.0188
   98OSM   C14F 9831   6.491   6.121   9.126 -0.5878 -0.4213  0.2545
   98OSM   H14F 9832   6.601   6.129   9.113 -0.3658 -1.1254  1.5207
   98OSM   H14G 9833   6.446   6.219   9.153 -0.4266 -0.3783  0.3628
   98OSM   C15F 9834   6.441   6.066   8.990 -0.3602 -1.0927  0.5527
   98OSM   H15F 9835   6.452   6.144   8.911 -1.4674  0.7043  2.0953
   98OSM   H15G 9836   6.334   6.044   9.007 -1.5219  0.9156 -3.1046
   98OSM   C16F 9837   6.518   5.943   8.949 -0.2499 -0.3951  0.3620
   98OSM   H16F 9838   6.519   5.877   9.038 -1.8218 -0.4511  0.3726
   98OSM   H16G 9839   6.624   5.967   8.927 -0.0715 -0.9943  0.5787
   98OSM   C17F 9840   6.470   5.874   8.826  0.1550  0.1298  1.2896
   98OSM   H17F 9841   6.359   5.875   8.818  0.1887  0.5130  0.8218
   98OSM   H17G 9842   6.500   5.767   8.830  0.0316 -0.1162 -1.9431
   98OSM   C18F 9843   6.531   5.933   8.697  0.2115 -0.1269 -0.0943
   98OSM   H18F 9844   6.490   5.876   8.610 -0.8323 -1.2288  1.0768
   98OSM   H18G 9845   6.642   5.934   8.695  0.2444  2.3386 -0.0002
   98OSM   H18H 9846   6.505   6.040   8.685 -0.1478 -0.1681  0.2936
   99OSM      N 9847   2.753   0.823  10.887  0.1435  0.3689 -0.5694
   99OSM    C15 9848   2.722   0.846  11.033 -0.4750 -0.0820  0.6210
   99OSM   H15A 9849   2.615   0.839  11.051 -0.1683 -1.9167  2.1836
   99OSM   H15B 9850   2.741   0.948  11.060  2.8106 -0.3198 -0.3984
   99OSM   H15C 9851   2.766   0.776  11.103 -1.0842  0.3203  1.4279
   99OSM    C14 9852   2.665   0.919  10.816  0.2828 -0.3729  0.6836
   99OSM   H14A 9853   2.685   1.023  10.835  1.5519 -0.9846  3.0371
   99OSM   H14B 9854   2.564   0.914  10.852  0.0916  1.9266  0.5981
   99OSM   H14C 9855   2.660   0.900  10.709  0.2939  1.6867  0.2764
   99OSM    C13 9856   2.894   0.861  10.879 -0.0869  0.6971 -0.1212
   99OSM   H13A 9857   2.929   0.884  10.779 -0.4470  0.5906 -0.2734
   99OSM   H13B 9858   2.957   0.782  10.917 -0.3892  0.4718 -0.0905
   99OSM   H13C 9859   2.905   0.943  10.948 -0.9786 -0.9510  2.0830
   99OSM    C12 9860   2.726   0.680  10.852  0.4018  0.4520 -1.1730
   99OSM   H12A 9861   2.626   0.654  10.883  1.6522 -0.5725  2.6264
   99OSM   H12B 9862   2.784   0.614  10.917 -1.8809 -0.6297 -0.1276
   99OSM    C11 9863   2.726   0.643  10.707  0.2459  0.7502  0.3759
   99OSM   H11A 9864   2.810   0.692  10.654 -0.0661  0.8716 -0.0092
   99OSM   H11B 9865   2.638   0.672  10.646  1.4040  0.5542 -1.4495
   99OSM      P 9866   2.884   0.436  10.692 -0.0859 -0.1305 -0.2089
   99OSM    O13 9867   2.977   0.490  10.793  0.2925 -0.0312 -0.0840
   99OSM    O14 9868   2.866   0.290  10.693 -0.5140 -0.1319  0.6464
   99OSM    O11 9869   2.925   0.493  10.551  0.4253  0.2257 -0.6317
   99OSM    O12 9870   2.739   0.497  10.704 -0.0523  0.4657  0.3813
   99OSM    C1S 9871   2.862   0.422  10.439  0.0553 -0.5887 -0.7555
   99OSM    H1S 9872   2.755   0.398  10.457  0.2411  0.8059  3.0248
   99OSM    H1T 9873   2.910   0.322  10.432  1.2562 -0.2775  2.0083
   99OSM     NF 9874   2.780   0.452  10.206  0.0318  0.6732  0.3710
   99OSM    HNF 9875   2.790   0.364  10.159  0.2078  1.0206 -0.2472
   99OSM    C2S 9876   2.881   0.500  10.300  0.2158  0.7179  0.2665
   99OSM    H2S 9877   2.870   0.610  10.317 -0.2099  0.5557  1.1053
   99OSM    C3S 9878   3.020   0.480  10.238 -0.5285  0.0424  1.0470
   99OSM    H3S 9879   3.034   0.372  10.215 -0.2829 -0.0487  1.6136
   99OSM     O3 9880   3.126   0.523  10.318 -0.0212  0.3065  0.4885
   99OSM    HO3 9881   3.084   0.544  10.402 -2.8009  0.6779 -0.9078
   99OSM    C4S 9882   3.026   0.556  10.100 -0.2961 -0.1016  0.1471
   99OSM    H4S 9883   2.982   0.500  10.016 -0.0072 -1.5451  0.9174
   99OSM    C5S 9884   3.082   0.677  10.077 -0.3131  0.0384  0.6624
   99OSM    H5S 9885   3.132   0.740  10.152 -1.0193  0.7375  0.5655
   99OSM    C6S 9886   3.086   0.749   9.943  0.2668 -0.6182 -0.7396
   99OSM    H6S 9887   3.092   0.858   9.962 -0.6224 -0.8232  1.0284
   99OSM    H6T 9888   2.992   0.722   9.892 -1.6859 -1.0067  2.7235
   99OSM    C7S 9889   3.217   0.723   9.855 -0.6623  0.3321 -0.2952
   99OSM    H7S 9890   3.230   0.613   9.864  2.7755  0.7937  2.8659
   99OSM    H7T 9891   3.304   0.765   9.910 -0.9857 -1.4011  1.6730
   99OSM    C8S 9892   3.215   0.780   9.712 -0.0632 -0.4760 -0.3110
   99OSM    H8S 9893   3.126   0.730   9.669  0.0238 -1.6553  0.8092
   99OSM    H8T 9894   3.313   0.758   9.664 -0.5100 -1.0051 -1.0021
   99OSM    C9S 9895   3.183   0.927   9.712  0.6780 -0.2944  0.9747
   99OSM    H9S 9896   3.250   0.991   9.774  1.0453  0.8211 -0.5057
   99OSM    H9T 9897   3.076   0.943   9.739  0.8343  1.8448  0.5344
   99OSM   C10S 9898   3.190   0.982   9.572 -0.1084 -0.1290  0.2816
   99OSM   H10S 9899   3.101   0.945   9.517 -1.6657  0.7960  2.0206
   99OSM   H10T 9900   3.285   0.951   9.525  0.0660 -0.6741  0.9767
   99OSM   C11S 9901   3.169   1.135   9.561  0.5845 -0.5056 -0.2626
   99OSM   H11S 9902   3.263   1.192   9.581  1.4442 -1.2653 -1.9031
   99OSM   H11T 9903   3.092   1.165   9.635  0.0125 -3.1873  0.3539
   99OSM   C12S 9904   3.109   1.177   9.426 -0.5458  0.7955  0.3023
   99OSM   H12S 9905   3.025   1.110   9.396  0.5132  0.5548 -2.4741
   99OSM   H12T 9906   3.067   1.279   9.429 -1.4004  0.5128 -0.9806
   99OSM   C13S 9907   3.226   1.172   9.330  0.2424 -0.1135 -1.1053
   99OSM   H13S 9908   3.282   1.076   9.331  0.3064 -0.1544  1.6667
   99OSM   H13T 9909   3.300   1.245   9.369 -0.6463 -0.6175  1.7645
   99OSM   C14S 9910   3.189   1.210   9.184 -0.1797 -0.7389 -0.1891
   99OSM   H14S 9911   3.099   1.154   9.150  0.4665 -1.7954 -0.2263
   99OSM   H14T 9912   3.278   1.191   9.120 -0.1928  0.6757 -0.6468
   99OSM   C15S 9913   3.147   1.356   9.167  0.3575  0.0748 -0.1447
   99OSM   H15S 9914   3.225   1.424   9.207 -0.0447  1.5103 -1.6667
   99OSM   H15T 9915   3.061   1.382   9.232  0.5938  2.8429 -0.7856
   99OSM   C16S 9916   3.113   1.401   9.019 -0.1228 -0.1870  0.0069
   99OSM   H16S 9917   3.050   1.493   9.025  0.3414  0.2551 -1.5418
   99OSM   H16T 9918   3.045   1.322   8.981  2.3139 -0.8799 -3.3327
   99OSM   C17S 9919   3.232   1.417   8.920  0.1059 -0.4285  0.3656
   99OSM   H17S 9920   3.279   1.320   8.893 -2.1227 -0.8911 -2.2011
   99OSM   H17T 9921   3.313   1.474   8.972  1.0413  0.9310 -2.3793
   99OSM   C18S 9922   3.201   1.508   8.796  0.3329 -0.1279  0.1296
   99OSM   H18S 9923   3.175   1.609   8.833  0.9292  0.6251 -1.4346
   99OSM   H18T 9924   3.108   1.472   8.748 -0.2318  1.7798 -0.2723
   99OSM   H18U 9925   3.290   1.519   8.731  1.9624 -3.3474  1.5957
   99OSM    C1F 9926   2.653   0.492  10.214  0.1647  0.3140 -0.0799
   99OSM     OF 9927   2.623   0.585  10.288  0.1383 -0.2012 -0.6086
   99OSM    C2F 9928   2.553   0.414  10.146  0.9379  0.3295  1.0392
   99OSM    H2F 9929   2.463   0.396  10.208  0.2658 -0.2325 -0.0541
   99OSM    H2G 9930   2.595   0.316  10.113  1.2772  0.4701  1.0478
   99OSM    C3F 9931   2.503   0.477  10.016  0.1613 -0.3191 -0.2548
   99OSM    H3F 9932   2.438   0.403   9.963  1.4737 -0.8642 -1.1672
   99OSM    H3G 9933   2.438   0.564  10.039 -0.5398 -0.9408  0.1840
   99OSM    C4F 9934   2.618   0.530   9.926  0.4803 -0.3913 -0.0043
   99OSM    H4F 9935   2.685   0.604   9.976  0.6434 -1.0132  0.7123
   99OSM    H4G 9936   2.571   0.594   9.848 -1.5240  1.9814  2.9408
   99OSM    C5F 9937   2.694   0.418   9.852  0.7445 -0.9053  0.6349
   99OSM    H5F 9938   2.606   0.362   9.813 -0.1424  0.7065  0.2244
   99OSM    H5G 9939   2.748   0.345   9.917 -0.1445 -2.9456 -0.8064
   99OSM    C6F 9940   2.783   0.468   9.731 -0.5099 -0.0435 -0.1214
   99OSM    H6F 9941   2.857   0.541   9.770  0.6864 -2.0644  1.5952
   99OSM    H6G 9942   2.717   0.525   9.661 -1.6856 -1.5522 -0.3021
   99OSM    C7F 9943   2.870   0.360   9.665 -0.6332 -0.0106  0.6856
   99OSM    H7F 9944   2.816   0.263   9.673  0.6827 -0.9610 -1.3676
   99OSM    H7G 9945   2.967   0.333   9.712 -0.5350 -3.6962 -1.2885
   99OSM    C8F 9946   2.889   0.378   9.509  0.1965  0.9258 -0.4737
   99OSM    H8F 9947   2.933   0.281   9.477 -0.6051 -0.2343  1.7192
   99OSM    H8G 9948   2.964   0.454   9.479  0.7809 -0.1509 -1.8136
   99OSM    C9F 9949   2.763   0.394   9.426  0.1119  0.3646 -0.3030
   99OSM    H9F 9950   2.679   0.328   9.454  1.5639 -0.7557  1.7282
   99OSM   C10F 9951   2.746   0.476   9.321  0.3358 -0.3003 -0.0112
   99OSM   H10F 9952   2.648   0.496   9.274  1.4283  0.9539 -1.8887
   99OSM   C11F 9953   2.857   0.564   9.268 -0.1345 -0.0769 -0.0225
   99OSM   H11F 9954   2.954   0.522   9.303 -1.3927 -1.2879  2.2099
   99OSM   H11G 9955   2.862   0.668   9.306 -1.4686  0.1982 -0.5621
   99OSM   C12F 9956   2.864   0.570   9.116 -0.7495 -0.8372  0.4469
   99OSM   H12F 9957   2.954   0.622   9.077 -0.9319 -1.7576 -1.3424
   99OSM   H12G 9958   2.774   0.629   9.088 -0.1567  0.4243  1.1330
   99OSM   C13F 9959   2.834   0.446   9.031 -0.4676  0.6802  0.3283
   99OSM   H13F 9960   2.742   0.396   9.069  0.0832  0.5851  1.5985
   99OSM   H13G 9961   2.916   0.373   9.050  1.6650  2.2780 -2.0991
   99OSM   C14F 9962   2.835   0.457   8.879 -0.6857  0.3728  0.1722
   99OSM   H14F 9963   2.761   0.531   8.843 -0.6825  0.8504  1.1067
   99OSM   H14G 9964   2.810   0.355   8.844  0.9251 -0.6787  1.8660
   99OSM   C15F 9965   2.966   0.505   8.814  0.3132  0.0333  0.1517
   99OSM   H15F 9966   3.051   0.445   8.855  0.0679 -1.2423 -1.1046
   99OSM   H15G 9967   2.994   0.609   8.840  0.3731 -0.2999  1.4699
   99OSM   C16F 9968   2.970   0.485   8.661 -0.2053  0.1440 -0.1307
   99OSM   H16F 9969   2.893   0.544   8.606  0.4114 -1.4318 -2.8802
   99OSM   H16G 9970   2.936   0.380   8.643  0.8303 -0.4704  1.3310
   99OSM   C17F 9971   3.107   0.496   8.592  0.0652  0.1730  0.7503
   99OSM   H17F 9972   3.111   0.427   8.505 -0.3584  2.5679 -1.2887
   99OSM   H17G 9973   3.193   0.465   8.656 -0.0458  1.6110  1.6356
   99OSM   C18F 9974   3.132   0.629   8.532 -0.4465 -0.1601  0.2951
   99OSM   H18F 9975   3.233   0.638   8.485 -1.2718  0.2899 -1.4821
   99OSM   H18G 9976   3.130   0.697   8.620  0.8361 -3.5966  3.2444
   99OSM   H18H 9977   3.051   0.662   8.464  0.3298 -1.5935 -1.4166
  100OSM      N 9978   6.078   1.910  11.137  0.2933  0.0281 -0.0746
  100OSM    C15 9979   6.002   1.785  11.175 -0.2728 -0.4897 -0.0380
  100OSM   H15A 9980   6.053   1.726  11.249  0.6275 -0.4324 -0.6005
  100OSM   H15B 9981   5.979   1.726  11.088  3.3345  4.4936 -5.1530
  100OSM   H15C 9982   5.908   1.806  11.223 -0.7327 -1.5411 -0.4650
  100OSM    C14 9983   6.095   1.995  11.264 -0.1273 -0.4954  0.0453
  100OSM   H14A 9984   6.003   2.035  11.305  1.7324  0.5791  3.6280
  100OSM   H14B 9985   6.162   2.074  11.237 -0.7228 -0.7540 -2.3757
  100OSM   H14C 9986   6.152   1.948  11.343  0.7720  4.2214  2.6025
  100OSM    C13 9987   6.217   1.867  11.097 -0.2153  0.4142  0.8546
  100OSM   H13A 9988   6.200   1.797  11.016 -2.6113  0.7234  0.9955
  100OSM   H13B 9989   6.270   1.816  11.176 -0.8526 -0.3155  0.8284
  100OSM   H13C 9990   6.274   1.952  11.063  0.2718 -0.4751 -0.6726
  100OSM    C12 9991   6.014   1.982  11.025 -0.3913  0.2863  0.3032
  100OSM   H12A 9992   6.086   2.053  10.987  1.2617 -1.9881 -1.0946
  100OSM   H12B 9993   5.936   2.044  11.067  0.1460  1.0486  0.1930
  100OSM    C11 9994   5.955   1.913  10.898  0.9826  0.4477  0.0119
  100OSM   H11A 9995   5.925   1.986  10.820  0.0605 -0.7746 -0.8178
  100OSM   H11B 9996   5.867   1.854  10.931  0.9248 -0.3491 -1.5097
  100OSM      P 9997   6.027   1.683  10.797 -0.3640  0.3305 -0.5323
  100OSM    O13 9998   6.147   1.620  10.736  0.5769  0.2878 -0.2646
  100OSM    O14 9999   5.969   1.618  10.914  0.1519 -0.7944 -0.0969
  100OSM    O1110000   5.914   1.703  10.680 -0.3263  0.4737 -0.1866
  100OSM    O1210001   6.053   1.834  10.844  0.0960 -0.0361  0.2845
  100OSM    C1S10002   5.964   1.787  10.571 -0.2400  0.1769 -0.0632
  100OSM    H1S10003   6.017   1.729  10.492 -1.1134  0.0840 -0.5976
  100OSM    H1T10004   6.035   1.865  10.607 -0.3090 -0.4512  1.4733
  100OSM     NF10005   5.909   1.928  10.383 -0.1246  0.3742  0.3856
  100OSM    HNF10006   5.930   2.024  10.398 -1.5555  0.6122  1.0468
  100OSM    C2S10007   5.850   1.855  10.496  0.1803  0.7066  0.3924
  100OSM    H2S10008   5.783   1.777  10.453  1.9060 -0.3319 -0.5546
  100OSM    C3S10009   5.754   1.932  10.586  0.0683 -0.1482 -0.1344
  100OSM    H3S10010   5.819   2.007  10.637 -0.7549 -0.1413  0.9358
  100OSM     O310011   5.697   1.849  10.688 -0.2101  0.1418  0.2241
  100OSM    HO310012   5.759   1.776  10.694 -1.1551 -0.5405  2.4249
  100OSM    C4S10013   5.645   1.998  10.511  0.2872  0.5936  0.1995
  100OSM    H4S10014   5.617   1.941  10.421  3.2509  0.1265 -0.5059
  100OSM    C5S10015   5.581   2.114  10.531  0.3198 -0.3925  0.2268
  100OSM    H5S10016   5.624   2.187  10.600  1.8205  1.6443 -2.6556
  100OSM    C6S10017   5.477   2.153  10.430 -0.3839 -0.7323  0.0114
  100OSM    H6S10018   5.453   2.259  10.454  2.1994  0.2748 -1.4537
  100OSM    H6T10019   5.387   2.093  10.455 -0.4825 -0.3787  0.5239
  100OSM    C7S10020   5.511   2.128  10.279  0.2409 -0.2802  0.0456
  100OSM    H7S10021   5.491   2.019  10.268  0.1647 -0.2603 -0.0169
  100OSM    H7T10022   5.615   2.163  10.266  0.7957 -1.2568  1.5950
  100OSM    C8S10023   5.419   2.202  10.187 -0.2553 -0.0558 -0.0942
  100OSM    H8S10024   5.445   2.310  10.183  1.5119 -0.3875  1.2435
  100OSM    H8T10025   5.309   2.190  10.191 -0.2974  0.2453 -0.2683
  100OSM    C9S10026   5.434   2.143  10.042  0.0175  0.5524 -0.6964
  100OSM    H9S10027   5.376   2.049  10.029 -0.8067  1.0959 -0.9636
  100OSM    H9T10028   5.543   2.122  10.035 -0.1651 -0.5192 -0.6114
  100OSM   C10S10029   5.380   2.233   9.936 -0.3508  0.4074  0.8503
  100OSM   H10S10030   5.399   2.341   9.951  2.2687 -0.0469  1.4134
  100OSM   H10T10031   5.272   2.212   9.926 -0.4133  1.1412 -0.1873
  100OSM   C11S10032   5.448   2.186   9.799  0.0320 -0.4051  0.8933
  100OSM   H11S10033   5.418   2.080   9.782 -1.0248 -0.4201  2.5947
  100OSM   H11T10034   5.559   2.189   9.800  0.0237  0.3746  0.2101
  100OSM   C12S10035   5.386   2.270   9.689 -0.3975 -0.4460 -0.0374
  100OSM   H12S10036   5.386   2.378   9.714 -1.7955 -1.2385  4.1865
  100OSM   H12T10037   5.282   2.235   9.670 -0.9442 -0.0773  1.9690
  100OSM   C13S10038   5.452   2.257   9.552 -0.3587  0.2085  0.1253
  100OSM   H13S10039   5.525   2.175   9.566 -2.2909 -1.4225  1.2992
  100OSM   H13T10040   5.506   2.348   9.518 -0.0061 -0.1070 -0.1623
  100OSM   C14S10041   5.360   2.227   9.437 -0.2542  0.5510 -0.2197
  100OSM   H14S10042   5.270   2.291   9.451 -0.5175 -0.0741  1.0665
  100OSM   H14T10043   5.319   2.125   9.447  4.3654 -1.4322  1.1324
  100OSM   C15S10044   5.422   2.253   9.301 -0.0567 -0.2475 -0.4128
  100OSM   H15S10045   5.454   2.359   9.312 -0.1142 -0.3585  1.0130
  100OSM   H15T10046   5.353   2.253   9.214  1.5028  0.0402 -1.6991
  100OSM   C16S10047   5.542   2.176   9.272 -0.2818  0.0446 -0.1128
  100OSM   H16S10048   5.527   2.071   9.306  0.7044 -0.0164  0.1737
  100OSM   H16T10049   5.629   2.204   9.335 -0.0010 -0.5397 -0.2336
  100OSM   C17S10050   5.574   2.176   9.123 -0.4550 -0.0834 -0.1702
  100OSM   H17S10051   5.581   2.285   9.103  1.2538 -0.6075 -2.8516
  100OSM   H17T10052   5.484   2.130   9.078 -0.9301  0.7026 -0.0452
  100OSM   C18S10053   5.709   2.117   9.073  0.2119 -0.1634  0.4507
  100OSM   H18S10054   5.801   2.168   9.110 -1.0169  3.9426 -1.4772
  100OSM   H18T10055   5.701   2.136   8.963 -0.7122 -1.0691  0.3487
  100OSM   H18U10056   5.720   2.008   9.089 -0.1525 -0.0799  1.3209
  100OSM    C1F10057   5.967   1.872  10.286 -1.2344  0.3370  0.8707
  100OSM     OF10058   5.935   1.762  10.242  0.5438 -0.3268  0.4808
  100OSM    C2F10059   6.063   1.962  10.215 -0.3811  0.2564 -0.4517
  100OSM    H2F10060   6.164   1.917  10.222  0.1283  1.4656  0.2202
  100OSM    H2G10061   6.064   2.060  10.267  0.0588 -1.1788  2.4387
  100OSM    C3F10062   6.029   1.968  10.062 -0.2195 -0.0594  0.0281
  100OSM    H3F10063   6.019   1.870  10.010 -1.5127  0.4313 -0.6948
  100OSM    H3G10064   6.114   2.017  10.010  1.2359 -3.1476 -0.7585
  100OSM    C4F10065   5.906   2.055  10.033 -0.4794  0.4417  0.1639
  100OSM    H4F10066   5.904   2.157  10.076 -1.7782  0.5257 -0.0558
  100OSM    H4G10067   5.821   1.997  10.075 -1.5567  0.7399 -1.5208
  100OSM    C5F10068   5.861   2.069   9.893 -0.6289 -0.1748  0.1659
  100OSM    H5F10069   5.759   2.113   9.889  0.0349  1.7222  2.0138
  100OSM    H5G10070   5.849   1.965   9.857 -1.5305 -1.1071  2.9154
  100OSM    C6F10071   5.959   2.154   9.805 -0.3055 -0.2910  0.5621
  100OSM    H6F10072   6.058   2.103   9.803  0.5467  1.1617  2.5011
  100OSM    H6G10073   5.980   2.248   9.859  1.5471 -0.5605  0.3826
  100OSM    C7F10074   5.904   2.189   9.667  0.1598  0.4409 -0.1975
  100OSM    H7F10075   5.959   2.283   9.644 -0.0215  0.9258  1.2484
  100OSM    H7G10076   5.793   2.197   9.664  0.1304  1.0736  1.3286
  100OSM    C8F10077   5.943   2.075   9.567 -0.0460  0.0476 -0.0146
  100OSM    H8F10078   5.882   1.987   9.594  0.0069 -0.8088 -2.4855
  100OSM    H8G10079   6.049   2.054   9.595 -1.2105 -1.3679  3.9941
  100OSM    C9F10080   5.921   2.116   9.424 -0.2161  0.3804 -0.3086
  100OSM    H9F10081   5.820   2.155   9.403 -0.8206 -0.8274  0.3107
  100OSM   C10F10082   6.014   2.123   9.324  0.2343 -0.1167  0.2432
  100OSM   H10F10083   5.985   2.164   9.226  1.0375 -0.6383 -0.2191
  100OSM   C11F10084   6.160   2.085   9.322 -0.3511  0.0593 -0.8798
  100OSM   H11F10085   6.209   2.088   9.422  1.0651 -1.8928 -1.4611
  100OSM   H11G10086   6.221   2.158   9.264 -0.5350 -1.1112 -2.5900
  100OSM   C12F10087   6.173   1.957   9.248  0.3518  0.5046 -0.0326
  100OSM   H12F10088   6.121   1.879   9.307 -0.7936  0.6409 -0.8250
  100OSM   H12G10089   6.280   1.928   9.245  0.9116  2.3608  0.8561
  100OSM   C13F10090   6.141   1.959   9.100  0.3179  0.5528  0.2709
  100OSM   H13F10091   6.213   2.028   9.051  3.7029 -2.0072  1.2301
  100OSM   H13G10092   6.042   2.006   9.088  0.1735 -0.1101 -1.2650
  100OSM   C14F10093   6.131   1.817   9.031  0.3683  0.0016  0.6237
  100OSM   H14F10094   6.074   1.750   9.100 -1.8602  0.0321 -1.0711
  100OSM   H14G10095   6.235   1.782   9.016  1.6220  3.5647  0.1333
  100OSM   C15F10096   6.056   1.811   8.898  0.9361 -0.0252 -0.2470
  100OSM   H15F10097   6.104   1.892   8.837  0.0150  1.2843  0.7101
  100OSM   H15G10098   5.951   1.845   8.907  1.8237  2.3213  2.9644
  100OSM   C16F10099   6.053   1.675   8.824  0.0032  0.2134 -0.5155
  100OSM   H16F10100   6.138   1.609   8.852 -1.4002 -1.7351 -0.6345
  100OSM   H16G10101   6.077   1.696   8.718 -0.2807  2.1954 -0.2199
  100OSM   C17F10102   5.918   1.602   8.835  0.1706  0.5182 -0.2604
  100OSM   H17F10103   5.838   1.678   8.829 -0.7064 -0.4953 -2.8843
  100OSM   H17G10104   5.898   1.551   8.931 -1.7526  0.3093 -0.7359
  100OSM   C18F10105   5.906   1.506   8.712  0.3381 -0.3678  0.0962
  100OSM   H18F10106   5.991   1.436   8.692 -1.3818 -2.8151  0.8467
  100OSM   H18G10107   5.889   1.550   8.611 -0.6005 -0.6225  0.1317
  100OSM   H18H10108   5.816   1.440   8.715  0.3355 -0.3483  0.4430
  101OSM      N10109   1.738   0.517  10.992  0.2459  0.0098 -0.0984
  101OSM    C1510110   1.770   0.391  11.065  0.3607  0.4521 -0.0305
  101OSM   H15A10111   1.795   0.313  10.995 -1.0659  0.1536 -0.2396
  101OSM   H15B10112   1.681   0.359  11.118 -0.8477 -1.2319 -2.8276
  101OSM   H15C10113   1.856   0.406  11.128  0.2583  1.6630 -0.1397
  101OSM    C1410114   1.706   0.617  11.093  0.9208  0.7056 -0.5919
  101OSM   H14A10115   1.701   0.717  11.052 -2.5427  1.3426  1.0567
  101OSM   H14B10116   1.779   0.621  11.173 -0.5118  1.3774  0.7288
  101OSM   H14C10117   1.610   0.591  11.133  1.1215 -1.5022 -1.4139
  101OSM    C1310118   1.865   0.547  10.913 -0.5431 -0.5957 -0.4241
  101OSM   H13A10119   1.837   0.616  10.836  0.0849 -1.4641 -1.4587
  101OSM   H13B10120   1.888   0.460  10.853 -0.0873  0.1730 -1.3907
  101OSM   H13C10121   1.948   0.582  10.973 -0.7127  0.7689 -0.9657
  101OSM    C1210122   1.619   0.488  10.894  0.5220 -0.4632  0.7039
  101OSM   H12A10123   1.633   0.543  10.801 -2.2187  0.0687  0.5345
  101OSM   H12B10124   1.526   0.520  10.939  0.6126  1.4676 -0.3424
  101OSM    C1110125   1.599   0.347  10.854  0.5134  0.3337  0.0418
  101OSM   H11A10126   1.510   0.324  10.792  1.0497  1.2984 -1.1361
  101OSM   H11B10127   1.566   0.281  10.936  1.8455 -0.1590  0.2143
  101OSM      P10128   1.734   0.143  10.773 -0.2105  0.5876  0.1912
  101OSM    O1310129   1.874   0.132  10.729 -0.0395 -0.4092  0.0909
  101OSM    O1410130   1.700   0.076  10.904  0.1580  0.0974  0.4102
  101OSM    O1110131   1.639   0.088  10.671  0.5516 -0.1729 -0.2105
  101OSM    O1210132   1.709   0.293  10.778 -0.5881 -0.6646 -0.5159
  101OSM    C1S10133   1.626   0.146  10.538 -0.2501 -0.2508  1.0338
  101OSM    H1S10134   1.714   0.113  10.480 -1.8256 -0.1848 -1.5737
  101OSM    H1T10135   1.629   0.256  10.528 -0.8592 -0.3100  0.0530
  101OSM     NF10136   1.522   0.096  10.325  0.2688 -0.1248  0.2906
  101OSM    HNF10137   1.477   0.171  10.277  1.7824  1.7007  1.5928
  101OSM    C2S10138   1.502   0.090  10.470 -0.0012  0.3131  0.7180
  101OSM    H2S10139   1.510  -0.016  10.504  0.0659 -0.4463 -1.4923
  101OSM    C3S10140   1.370   0.152  10.526 -0.4010 -0.1512 -0.1218
  101OSM    H3S10141   1.394   0.260  10.538  0.5260  0.1124 -3.3918
  101OSM     O310142   1.337   0.095  10.648  0.5148 -0.2908  0.0453
  101OSM    HO310143   1.418   0.057  10.682 -0.1815 -0.9250  1.0231
  101OSM    C4S10144   1.256   0.129  10.433 -0.2126  0.2095  0.7063
  101OSM    H4S10145   1.226   0.024  10.425  1.0763 -0.1055 -0.3326
  101OSM    C5S10146   1.188   0.220  10.363  1.1785 -0.5251 -0.7945
  101OSM    H5S10147   1.199   0.328  10.381  3.2113 -0.9480  0.9535
  101OSM    C6S10148   1.073   0.191  10.265 -0.1759  0.4544 -0.3165
  101OSM    H6S10149   0.989   0.260  10.287  1.2852  2.1237  0.2858
  101OSM    H6T10150   1.037   0.086  10.274  0.4602  0.0793 -1.7757
  101OSM    C7S10151   1.138   0.207  10.125  0.1825 -1.0096  0.4592
  101OSM    H7S10152   1.224   0.138  10.107  0.4574 -0.4297 -0.5737
  101OSM    H7T10153   1.179   0.309  10.106 -1.2847 -0.7934 -2.0956
  101OSM    C8S10154   1.034   0.190  10.010  0.3801  1.0059 -0.5567
  101OSM    H8S10155   0.952   0.260  10.037  1.7114  1.3821  3.0431
  101OSM    H8T10156   0.991   0.088  10.017  0.5915  0.9824  0.6256
  101OSM    C9S10157   1.098   0.232   9.881 -0.4704  0.5023 -0.8596
  101OSM    H9S10158   1.184   0.168   9.851 -1.2826 -0.6009 -0.9150
  101OSM    H9T10159   1.140   0.335   9.888  0.1246  0.2034  0.1817
  101OSM   C10S10160   1.007   0.223   9.753 -0.1259 -0.2625  0.7331
  101OSM   H10S10161   0.924   0.295   9.747 -0.1280 -0.3893 -2.2594
  101OSM   H10T10162   0.947   0.129   9.756 -1.9106  0.6765 -1.9360
  101OSM   C11S10163   1.100   0.227   9.629  0.0557  0.2388  0.7002
  101OSM   H11S10164   1.186   0.157   9.642  0.5396  0.6659 -0.1410
  101OSM   H11T10165   1.142   0.330   9.622  0.2758  0.0665 -1.0458
  101OSM   C12S10166   1.038   0.205   9.492  0.0371  0.4265  0.3064
  101OSM   H12S10167   1.002   0.302   9.452 -0.8279  0.2610  0.6698
  101OSM   H12T10168   0.957   0.129   9.496  0.3758 -0.0573 -1.3639
  101OSM   C13S10169   1.135   0.135   9.394  0.1397 -0.2564  0.2788
  101OSM   H13S10170   1.182   0.039   9.424  1.6143  0.5130  0.5343
  101OSM   H13T10171   1.213   0.214   9.384  0.9467 -0.7478  2.1570
  101OSM   C14S10172   1.077   0.117   9.253  0.3127  0.1488  1.0438
  101OSM   H14S10173   1.019   0.208   9.227 -1.2930 -1.5874 -1.8821
  101OSM   H14T10174   1.003   0.034   9.253  0.3193  0.1433  0.8245
  101OSM   C15S10175   1.184   0.089   9.148 -0.5461  0.3517  0.6363
  101OSM   H15S10176   1.238  -0.005   9.169 -0.5323  0.3770  0.7164
  101OSM   H15T10177   1.257   0.174   9.153  0.4264 -0.0259 -3.5233
  101OSM   C16S10178   1.123   0.096   9.009 -0.1138 -0.3164 -0.0059
  101OSM   H16S10179   1.084   0.197   8.986 -2.8953 -1.7065 -1.9144
  101OSM   H16T10180   1.033   0.032   8.995  1.1621 -2.0339 -0.7451
  101OSM   C17S10181   1.227   0.062   8.898 -0.0182 -0.4159 -0.4415
  101OSM   H17S10182   1.162   0.041   8.811  2.0416 -0.5625 -2.0098
  101OSM   H17T10183   1.281  -0.027   8.935 -0.2781  0.1145  1.3194
  101OSM   C18S10184   1.308   0.182   8.849 -0.6546 -0.5504 -0.3543
  101OSM   H18S10185   1.372   0.156   8.762 -0.4045  0.6452 -0.5404
  101OSM   H18T10186   1.377   0.214   8.929 -0.4165  2.0516 -1.4935
  101OSM   H18U10187   1.238   0.268   8.836 -1.2439 -1.1098 -0.9887
  101OSM    C1F10188   1.606   0.020  10.262  0.2905 -0.3916 -0.6968
  101OSM     OF10189   1.682  -0.063  10.317  0.8859  0.2832 -1.0165
  101OSM    C2F10190   1.621   0.040  10.112  0.6301 -0.1681 -0.9470
  101OSM    H2F10191   1.712  -0.004  10.067 -0.0063  0.6671 -3.1429
  101OSM    H2G10192   1.627   0.149  10.095 -4.0596  0.7090  1.3239
  101OSM    C3F10193   1.496  -0.007  10.033  0.3918  0.0976 -0.2607
  101OSM    H3F10194   1.515   0.017   9.926  2.2604  0.3731  0.0992
  101OSM    H3G10195   1.404   0.039  10.075 -0.7023 -2.0361 -0.2065
  101OSM    C4F10196   1.487  -0.164  10.034 -0.6222  0.0100  0.1710
  101OSM    H4F10197   1.497  -0.194  10.140 -3.2743  1.9991  1.1182
  101OSM    H4G10198   1.568  -0.206   9.971  1.5634  0.2520  2.6716
  101OSM    C5F10199   1.351  -0.212   9.991  0.2573 -0.0376  0.0518
  101OSM    H5F10200   1.285  -0.183  10.076  2.2688  0.1551  1.6273
  101OSM    H5G10201   1.360  -0.322   9.987  0.9801 -0.0620  1.6866
  101OSM    C6F10202   1.305  -0.167   9.855  0.1509 -0.5251  1.1324
  101OSM    H6F10203   1.206  -0.205   9.822  1.0242 -1.4093 -0.6186
  101OSM    H6G10204   1.304  -0.057   9.846  1.4307 -0.6753 -2.0864
  101OSM    C7F10205   1.402  -0.192   9.736  0.2570  0.7082  0.3885
  101OSM    H7F10206   1.420  -0.301   9.726 -1.0440  0.5413 -0.3397
  101OSM    H7G10207   1.502  -0.146   9.755  0.7469  0.1849 -0.8264
  101OSM    C8F10208   1.337  -0.139   9.611  0.1581 -0.0739 -0.0814
  101OSM    H8F10209   1.291  -0.040   9.630 -1.1373 -0.8007  0.6447
  101OSM    H8G10210   1.258  -0.210   9.583  0.3321 -0.4649  0.4034
  101OSM    C9F10211   1.434  -0.126   9.496  0.2044 -0.5544  0.2825
  101OSM    H9F10212   1.465  -0.220   9.448 -0.7154 -0.1305 -1.2069
  101OSM   C10F10213   1.487  -0.005   9.462  0.1480 -0.4351 -0.4288
  101OSM   H10F10214   1.567   0.005   9.387  2.3602  0.1636  1.8785
  101OSM   C11F10215   1.459   0.127   9.535  0.4548  0.1638 -0.0304
  101OSM   H11F10216   1.453   0.106   9.643 -0.2044  0.4511 -0.0066
  101OSM   H11G10217   1.360   0.173   9.515  0.9262  1.4232  0.4088
  101OSM   C12F10218   1.574   0.233   9.530 -0.1428 -0.7568 -0.6901
  101OSM   H12F10219   1.670   0.180   9.545  0.1448  0.1612  0.9071
  101OSM   H12G10220   1.564   0.293   9.623  1.0062 -0.2710 -0.8706
  101OSM   C13F10221   1.572   0.317   9.404 -0.4116  0.4257 -0.6517
  101OSM   H13F10222   1.491   0.392   9.392 -1.6884 -1.0704 -1.7122
  101OSM   H13G10223   1.558   0.255   9.312  1.6200 -0.8906 -0.1414
  101OSM   C14F10224   1.704   0.390   9.372 -0.3262 -0.0028  0.2887
  101OSM   H14F10225   1.687   0.419   9.266 -1.1970 -4.6923 -1.0940
  101OSM   H14G10226   1.788   0.318   9.377 -0.6744 -0.3934  0.6142
  101OSM   C15F10227   1.731   0.516   9.454  0.8760 -0.0110 -0.4174
  101OSM   H15F10228   1.765   0.473   9.550 -1.4367 -3.0455 -0.7844
  101OSM   H15G10229   1.639   0.569   9.486  1.0056  0.2299 -0.4417
  101OSM   C16F10230   1.836   0.601   9.387 -0.4585 -0.0353 -0.0830
  101OSM   H16F10231   1.838   0.700   9.438  3.3695 -0.9788  2.0002
  101OSM   H16G10232   1.807   0.621   9.282  0.7133  0.9378 -0.2477
  101OSM   C17F10233   1.971   0.539   9.396 -0.7894 -0.5571 -0.0951
  101OSM   H17F10234   1.981   0.445   9.338  0.2468 -0.7201  0.3237
  101OSM   H17G10235   2.005   0.510   9.497  2.5817 -2.7907 -1.6695
  101OSM   C18F10236   2.076   0.640   9.333  0.4768 -0.2532  0.5914
  101OSM   H18F10237   2.043   0.737   9.376 -2.1276  0.0042 -1.6922
  101OSM   H18G10238   2.071   0.638   9.222 -3.0895 -2.1233  0.6283
  101OSM   H18H10239   2.175   0.602   9.365 -0.5303 -5.0851 -1.1135
  102OSM      N10240   3.986   2.885  11.172  0.0288 -0.2333 -0.5809
  102OSM    C1510241   4.008   3.013  11.251 -0.7381 -0.8209 -0.3380
  102OSM   H15A10242   4.105   3.058  11.236 -1.3794  0.0398 -2.2551
  102OSM   H15B10243   3.997   2.987  11.355 -1.3422 -0.7252 -0.3730
  102OSM   H15C10244   3.936   3.092  11.237  1.1010  0.9527 -0.2146
  102OSM    C1410245   3.968   2.912  11.030  0.6070 -0.0595 -0.7675
  102OSM   H14A10246   4.040   2.985  10.996 -0.6719  1.1266 -1.0434
  102OSM   H14B10247   3.872   2.960  11.013  0.8311  0.7599  0.1698
  102OSM   H14C10248   3.979   2.823  10.970  1.7350 -1.0145  0.7768
  102OSM    C1310249   4.109   2.802  11.199 -0.0027 -0.4179  1.0506
  102OSM   H13A10250   4.108   2.726  11.122 -0.9930  2.3323 -1.8512
  102OSM   H13B10251   4.104   2.764  11.301  1.4819  2.6848  2.4200
  102OSM   H13C10252   4.199   2.862  11.199  0.0569 -0.4771 -0.6570
  102OSM    C1210253   3.871   2.807  11.230 -0.2292  0.1904 -0.2645
  102OSM   H12A10254   3.785   2.866  11.204  0.5065  1.8808  0.9505
  102OSM   H12B10255   3.868   2.812  11.337 -0.4605 -0.8445 -0.2120
  102OSM    C1110256   3.845   2.666  11.193  0.4946  0.1248 -0.2668
  102OSM   H11A10257   3.762   2.628  11.257  1.1772  0.3809  0.8004
  102OSM   H11B10258   3.929   2.598  11.216  0.2326  0.0681  0.5808
  102OSM      P10259   3.686   2.644  10.980 -0.3242  0.2343 -0.2464
  102OSM    O1310260   3.667   2.526  10.898 -0.4132  0.3901  0.0687
  102OSM    O1410261   3.578   2.673  11.080  0.4080  0.2374  0.0925
  102OSM    O1110262   3.681   2.768  10.879  0.3192 -0.1210  0.3461
  102OSM    O1210263   3.823   2.651  11.050 -0.4826  0.2795  0.1719
  102OSM    C1S10264   3.751   2.782  10.756  0.2576 -0.4125 -0.1289
  102OSM    H1S10265   3.842   2.719  10.771 -0.3558 -1.0861  0.8742
  102OSM    H1T10266   3.792   2.885  10.756  0.4938 -0.4938  0.7529
  102OSM     NF10267   3.774   2.743  10.510 -0.7087 -0.0744 -0.1063
  102OSM    HNF10268   3.760   2.821  10.449  0.6448  0.2178 -0.0747
  102OSM    C2S10269   3.682   2.720  10.629 -0.1503 -0.0176 -0.2755
  102OSM    H2S10270   3.667   2.613  10.654  1.0510  0.0582  0.9084
  102OSM    C3S10271   3.548   2.799  10.612  0.3077  0.1437 -0.0451
  102OSM    H3S10272   3.571   2.906  10.593 -3.6144  0.7705 -2.3428
  102OSM     O310273   3.463   2.786  10.723  0.1410  0.2130  0.3156
  102OSM    HO310274   3.520   2.765  10.797 -1.2810 -1.7746  0.9446
  102OSM    C4S10275   3.479   2.744  10.488 -0.2475 -0.1872 -0.8241
  102OSM    H4S10276   3.519   2.797  10.400 -1.7471  1.3548 -0.6446
  102OSM    C5S10277   3.376   2.653  10.481  0.0621  0.1899 -0.1558
  102OSM    H5S10278   3.359   2.600  10.576  1.9182 -0.7785 -0.3159
  102OSM    C6S10279   3.307   2.612  10.354 -0.4654  0.2688  0.2426
  102OSM    H6S10280   3.198   2.627  10.367 -0.4011  1.0317 -0.0833
  102OSM    H6T10281   3.322   2.504  10.332 -0.3274  0.3677 -0.1453
  102OSM    C7S10282   3.344   2.681  10.222  0.6265  0.3481  0.1317
  102OSM    H7S10283   3.453   2.684  10.205  0.5341  1.3988 -0.3583
  102OSM    H7T10284   3.316   2.788  10.234  0.5840  0.4161 -0.5660
  102OSM    C8S10285   3.269   2.635  10.097 -0.0975  0.3656 -0.0432
  102OSM    H8S10286   3.158   2.638  10.107 -0.1215 -2.9146  2.0488
  102OSM    H8T10287   3.291   2.526  10.090  0.3186  0.4699 -0.3788
  102OSM    C9S10288   3.308   2.716   9.969 -0.3156  0.0846 -0.1754
  102OSM    H9S10289   3.415   2.704   9.944 -0.3359 -0.8791  0.1489
  102OSM    H9T10290   3.296   2.825   9.987 -0.6602  0.5215 -2.6770
  102OSM   C10S10291   3.220   2.679   9.844 -0.2103 -0.1280 -0.5521
  102OSM   H10S10292   3.123   2.731   9.859 -0.5090 -1.2556  1.9473
  102OSM   H10T10293   3.201   2.570   9.848  1.4728 -0.5580 -2.5190
  102OSM   C11S10294   3.288   2.707   9.710 -0.6994 -0.2005  0.6721
  102OSM   H11S10295   3.372   2.634   9.698  0.4071  0.8674  1.5813
  102OSM   H11T10296   3.339   2.806   9.720  0.3119 -0.4924 -1.1381
  102OSM   C12S10297   3.203   2.723   9.584  0.8211 -0.6423  0.2901
  102OSM   H12S10298   3.134   2.807   9.610  0.9244 -0.2503 -0.6565
  102OSM   H12T10299   3.145   2.633   9.554 -0.8257  0.3718  0.2953
  102OSM   C13S10300   3.281   2.771   9.462  0.3975 -0.3186  0.5964
  102OSM   H13S10301   3.360   2.695   9.443  1.0560  0.5451 -0.1963
  102OSM   H13T10302   3.338   2.865   9.477 -1.2964  0.3908  3.5607
  102OSM   C14S10303   3.191   2.776   9.334 -0.6992 -0.3733 -0.3474
  102OSM   H14S10304   3.120   2.861   9.330 -0.2160  0.0066 -1.2999
  102OSM   H14T10305   3.127   2.685   9.325 -0.7930 -0.4941  1.1770
  102OSM   C15S10306   3.280   2.799   9.209  0.2025  1.0090 -0.5046
  102OSM   H15S10307   3.360   2.723   9.224  0.5012  1.6122  1.0934
  102OSM   H15T10308   3.332   2.897   9.218  2.0370 -0.1254  3.2388
  102OSM   C16S10309   3.202   2.777   9.082  0.5370 -0.3315 -0.2067
  102OSM   H16S10310   3.108   2.835   9.072  1.1195  0.4109 -1.7798
  102OSM   H16T10311   3.184   2.669   9.067 -1.1214  0.2962 -3.8038
  102OSM   C17S10312   3.278   2.828   8.959 -0.4036 -0.0016  0.2246
  102OSM   H17S10313   3.376   2.782   8.936 -0.6402 -0.2110 -0.3941
  102OSM   H17T10314   3.305   2.936   8.963 -0.2609  0.1032 -2.0425
  102OSM   C18S10315   3.191   2.810   8.836  0.5476 -0.5301 -0.6609
  102OSM   H18S10316   3.172   2.707   8.798 -0.2273 -0.2560 -1.0423
  102OSM   H18T10317   3.225   2.882   8.758 -0.6410  0.7370 -0.0635
  102OSM   H18U10318   3.086   2.840   8.854 -0.1550 -2.8077 -0.6343
  102OSM    C1F10319   3.876   2.660  10.488  0.5819 -1.2166 -0.3332
  102OSM     OF10320   3.891   2.557  10.546  0.4238  0.1475  0.1013
  102OSM    C2F10321   3.973   2.689  10.380 -0.1714 -1.1415  0.0335
  102OSM    H2F10322   4.010   2.793  10.390  0.6234 -1.4566  0.4532
  102OSM    H2G10323   3.925   2.673  10.281 -0.0171  0.5758 -0.3463
  102OSM    C3F10324   4.101   2.601  10.392 -0.1651  0.0723 -0.1269
  102OSM    H3F10325   4.100   2.491  10.403  0.2782  0.0792 -0.0035
  102OSM    H3G10326   4.138   2.629  10.493 -2.1458 -1.0201  0.9581
  102OSM    C4F10327   4.207   2.626  10.287  0.0035 -0.1836  0.1156
  102OSM    H4F10328   4.308   2.649  10.325 -0.6258  3.6796 -0.1647
  102OSM    H4G10329   4.179   2.723  10.240  1.0453 -0.2793 -0.7462
  102OSM    C5F10330   4.215   2.520  10.179  0.1154 -0.3428 -0.3524
  102OSM    H5F10331   4.124   2.477  10.132 -0.1924  1.1783 -1.2059
  102OSM    H5G10332   4.272   2.436  10.224  0.7771 -0.2086 -0.9156
  102OSM    C6F10333   4.286   2.560  10.049  0.2463 -0.4184  0.2664
  102OSM    H6F10334   4.326   2.469  10.000  0.1254 -2.2073  3.2792
  102OSM    H6G10335   4.370   2.629  10.072  0.3293  0.2557 -1.8273
  102OSM    C7F10336   4.187   2.634   9.958  0.4160 -0.0110 -0.0135
  102OSM    H7F10337   4.164   2.727  10.016 -0.6164  0.5164 -1.2243
  102OSM    H7G10338   4.095   2.577   9.936  0.4434  0.1518 -0.5749
  102OSM    C8F10339   4.247   2.697   9.825 -0.3073 -0.5541 -0.2070
  102OSM    H8F10340   4.289   2.607   9.776 -0.1623 -1.1828  1.0114
  102OSM    H8G10341   4.327   2.773   9.838  1.1583 -2.0447 -0.2217
  102OSM    C9F10342   4.136   2.760   9.739  0.1488  0.0949 -0.0167
  102OSM    H9F10343   4.070   2.813   9.809 -0.9125  0.1228 -1.0161
  102OSM   C10F10344   4.109   2.748   9.614  0.1017 -0.0571  0.1585
  102OSM   H10F10345   4.022   2.798   9.568 -1.6023 -4.3256 -1.7516
  102OSM   C11F10346   4.192   2.667   9.514 -0.2974  0.8294 -0.2311
  102OSM   H11F10347   4.134   2.573   9.499 -0.6024  1.2542 -1.8974
  102OSM   H11G10348   4.297   2.643   9.542 -0.7699 -1.2272 -0.0151
  102OSM   C12F10349   4.182   2.745   9.384  0.6904 -0.3749  0.2765
  102OSM   H12F10350   4.079   2.786   9.373  0.6657 -0.9951 -3.1273
  102OSM   H12G10351   4.215   2.682   9.299 -0.3439 -0.1216 -0.3374
  102OSM   C13F10352   4.275   2.869   9.384 -0.6901  0.3189  0.2538
  102OSM   H13F10353   4.379   2.848   9.418 -0.2718  2.2893  0.2839
  102OSM   H13G10354   4.241   2.941   9.461  0.6231  1.9672 -0.6320
  102OSM   C14F10355   4.307   2.946   9.253 -0.8350  0.3484 -0.1080
  102OSM   H14F10356   4.344   2.868   9.183 -1.9220 -1.2507  1.0049
  102OSM   H14G10357   4.388   3.020   9.263 -1.1615  0.7569 -0.4606
  102OSM   C15F10358   4.187   3.011   9.188  1.2816  0.2479 -0.3144
  102OSM   H15F10359   4.147   3.080   9.266  0.7596  1.8128 -1.9014
  102OSM   H15G10360   4.106   2.935   9.183  2.0450 -0.5787 -0.1799
  102OSM   C16F10361   4.208   3.075   9.047 -0.1992 -0.1351 -0.0439
  102OSM   H16F10362   4.244   2.990   8.985 -0.6249 -0.9634  0.8261
  102OSM   H16G10363   4.286   3.154   9.056  1.0440 -1.4576  1.1808
  102OSM   C17F10364   4.082   3.134   8.987  0.2345  0.2635  0.4479
  102OSM   H17F10365   4.081   3.243   9.007  0.2934 -0.1996  3.4163
  102OSM   H17G10366   3.997   3.092   9.045 -0.0300  0.1898  0.0167
  102OSM   C18F10367   4.070   3.095   8.841 -0.6741  0.1814  0.8674
  102OSM   H18F10368   4.080   2.986   8.826  0.5551  0.0940  2.1824
  102OSM   H18G10369   4.158   3.137   8.788 -0.9802 -0.2731 -0.0146
  102OSM   H18H10370   3.984   3.140   8.786  0.3741  0.2636 -0.8005
  103OSM      N10371   1.097   6.553  10.966 -0.1308  0.3850  0.4372
  103OSM    C1510372   1.039   6.683  10.944  0.3723  0.5851 -0.1879
  103OSM   H15A10373   0.992   6.688  10.847  0.1266 -0.1139 -0.1066
  103OSM   H15B10374   1.115   6.760  10.939  0.3294  0.6232 -0.2643
  103OSM   H15C10375   0.969   6.716  11.020 -0.9709  0.3724 -1.3040
  103OSM    C1410376   1.190   6.560  11.078  0.4286 -0.1105  0.1350
  103OSM   H14A10377   1.216   6.458  11.102  0.9046 -0.2228 -0.7864
  103OSM   H14B10378   1.149   6.620  11.158 -1.1675  0.6098 -1.1533
  103OSM   H14C10379   1.278   6.612  11.042  1.2153 -1.8181 -0.5297
  103OSM    C1310380   0.987   6.454  10.994  0.5029 -0.0602  0.0095
  103OSM   H13A10381   1.038   6.361  11.015  0.8999  0.3167  0.7562
  103OSM   H13B10382   0.922   6.435  10.910  0.3092 -0.2584  0.2047
  103OSM   H13C10383   0.932   6.485  11.081  0.3349  1.5251 -0.6217
  103OSM    C1210384   1.181   6.506  10.839  0.3404 -0.0818 -0.2139
  103OSM   H12A10385   1.107   6.499  10.761 -0.6797 -0.4089  0.7663
  103OSM   H12B10386   1.217   6.406  10.859 -0.9315 -0.3481  0.8441
  103OSM    C1110387   1.298   6.602  10.794 -0.1189  1.0737 -0.3552
  103OSM   H11A10388   1.252   6.700  10.770  0.6423  1.3139 -0.8851
  103OSM   H11B10389   1.338   6.559  10.700  1.7072 -0.8678  1.1905
  103OSM      P10390   1.498   6.484  10.905  0.1378 -0.1951  0.2868
  103OSM    O1310391   1.613   6.518  10.988  0.4107 -1.1282 -0.6897
  103OSM    O1410392   1.401   6.385  10.962  0.4223 -0.4240 -0.3516
  103OSM    O1110393   1.539   6.440  10.759 -0.0302  0.1500 -0.3830
  103OSM    O1210394   1.405   6.615  10.885 -0.1454  0.0708  0.2002
  103OSM    C1S10395   1.626   6.525  10.685  0.1142 -0.4964 -0.5069
  103OSM    H1S10396   1.729   6.533  10.728  0.1009 -2.5108  0.0024
  103OSM    H1T10397   1.576   6.623  10.676 -2.7468 -1.6131  1.7303
  103OSM     NF10398   1.743   6.544  10.477 -0.0687 -0.0550 -0.1715
  103OSM    HNF10399   1.720   6.606  10.402  1.5382 -1.0414 -1.5494
  103OSM    C2S10400   1.644   6.468  10.543 -0.2882  0.4003  0.0296
  103OSM    H2S10401   1.670   6.360  10.556  2.0022  0.8831 -0.0167
  103OSM    C3S10402   1.509   6.467  10.458 -0.3547 -0.0869  0.0962
  103OSM    H3S10403   1.482   6.574  10.444  0.1311 -0.1409 -1.4293
  103OSM     O310404   1.389   6.409  10.516  0.1751 -0.4872  0.2910
  103OSM    HO310405   1.417   6.404  10.608  0.8615 -1.2929  0.0536
  103OSM    C4S10406   1.539   6.410  10.322  0.0379 -0.2508 -0.7715
  103OSM    H4S10407   1.591   6.481  10.256  0.3306 -0.4567 -0.7663
  103OSM    C5S10408   1.490   6.291  10.269 -0.4034 -0.4645 -0.2630
  103OSM    H5S10409   1.414   6.235  10.326 -0.6196 -0.1208 -0.2165
  103OSM    C6S10410   1.519   6.231  10.130 -0.7991 -0.0791 -0.3233
  103OSM    H6S10411   1.426   6.243  10.072 -1.7708 -1.8667  0.7513
  103OSM    H6T10412   1.534   6.123  10.153  0.5135  0.2960  0.7904
  103OSM    C7S10413   1.653   6.297  10.064  1.0124  1.1311 -0.5683
  103OSM    H7S10414   1.741   6.263  10.123  0.5906  0.0440 -0.5412
  103OSM    H7T10415   1.653   6.406  10.086 -0.2570  1.1695 -0.6688
  103OSM    C8S10416   1.681   6.263   9.921  0.5431 -0.1016  0.3086
  103OSM    H8S10417   1.697   6.153   9.916 -0.9981 -0.3559  0.5382
  103OSM    H8T10418   1.784   6.299   9.903  0.1254  0.5688 -0.8350
  103OSM    C9S10419   1.586   6.319   9.820 -0.0262  0.9966  0.1818
  103OSM    H9S10420   1.553   6.423   9.841 -1.2373  1.0475 -1.6853
  103OSM    H9T10421   1.491   6.263   9.832  1.3948 -1.5802  0.0454
  103OSM   C10S10422   1.638   6.305   9.671 -0.5672  0.1757 -0.0942
  103OSM   H10S10423   1.695   6.210   9.675 -0.2393  0.3595 -0.3598
  103OSM   H10T10424   1.719   6.381   9.663  0.7562 -1.1930 -0.2264
  103OSM   C11S10425   1.544   6.304   9.557 -0.3628 -0.4406 -0.2753
  103OSM   H11S10426   1.478   6.393   9.550 -0.0952 -0.0220  1.8644
  103OSM   H11T10427   1.485   6.213   9.582  1.1646 -0.8691  2.1242
  103OSM   C12S10428   1.613   6.286   9.425 -0.0908 -0.2319 -0.6265
  103OSM   H12S10429   1.528   6.273   9.355 -0.9936 -0.5213  0.4996
  103OSM   H12T10430   1.667   6.188   9.417  1.0730  0.2962  0.4634
  103OSM   C13S10431   1.698   6.404   9.391 -0.7120  0.3081 -0.2570
  103OSM   H13S10432   1.772   6.426   9.471 -0.5317 -0.7959 -0.1131
  103OSM   H13T10433   1.631   6.490   9.369  0.0651  0.5977 -1.5558
  103OSM   C14S10434   1.798   6.386   9.275 -0.3174 -0.3853  0.4856
  103OSM   H14S10435   1.747   6.375   9.177 -2.0644 -0.1593  1.3275
  103OSM   H14T10436   1.876   6.310   9.296  0.5953  0.1085 -0.9322
  103OSM   C15S10437   1.889   6.507   9.260 -0.6016 -0.2098 -1.1116
  103OSM   H15S10438   1.962   6.480   9.181 -0.0538  0.1437 -0.7334
  103OSM   H15T10439   1.940   6.519   9.358 -2.0885 -0.7417 -0.2444
  103OSM   C16S10440   1.820   6.630   9.198  0.2657 -0.1212 -0.3603
  103OSM   H16S10441   1.728   6.645   9.259 -0.5118 -2.0804 -0.9817
  103OSM   H16T10442   1.786   6.616   9.093  0.8439 -0.0798 -0.5574
  103OSM   C17S10443   1.911   6.749   9.194 -0.3077 -1.0964 -0.4890
  103OSM   H17S10444   2.004   6.720   9.140 -0.3298 -1.2646 -0.4370
  103OSM   H17T10445   1.936   6.785   9.296  3.1656  0.5067 -1.7176
  103OSM   C18S10446   1.855   6.873   9.111 -0.2247  0.8672  0.3910
  103OSM   H18S10447   1.821   6.843   9.010 -1.4981 -2.8430  1.7614
  103OSM   H18T10448   1.923   6.961   9.118 -0.0535  0.7763 -0.1455
  103OSM   H18U10449   1.759   6.900   9.161 -0.9540 -1.1277  0.1650
  103OSM    C1F10450   1.872   6.540  10.510 -0.4813  0.4489  0.1789
  103OSM     OF10451   1.909   6.460  10.594 -0.0983 -0.0279  0.5547
  103OSM    C2F10452   1.972   6.623  10.440 -0.2606 -0.4491 -0.2801
  103OSM    H2F10453   2.043   6.658  10.518 -0.8205  0.1088 -0.0061
  103OSM    H2G10454   1.926   6.705  10.381 -0.1883  0.2360  0.6009
  103OSM    C3F10455   2.040   6.548  10.334  1.0547  0.4953  0.1213
  103OSM    H3F10456   2.037   6.437  10.341  0.0998  0.5747  1.6774
  103OSM    H3G10457   2.144   6.585  10.326  2.3765 -2.6222  1.4261
  103OSM    C4F10458   1.984   6.568  10.187 -0.0234 -0.1124  0.1395
  103OSM    H4F10459   2.003   6.677  10.174  1.6212 -0.2730  1.0309
  103OSM    H4G10460   1.874   6.557  10.188 -0.3433  2.5553  0.7648
  103OSM    C5F10461   2.053   6.490  10.078  0.0664 -0.8147 -0.9449
  103OSM    H5F10462   2.053   6.383  10.109 -1.4714 -0.7912 -0.7728
  103OSM    H5G10463   2.157   6.527  10.072 -0.1472 -0.3134 -1.6862
  103OSM    C6F10464   1.988   6.523   9.946  0.2576  0.1803  0.1943
  103OSM    H6F10465   1.983   6.634   9.936  0.5183  0.1049 -0.7747
  103OSM    H6G10466   1.885   6.481   9.953  0.2155 -0.0775 -1.6767
  103OSM    C7F10467   2.058   6.460   9.829 -0.4060 -0.1582  0.9341
  103OSM    H7F10468   2.065   6.350   9.842  2.1014 -0.1843 -0.0465
  103OSM    H7G10469   2.162   6.500   9.828  0.1132 -1.3863 -1.2474
  103OSM    C8F10470   1.989   6.486   9.690  0.7109 -0.2106  0.2131
  103OSM    H8F10471   1.880   6.476   9.709  0.3391  1.4948 -0.8222
  103OSM    H8G10472   2.011   6.397   9.627 -1.7388 -1.3887  0.9031
  103OSM    C9F10473   2.042   6.610   9.632  0.7889 -0.0144 -0.1380
  103OSM    H9F10474   2.151   6.622   9.630  0.9504 -1.2120  0.4493
  103OSM   C10F10475   1.977   6.715   9.586 -0.5119  0.0462 -0.0303
  103OSM   H10F10476   2.035   6.782   9.520  0.3525 -0.4241  0.2423
  103OSM   C11F10477   1.828   6.740   9.592  0.1817  0.2498 -0.1399
  103OSM   H11F10478   1.789   6.640   9.561 -1.9310  0.9047  0.2189
  103OSM   H11G10479   1.795   6.816   9.518  1.8113  1.7257  0.6096
  103OSM   C12F10480   1.792   6.786   9.734  0.1201 -0.1348 -0.0632
  103OSM   H12F10481   1.786   6.699   9.803  0.4943  2.2342  3.1939
  103OSM   H12G10482   1.685   6.818   9.744  0.3545  0.4300  0.8383
  103OSM   C13F10483   1.877   6.899   9.805 -0.1506  0.5930 -0.3516
  103OSM   H13F10484   1.979   6.861   9.829  0.2168  1.1378 -1.0066
  103OSM   H13G10485   1.822   6.926   9.897 -1.4149 -0.4922 -0.7665
  103OSM   C14F10486   1.900   7.034   9.729 -1.1986  0.4716 -0.5035
  103OSM   H14F10487   1.807   7.086   9.701 -0.0980  2.4957 -0.5968
  103OSM   H14G10488   1.963   7.020   9.638 -0.9191 -1.9840 -0.0098
  103OSM   C15F10489   1.964   7.139   9.824 -0.2078  0.3510  0.0070
  103OSM   H15F10490   2.017   7.212   9.759 -0.7612 -0.5266 -1.5004
  103OSM   H15G10491   2.044   7.086   9.880 -1.2530  0.5047  1.6797
  103OSM   C16F10492   1.871   7.199   9.942 -0.4839 -0.0085 -0.1950
  103OSM   H16F10493   1.932   7.250  10.020 -1.7689  1.0425  0.1624
  103OSM   H16G10494   1.845   7.106   9.997  1.3231 -0.6970 -0.4537
  103OSM   C17F10495   1.745   7.272   9.912  0.0686 -0.1213 -0.2191
  103OSM   H17F10496   1.691   7.287  10.007 -0.4185  0.2324 -0.5473
  103OSM   H17G10497   1.670   7.210   9.858 -0.0232 -0.6432  0.4971
  103OSM   C18F10498   1.771   7.396   9.834  0.1742 -0.8725 -0.2016
  103OSM   H18F10499   1.806   7.477   9.901 -1.1911 -1.0228  0.7280
  103OSM   H18G10500   1.683   7.442   9.785 -1.3312 -2.4024  0.9491
  103OSM   H18H10501   1.852   7.379   9.760  2.6593  1.3683  1.7710
  104OSM      N10502   2.453   3.411  11.104 -0.2522 -0.0704 -0.6534
  104OSM    C1510503   2.539   3.298  11.166  0.5414 -0.1884  0.0112
  104OSM   H15A10504   2.520   3.298  11.272  1.3815  0.9306  0.1887
  104OSM   H15B10505   2.646   3.312  11.156  0.2347  0.6874 -2.8374
  104OSM   H15C10506   2.524   3.202  11.119  0.0422  0.1984 -0.6352
  104OSM    C1410507   2.313   3.410  11.163 -0.0653  0.1569  0.2410
  104OSM   H14A10508   2.312   3.413  11.271  0.2794  3.2044  0.2489
  104OSM   H14B10509   2.248   3.332  11.126  1.3286 -0.0103 -2.0599
  104OSM   H14C10510   2.267   3.501  11.126 -1.7279 -0.8440 -0.2594
  104OSM    C1310511   2.525   3.540  11.147  0.1511 -0.2320 -0.4345
  104OSM   H13A10512   2.626   3.540  11.109  0.2211 -0.3477 -0.2515
  104OSM   H13B10513   2.526   3.552  11.254 -0.9500 -1.0174 -0.3112
  104OSM   H13C10514   2.483   3.631  11.107  0.2566  0.5961  1.2291
  104OSM    C1210515   2.461   3.413  10.950  0.9887 -0.4341  0.0999
  104OSM   H12A10516   2.445   3.313  10.912  2.5555 -0.1764 -1.3420
  104OSM   H12B10517   2.564   3.432  10.922  0.7766 -1.3873 -1.4395
  104OSM    C1110518   2.375   3.509  10.875  0.9564 -0.4715  0.8166
  104OSM   H11A10519   2.268   3.486  10.894  0.6370  0.4929  0.2543
  104OSM   H11B10520   2.384   3.499  10.764  0.3852 -0.7140  0.7889
  104OSM      P10521   2.538   3.713  10.838 -0.0857  0.4075  0.0784
  104OSM    O1310522   2.549   3.850  10.885 -0.5377 -1.2324 -0.4862
  104OSM    O1410523   2.652   3.620  10.851  0.1867  0.0651 -0.3335
  104OSM    O1110524   2.502   3.718  10.682 -0.2491 -0.3852  0.0058
  104OSM    O1210525   2.410   3.650  10.903  0.4638  0.3144 -0.4162
  104OSM    C1S10526   2.406   3.814  10.633  0.1613  0.0521  0.7202
  104OSM    H1S10527   2.424   3.916  10.672 -2.0147  0.2772  1.2921
  104OSM    H1T10528   2.299   3.798  10.658 -0.3871  2.7058  0.3628
  104OSM     NF10529   2.322   3.936  10.441 -0.2418 -0.2500 -0.1620
  104OSM    HNF10530   2.229   3.899  10.435 -0.5410  0.6055 -1.0633
  104OSM    C2S10531   2.422   3.836  10.481 -0.5194 -0.0319  0.4649
  104OSM    H2S10532   2.521   3.878  10.452 -0.9021 -0.1702 -1.1146
  104OSM    C3S10533   2.408   3.704  10.403 -0.3464  0.8864 -0.2088
  104OSM    H3S10534   2.301   3.679  10.415 -0.3829  0.5780 -1.0708
  104OSM     O310535   2.484   3.593  10.452  0.2807  0.3474 -0.1816
  104OSM    HO310536   2.515   3.625  10.537  1.0297 -1.2616  0.1836
  104OSM    C4S10537   2.413   3.725  10.254  0.9814  0.0498  0.4310
  104OSM    H4S10538   2.327   3.778  10.209  1.5904 -1.3587 -2.6547
  104OSM    C5S10539   2.520   3.704  10.180 -0.3940  0.5353 -0.3405
  104OSM    H5S10540   2.612   3.674  10.231 -0.0491  0.1885 -1.1532
  104OSM    C6S10541   2.532   3.735  10.033 -0.7735 -0.2291  0.2025
  104OSM    H6S10542   2.638   3.737   9.999 -0.7209  1.4887  0.4260
  104OSM    H6T10543   2.491   3.836  10.015 -1.3798 -0.3117  1.0490
  104OSM    C7S10544   2.466   3.628   9.954  0.0439 -0.4792  0.8135
  104OSM    H7S10545   2.356   3.641   9.959 -0.2296 -1.6114 -1.0765
  104OSM    H7T10546   2.500   3.529   9.991 -1.4270 -1.6637 -0.7941
  104OSM    C8S10547   2.509   3.646   9.810  1.0314 -0.0890  0.7927
  104OSM    H8S10548   2.481   3.564   9.740  1.9398 -0.9838  1.4522
  104OSM    H8T10549   2.619   3.652   9.814  1.1603 -2.1393  1.9615
  104OSM    C9S10550   2.432   3.761   9.747  0.2839  0.5766  1.0767
  104OSM    H9S10551   2.444   3.853   9.809  0.2778  1.3457 -0.0296
  104OSM    H9T10552   2.326   3.730   9.748  0.7963 -1.3519  2.2227
  104OSM   C10S10553   2.486   3.805   9.601 -0.2449  0.6849 -0.5902
  104OSM   H10S10554   2.407   3.868   9.555  1.0796  2.1896 -0.9276
  104OSM   H10T10555   2.518   3.714   9.547  3.1601  1.6043 -0.4090
  104OSM   C11S10556   2.603   3.902   9.613  0.4463 -0.2754 -0.4439
  104OSM   H11S10557   2.683   3.849   9.668  0.0157 -1.0281 -0.5378
  104OSM   H11T10558   2.574   3.994   9.668 -2.8269 -1.6845  0.4051
  104OSM   C12S10559   2.673   3.929   9.482 -0.0867  0.2155  0.0699
  104OSM   H12S10560   2.678   3.833   9.426  3.0446  1.1705 -1.5557
  104OSM   H12T10561   2.783   3.945   9.495  0.1429  0.2964 -1.7492
  104OSM   C13S10562   2.622   4.040   9.394  0.1728 -0.7081  0.8507
  104OSM   H13S10563   2.685   4.051   9.304 -0.6764  0.2496  0.3489
  104OSM   H13T10564   2.621   4.133   9.456  1.3387 -0.1442  0.0677
  104OSM   C14S10565   2.472   4.031   9.342  0.0313  0.0612 -0.3632
  104OSM   H14S10566   2.409   4.040   9.433  0.6778 -1.0561  0.2276
  104OSM   H14T10567   2.468   3.925   9.307  0.2476 -0.8584  2.1635
  104OSM   C15S10568   2.436   4.132   9.223  0.4026 -0.1406  0.0515
  104OSM   H15S10569   2.341   4.099   9.175 -0.8607  0.8938  1.7448
  104OSM   H15T10570   2.510   4.138   9.140 -1.0616  1.4578 -1.2259
  104OSM   C16S10571   2.413   4.276   9.277  0.2484  0.0553 -0.6739
  104OSM   H16S10572   2.499   4.318   9.333 -0.6045  1.6960 -0.5355
  104OSM   H16T10573   2.332   4.273   9.353 -0.6048 -0.1136 -1.5662
  104OSM   C17S10574   2.374   4.374   9.167  0.3325 -0.2144  0.9549
  104OSM   H17S10575   2.437   4.359   9.077  0.0454  1.5578  0.4066
  104OSM   H17T10576   2.418   4.471   9.200  3.3021 -1.4640  1.0215
  104OSM   C18S10577   2.224   4.381   9.124  0.0700  0.7107  0.4777
  104OSM   H18S10578   2.175   4.401   9.222 -1.1711  2.2650 -0.4190
  104OSM   H18T10579   2.196   4.283   9.080  1.1572  1.1499 -1.3080
  104OSM   H18U10580   2.204   4.464   9.053  2.0168  0.3166 -0.6044
  104OSM    C1F10581   2.344   4.064  10.450  0.6032 -0.5080  1.2480
  104OSM     OF10582   2.448   4.109  10.498  0.7566  0.4949 -0.2685
  104OSM    C2F10583   2.233   4.157  10.405  0.4183 -0.0514  0.2790
  104OSM    H2F10584   2.249   4.252  10.461  1.2007 -0.5168  0.8695
  104OSM    H2G10585   2.133   4.115  10.428  0.0161 -0.1367 -1.5167
  104OSM    C3F10586   2.253   4.201  10.256  0.5415 -0.5241 -0.1738
  104OSM    H3F10587   2.350   4.251  10.238  0.6378 -0.4785  0.4564
  104OSM    H3G10588   2.174   4.277  10.240 -2.2462 -3.2459 -0.3658
  104OSM    C4F10589   2.242   4.094  10.150  0.2377 -0.1525  0.5616
  104OSM    H4F10590   2.324   4.020  10.161 -0.0403 -0.4834  0.4344
  104OSM    H4G10591   2.257   4.143  10.051 -0.0637  0.0070  0.5908
  104OSM    C5F10592   2.098   4.026  10.139  0.1901  0.7690  0.1912
  104OSM    H5F10593   2.039   4.075  10.220  2.1993  0.6096  1.8439
  104OSM    H5G10594   2.099   3.918  10.165 -2.6623  0.9620  1.4475
  104OSM    C6F10595   2.020   4.050  10.007 -0.2645  0.4370  0.7142
  104OSM    H6F10596   2.011   4.159   9.988  2.7983  0.5202 -1.0839
  104OSM    H6G10597   1.919   4.005  10.018  0.2558 -0.5820  1.6180
  104OSM    C7F10598   2.086   3.974   9.888  0.3949  0.2318 -0.3948
  104OSM    H7F10599   2.094   3.867   9.917  3.0445  0.6754  0.7424
  104OSM    H7G10600   2.194   3.995   9.875  0.1558  2.2705  0.4738
  104OSM    C8F10601   2.020   3.991   9.745  0.6148  0.5727  0.3652
  104OSM    H8F10602   1.995   4.099   9.734 -0.7641  0.4254  1.6643
  104OSM    H8G10603   1.920   3.943   9.744  0.3402  1.0285 -2.6427
  104OSM    C9F10604   2.107   3.935   9.630 -0.2119 -0.8929 -0.5123
  104OSM    H9F10605   2.164   3.843   9.653  1.0783  0.5872  3.0038
  104OSM   C10F10606   2.121   3.987   9.511 -0.5836  0.3077  0.5064
  104OSM   H10F10607   2.184   3.927   9.444 -0.2676  1.4012 -0.1873
  104OSM   C11F10608   2.045   4.101   9.441  0.2591 -0.2782  0.2983
  104OSM   H11F10609   2.111   4.181   9.400 -1.3132  0.7769 -0.2389
  104OSM   H11G10610   1.979   4.144   9.518  0.2190 -1.5964  1.0342
  104OSM   C12F10611   1.964   4.052   9.318 -0.8016  0.0271  0.1590
  104OSM   H12F10612   1.935   4.137   9.252 -0.0823  0.3993  0.3122
  104OSM   H12G10613   1.881   3.985   9.348 -0.6166 -0.9277 -1.3625
  104OSM   C13F10614   2.051   3.963   9.214  0.8869  0.4996  0.1100
  104OSM   H13F10615   2.064   3.862   9.258  2.7319 -0.2398 -1.9965
  104OSM   H13G10616   2.154   4.001   9.199  0.9162  0.1418 -0.6333
  104OSM   C14F10617   1.988   3.936   9.076  0.2542 -0.1080 -0.3370
  104OSM   H14F10618   1.878   3.924   9.074  0.3204 -0.7384 -0.1883
  104OSM   H14G10619   2.034   3.841   9.043 -0.6146 -0.3602 -0.8458
  104OSM   C15F10620   2.011   4.043   8.961 -0.1767  0.2443  0.4701
  104OSM   H15F10621   2.112   4.088   8.972 -0.1979  0.4916 -0.2568
  104OSM   H15G10622   1.944   4.130   8.977 -0.8970  0.0971 -1.4528
  104OSM   C16F10623   1.983   3.989   8.824 -0.0084 -0.8558  0.3046
  104OSM   H16F10624   1.876   3.960   8.823  0.3334 -2.3567 -2.0366
  104OSM   H16G10625   2.049   3.902   8.804 -1.5863 -2.7517  2.8406
  104OSM   C17F10626   1.983   4.089   8.706  0.3137 -0.3773  0.0112
  104OSM   H17F10627   1.937   4.183   8.744 -3.3776 -2.4909  1.2993
  104OSM   H17G10628   1.917   4.049   8.626 -0.5601 -1.3320  1.1664
  104OSM   C18F10629   2.120   4.127   8.645  0.8013  0.7894  0.1115
  104OSM   H18F10630   2.105   4.184   8.551 -1.8442  0.0605  0.0002
  104OSM   H18G10631   2.180   4.034   8.634 -0.7434 -0.2710  0.3629
  104OSM   H18H10632   2.180   4.199   8.705  0.3867  2.0302 -0.9118
  105OSM      N10633   0.295   2.762  10.951 -0.3597  0.5519  0.2010
  105OSM    C1510634   0.444   2.776  10.921  0.3896  0.4400 -0.0918
  105OSM   H15A10635   0.460   2.739  10.821 -1.5058  0.0084 -0.2605
  105OSM   H15B10636   0.514   2.726  10.988  1.3372  0.1582 -1.2570
  105OSM   H15C10637   0.467   2.881  10.926 -0.4805  0.6145  0.5582
  105OSM    C1410638   0.266   2.613  10.992 -0.2322  0.3475  0.4059
  105OSM   H14A10639   0.334   2.579  11.069 -0.3544 -0.1215  0.3094
  105OSM   H14B10640   0.269   2.544  10.909  0.3635  1.2846 -0.3727
  105OSM   H14C10641   0.165   2.606  11.028 -0.4757  2.2066  0.1852
  105OSM    C1310642   0.268   2.832  11.082  0.8009  0.2987  0.0780
  105OSM   H13A10643   0.338   2.796  11.156 -0.1591  0.2578  0.9846
  105OSM   H13B10644   0.167   2.803  11.109  0.8914 -1.3211 -1.1510
  105OSM   H13C10645   0.265   2.938  11.066 -3.1691  0.6979  2.1451
  105OSM    C1210646   0.215   2.812  10.833  0.0805  0.7657  0.1338
  105OSM   H12A10647   0.109   2.813  10.858  0.4840  0.2322  2.0768
  105OSM   H12B10648   0.230   2.736  10.758 -0.4558 -1.5569  2.2241
  105OSM    C1110649   0.243   2.951  10.788  0.5365 -0.7230 -0.1341
  105OSM   H11A10650   0.218   2.958  10.680  0.1410 -1.1765 -0.0750
  105OSM   H11B10651   0.353   2.968  10.784  0.3944  0.7847  1.2575
  105OSM      P10652   0.024   3.084  10.850  0.1089 -0.4310  0.4121
  105OSM    O1310653  -0.036   2.958  10.800  0.1263  0.1376  0.2143
  105OSM    O1410654  -0.027   3.136  10.978  0.0222  0.3154  0.4690
  105OSM    O1110655   0.017   3.184  10.729 -0.4232 -0.1012 -0.4440
  105OSM    O1210656   0.177   3.055  10.870 -0.0542  0.2256  0.1703
  105OSM    C1S10657   0.127   3.257  10.679  0.7134 -0.2786  0.0599
  105OSM    H1S10658   0.225   3.211  10.703 -0.0504 -1.2214  1.5830
  105OSM    H1T10659   0.128   3.360  10.720 -1.2550  0.3208 -1.2846
  105OSM     NF10660   0.240   3.321  10.467 -0.4918 -0.0167 -0.2735
  105OSM    HNF10661   0.247   3.403  10.410 -0.5310 -0.1112 -0.4173
  105OSM    C2S10662   0.116   3.273  10.520  0.5582 -0.2222  0.1424
  105OSM    H2S10663   0.094   3.171  10.484 -1.5151 -0.1311  1.0523
  105OSM    C3S10664   0.001   3.368  10.481 -0.1111 -0.5150  0.4255
  105OSM    H3S10665   0.035   3.472  10.500 -0.3498 -0.1076 -1.2401
  105OSM     O310666  -0.121   3.349  10.552  0.2522 -0.1229  0.5409
  105OSM    HO310667  -0.098   3.271  10.603  0.1456 -0.8332 -0.4636
  105OSM    C4S10668  -0.005   3.372  10.333  1.3194 -0.2848  0.1028
  105OSM    H4S10669   0.076   3.427  10.283  0.1489  2.0583  0.6761
  105OSM    C5S10670  -0.103   3.310  10.259  0.2470  0.1137  0.0760
  105OSM    H5S10671  -0.182   3.257  10.314  0.7780 -0.0036  0.7461
  105OSM    C6S10672  -0.106   3.313  10.107  0.4785 -0.1779 -0.2302
  105OSM    H6S10673  -0.189   3.369  10.059  0.6558 -0.5039 -0.9344
  105OSM    H6T10674  -0.102   3.212  10.061 -0.1621 -0.1860 -0.2755
  105OSM    C7S10675   0.012   3.389  10.038  0.0803 -0.7496 -0.3685
  105OSM    H7S10676   0.113   3.345  10.056 -0.5030 -1.5491  1.2194
  105OSM    H7T10677   0.015   3.495  10.071 -0.6494 -1.5013  2.4417
  105OSM    C8S10678  -0.012   3.390   9.888 -0.3660  0.1725  0.3581
  105OSM    H8S10679  -0.102   3.454   9.880 -0.3964 -0.0585 -1.7047
  105OSM    H8T10680  -0.042   3.292   9.847 -0.2260  1.2857 -2.6471
  105OSM    C9S10681   0.098   3.451   9.814  0.5596 -0.4645 -0.1804
  105OSM    H9S10682   0.197   3.402   9.829  1.7064  2.0300  0.9794
  105OSM    H9T10683   0.108   3.557   9.843 -2.3909  0.0326 -0.7466
  105OSM   C10S10684   0.069   3.444   9.659 -0.2414 -0.2658  0.5884
  105OSM   H10S10685  -0.024   3.498   9.633  0.2301 -0.1295 -0.9054
  105OSM   H10T10686   0.052   3.337   9.637 -3.7609 -0.0044  1.4762
  105OSM   C11S10687   0.179   3.504   9.580 -0.6426 -0.2913  0.5382
  105OSM   H11S10688   0.272   3.452   9.612 -0.5402 -0.1359  0.4963
  105OSM   H11T10689   0.197   3.611   9.604  1.0890  0.1475 -2.1843
  105OSM   C12S10690   0.165   3.503   9.424 -0.7936 -0.4653 -0.2781
  105OSM   H12S10691   0.254   3.554   9.380  0.1608 -1.7925  0.0540
  105OSM   H12T10692   0.074   3.558   9.393 -0.4056  1.0986  1.1931
  105OSM   C13S10693   0.165   3.370   9.358  0.2462  0.2079  0.2420
  105OSM   H13S10694   0.085   3.314   9.409 -0.1848 -0.6344 -1.2950
  105OSM   H13T10695   0.259   3.315   9.378  0.7436  0.5736 -0.9653
  105OSM   C14S10696   0.145   3.388   9.202 -0.5385  0.2184 -0.0622
  105OSM   H14S10697   0.114   3.490   9.171 -1.5847 -0.6847 -2.2174
  105OSM   H14T10698   0.057   3.324   9.180  0.4811 -0.8802 -1.0984
  105OSM   C15S10699   0.273   3.337   9.123  0.3778 -0.3023  0.4348
  105OSM   H15S10700   0.308   3.233   9.141  0.4465  0.1937  3.9438
  105OSM   H15T10701   0.349   3.412   9.152 -0.6472  1.0201 -0.1864
  105OSM   C16S10702   0.257   3.361   8.971 -0.4494  0.4591  0.6282
  105OSM   H16S10703   0.355   3.334   8.927  0.7466  1.1176  2.7696
  105OSM   H16T10704   0.248   3.470   8.952 -0.9558  0.0684 -1.6781
  105OSM   C17S10705   0.146   3.284   8.899 -0.5441 -0.4607  0.0220
  105OSM   H17S10706   0.043   3.302   8.936 -2.8814  0.2398 -5.8458
  105OSM   H17T10707   0.165   3.174   8.908 -0.7993 -0.5279 -0.2546
  105OSM   C18S10708   0.145   3.317   8.749  0.3487  0.4263 -0.1470
  105OSM   H18S10709   0.119   3.422   8.723 -1.5488  0.6000  2.0795
  105OSM   H18T10710   0.066   3.258   8.698  1.3986  1.6729 -3.4443
  105OSM   H18U10711   0.239   3.292   8.696 -1.6851 -0.8884 -3.4427
  105OSM    C1F10712   0.347   3.240  10.454 -0.2740  0.2673 -0.4564
  105OSM     OF10713   0.335   3.120  10.430 -0.3120 -0.3956 -0.0945
  105OSM    C2F10714   0.484   3.303  10.470  0.2370 -0.0526  0.6695
  105OSM    H2F10715   0.519   3.288  10.575  0.1027 -2.5255  0.4307
  105OSM    H2G10716   0.468   3.412  10.456  0.8537 -0.2506 -1.9487
  105OSM    C3F10717   0.600   3.254  10.376 -0.1928  0.5691 -0.0586
  105OSM    H3F10718   0.618   3.148  10.401  0.6677  0.5618 -0.6790
  105OSM    H3G10719   0.692   3.311  10.402  0.7519 -0.5580 -0.8751
  105OSM    C4F10720   0.574   3.276  10.226 -0.1518  0.2530  0.7447
  105OSM    H4F10721   0.486   3.220  10.187 -0.8600  2.2159 -0.6320
  105OSM    H4G10722   0.664   3.240  10.172 -0.3121  1.5648 -0.4337
  105OSM    C5F10723   0.552   3.423  10.186  0.2789  0.1740  0.0298
  105OSM    H5F10724   0.602   3.488  10.260 -0.3361 -0.3150  0.8874
  105OSM    H5G10725   0.443   3.438  10.203 -0.4127 -1.2180 -2.5337
  105OSM    C6F10726   0.587   3.464  10.043 -0.3620 -0.2760 -0.0289
  105OSM    H6F10727   0.696   3.444  10.040 -0.1718  0.7227 -0.2056
  105OSM    H6G10728   0.582   3.573  10.023  2.1098 -0.2119 -0.5859
  105OSM    C7F10729   0.534   3.369   9.930 -0.4754 -0.6084  0.7874
  105OSM    H7F10730   0.425   3.357   9.944 -0.7163  0.9124  0.4276
  105OSM    H7G10731   0.569   3.266   9.948 -2.4710 -1.1671  1.7585
  105OSM    C8F10732   0.571   3.421   9.790  0.6079 -0.2829  0.9039
  105OSM    H8F10733   0.680   3.438   9.794  1.0366 -2.2017 -1.0368
  105OSM    H8G10734   0.522   3.520   9.770  0.2024 -0.3464  1.5644
  105OSM    C9F10735   0.529   3.326   9.677 -0.5288 -0.5641 -0.2211
  105OSM    H9F10736   0.548   3.225   9.718  0.2536 -0.2230  0.2785
  105OSM   C10F10737   0.514   3.343   9.540  0.1350 -0.4243  0.1687
  105OSM   H10F10738   0.489   3.256   9.479 -0.5888  0.1169 -0.3168
  105OSM   C11F10739   0.528   3.473   9.461 -0.7804 -0.9821 -0.5807
  105OSM   H11F10740   0.515   3.570   9.514  0.2051 -0.1208 -1.8539
  105OSM   H11G10741   0.454   3.473   9.378 -0.8018  0.1450 -0.5763
  105OSM   C12F10742   0.665   3.491   9.384 -0.2034 -0.6180  0.1310
  105OSM   H12F10743   0.757   3.454   9.435  0.9694 -2.0984 -2.7804
  105OSM   H12G10744   0.689   3.597   9.364 -0.8743  0.1738  3.0670
  105OSM   C13F10745   0.665   3.414   9.255 -0.2166  0.0223  0.0426
  105OSM   H13F10746   0.571   3.438   9.200 -0.9151 -1.3803  0.5632
  105OSM   H13G10747   0.682   3.305   9.273 -0.0415 -0.5411 -2.9792
  105OSM   C14F10748   0.781   3.470   9.165  0.1437 -0.1803 -0.4585
  105OSM   H14F10749   0.878   3.433   9.204 -0.5210 -0.6249  0.8351
  105OSM   H14G10750   0.766   3.580   9.165 -1.8511 -0.4198 -0.9176
  105OSM   C15F10751   0.766   3.421   9.017 -0.0390  0.2659 -0.9916
  105OSM   H15F10752   0.751   3.311   9.022  0.2640  0.2626  0.1542
  105OSM   H15G10753   0.866   3.422   8.969  1.2834 -1.7373  1.4967
  105OSM   C16F10754   0.653   3.489   8.941 -0.3124  0.1682  0.5567
  105OSM   H16F10755   0.670   3.598   8.933 -2.1361  0.4930  0.5592
  105OSM   H16G10756   0.558   3.463   8.992 -0.7577  1.5023  0.4490
  105OSM   C17F10757   0.639   3.429   8.801 -0.1292 -0.4322  0.4420
  105OSM   H17F10758   0.618   3.322   8.819 -0.0235 -0.5877 -0.3075
  105OSM   H17G10759   0.741   3.436   8.757 -0.6110 -1.2423 -0.8511
  105OSM   C18F10760   0.527   3.496   8.723 -1.0536 -0.5269 -0.8826
  105OSM   H18F10761   0.428   3.489   8.773 -1.6721  2.7803 -1.4151
  105OSM   H18G10762   0.509   3.444   8.626 -1.4047  0.7766 -1.5415
  105OSM   H18H10763   0.537   3.605   8.701  0.3780 -0.7368 -1.3500
  106OSM      N10764   5.919   1.220  10.745 -0.1545  0.5346  0.1752
  106OSM    C1510765   5.841   1.105  10.792  0.3711 -0.3560  0.3115
  106OSM   H15A10766   5.748   1.137  10.837  0.6732 -1.3032  1.6844
  106OSM   H15B10767   5.887   1.058  10.878 -0.7294 -0.4859  0.8573
  106OSM   H15C10768   5.799   1.035  10.722  0.2904 -1.1001  1.0927
  106OSM    C1410769   5.833   1.293  10.648 -0.1445  0.7574 -0.4600
  106OSM   H14A10770   5.819   1.236  10.558 -2.2211 -0.7566  0.7475
  106OSM   H14B10771   5.886   1.380  10.611  0.0890  1.0641  0.5598
  106OSM   H14C10772   5.741   1.319  10.699  0.9986  0.5252  1.8770
  106OSM    C1310773   5.943   1.302  10.873 -0.1337 -0.3573 -0.5732
  106OSM   H13A10774   5.852   1.324  10.927  0.9911  1.0200  0.8500
  106OSM   H13B10775   5.984   1.397  10.841 -0.0265 -0.5751 -1.1008
  106OSM   H13C10776   6.006   1.257  10.948 -0.4748  2.2703  1.4172
  106OSM    C1210777   6.054   1.173  10.691  0.1869 -0.1291  0.3093
  106OSM   H12A10778   6.100   1.118  10.772  0.1076 -2.8140 -1.3688
  106OSM   H12B10779   6.115   1.260  10.668 -0.8933  0.3171 -0.9722
  106OSM    C1110780   6.053   1.101  10.548 -1.0387 -0.4956 -0.0844
  106OSM   H11A10781   6.155   1.110  10.502 -1.2521  0.6330 -0.3822
  106OSM   H11B10782   5.985   1.145  10.471  1.7356  0.2182 -2.3201
  106OSM      P10783   6.117   0.864  10.647 -0.0401 -0.4005  0.2806
  106OSM    O1310784   6.186   0.931  10.756  0.0589  0.1712 -0.2505
  106OSM    O1410785   6.036   0.749  10.688 -0.1438  0.2682  0.0044
  106OSM    O1110786   6.228   0.807  10.543  0.1642 -0.1006  0.4344
  106OSM    O1210787   6.024   0.965  10.558  0.3585  0.0595 -0.3970
  106OSM    C1S10788   6.196   0.798  10.403  1.0505  0.3564 -0.6345
  106OSM    H1S10789   6.182   0.897  10.353 -0.5906  0.4526 -0.0291
  106OSM    H1T10790   6.096   0.751  10.392  0.0389  1.9851  1.0387
  106OSM     NF10791   6.298   0.732  10.188 -0.3733 -0.2797  0.3768
  106OSM    HNF10792   6.272   0.648  10.142  1.3188 -0.6407  0.0102
  106OSM    C2S10793   6.313   0.724  10.329 -0.0269  0.4225 -0.4759
  106OSM    H2S10794   6.400   0.783  10.364 -0.4202  0.8251 -0.1801
  106OSM    C3S10795   6.334   0.580  10.381 -0.1452  0.4046 -0.6672
  106OSM    H3S10796   6.249   0.521  10.340 -0.0508 -1.7288  1.9298
  106OSM     O310797   6.333   0.570  10.527  0.0383  0.2760  0.1357
  106OSM    HO310798   6.317   0.659  10.559 -0.7504 -0.1788  1.0842
  106OSM    C4S10799   6.466   0.525  10.325  0.3320 -0.0865 -0.1412
  106OSM    H4S10800   6.559   0.579  10.347 -0.3208  0.9594  0.1223
  106OSM    C5S10801   6.487   0.409  10.254 -0.6297 -0.3038  0.1994
  106OSM    H5S10802   6.410   0.331  10.243 -2.1951  0.7159  2.9939
  106OSM    C6S10803   6.625   0.359  10.208  0.6172  0.0939 -0.5231
  106OSM    H6S10804   6.645   0.258  10.250  0.8202 -0.5098 -2.0118
  106OSM    H6T10805   6.712   0.420  10.240  0.2003 -0.5472  2.1386
  106OSM    C7S10806   6.625   0.340  10.051  0.3996 -0.1703  0.0766
  106OSM    H7S10807   6.609   0.439  10.002 -1.1313 -0.5572 -0.2544
  106OSM    H7T10808   6.531   0.289  10.021  1.1126 -0.1802 -2.3806
  106OSM    C8S10809   6.752   0.274  10.008 -0.4278  0.3094  0.0010
  106OSM    H8S10810   6.779   0.180  10.062 -1.9552  0.9128  1.9431
  106OSM    H8T10811   6.831   0.351  10.025 -0.9249  0.7887  0.1693
  106OSM    C9S10812   6.755   0.239   9.863 -0.9673 -0.2311 -0.5467
  106OSM    H9S10813   6.739   0.337   9.813 -2.4077  0.5520  1.3263
  106OSM    H9T10814   6.660   0.184   9.841 -1.2841  0.8804 -2.1633
  106OSM   C10S10815   6.881   0.176   9.807 -0.1005 -0.4035 -0.0298
  106OSM   H10S10816   6.885   0.065   9.815  0.5308 -0.7228 -3.2149
  106OSM   H10T10817   6.968   0.214   9.864  2.8531 -1.2362 -3.5773
  106OSM   C11S10818   6.894   0.205   9.660 -0.3971 -0.0873  0.5314
  106OSM   H11S10819   6.986   0.152   9.625 -1.3550 -1.8710  0.5694
  106OSM   H11T10820   6.909   0.313   9.642 -1.7402  0.0394  0.1173
  106OSM   C12S10821   6.788   0.145   9.564 -0.2612  0.2787  0.2767
  106OSM   H12S10822   6.689   0.174   9.604  0.3038  0.7125  1.4167
  106OSM   H12T10823   6.791   0.034   9.556 -0.1939  0.3210 -0.3677
  106OSM   C13S10824   6.793   0.216   9.422 -0.6720  0.6961  0.0280
  106OSM   H13S10825   6.797   0.327   9.427  0.9810  0.5994  1.8799
  106OSM   H13T10826   6.694   0.190   9.377  0.0660 -0.3158 -1.0826
  106OSM   C14S10827   6.903   0.162   9.328  0.9830 -1.0768 -0.4310
  106OSM   H14S10828   6.898   0.052   9.336  3.0655 -1.1358  0.8739
  106OSM   H14T10829   7.003   0.194   9.365  0.0800  0.6127  0.6949
  106OSM   C15S10830   6.888   0.227   9.194  0.8428  0.0742  0.8283
  106OSM   H15S10831   6.904   0.337   9.189 -0.4764  0.2369 -2.5611
  106OSM   H15T10832   6.790   0.198   9.152  0.8130  1.9922 -0.6116
  106OSM   C16S10833   6.981   0.179   9.076 -0.1991  0.0324 -0.1690
  106OSM   H16S10834   7.088   0.206   9.089 -0.3894  0.6613  0.1260
  106OSM   H16T10835   6.951   0.241   8.989  0.2257  1.8499  0.9409
  106OSM   C17S10836   6.971   0.030   9.041  0.5801 -0.2967 -0.6003
  106OSM   H17S10837   6.867  -0.005   9.025  0.5611 -0.0067 -1.1240
  106OSM   H17T10838   6.995  -0.039   9.125 -0.5960  0.1020  0.0992
  106OSM   C18S10839   7.060   0.004   8.922 -0.0937  0.1458 -0.1917
  106OSM   H18S10840   7.055  -0.106   8.912 -1.4325  0.1897 -0.2719
  106OSM   H18T10841   7.164   0.024   8.956 -0.6955  1.1426  1.1578
  106OSM   H18U10842   7.025   0.043   8.824  0.3515 -0.6383 -0.6704
  106OSM    C1F10843   6.337   0.849  10.124  0.2378 -0.3848 -0.2465
  106OSM     OF10844   6.406   0.934  10.186  0.4587  0.6605  0.4627
  106OSM    C2F10845   6.297   0.871   9.981  0.0610  0.2755  0.4095
  106OSM    H2F10846   6.248   0.971   9.979 -1.8348 -0.4593 -4.5666
  106OSM    H2G10847   6.222   0.790   9.967  1.4342 -1.0393  0.3736
  106OSM    C3F10848   6.416   0.867   9.878  0.5200  0.1403 -0.4332
  106OSM    H3F10849   6.471   0.958   9.910 -3.9411  3.2792 -0.6983
  106OSM    H3G10850   6.380   0.893   9.776  0.9594 -0.2580 -0.6884
  106OSM    C4F10851   6.499   0.736   9.863  0.4165 -0.6872 -0.1596
  106OSM    H4F10852   6.521   0.682   9.958  0.4560 -1.2390 -0.4812
  106OSM    H4G10853   6.599   0.767   9.826  0.3336 -0.3784 -0.1261
  106OSM    C5F10854   6.443   0.626   9.768  0.2295  0.0837  1.0809
  106OSM    H5F10855   6.349   0.579   9.805  0.0707  0.5595  1.2822
  106OSM    H5G10856   6.528   0.554   9.771 -0.3555 -0.6565  0.6207
  106OSM    C6F10857   6.414   0.675   9.624  0.4828 -0.4358  0.3335
  106OSM    H6F10858   6.496   0.745   9.597  1.2865 -0.5188  2.3809
  106OSM    H6G10859   6.323   0.737   9.616  1.3855  0.7591 -1.0019
  106OSM    C7F10860   6.403   0.565   9.515 -0.4707  0.1850 -0.4245
  106OSM    H7F10861   6.372   0.613   9.420 -3.0965 -1.5809 -0.5370
  106OSM    H7G10862   6.324   0.494   9.546 -0.0484  0.3436  1.1234
  106OSM    C8F10863   6.533   0.495   9.483 -0.8271  0.3869  0.1212
  106OSM    H8F10864   6.504   0.424   9.403  1.9883  0.3522 -0.9919
  106OSM    H8G10865   6.574   0.443   9.573 -1.6851  2.1082  1.5601
  106OSM    C9F10866   6.637   0.588   9.429 -0.0006  0.1125  0.0822
  106OSM    H9F10867   6.689   0.647   9.506 -1.3293 -1.3146  2.1725
  106OSM   C10F10868   6.672   0.623   9.302  0.9650  0.3880  0.2108
  106OSM   H10F10869   6.740   0.707   9.282 -0.3914  1.4491 -0.1153
  106OSM   C11F10870   6.600   0.563   9.179 -0.7366 -0.8208  0.3617
  106OSM   H11F10871   6.502   0.517   9.203 -1.1594  0.3145  0.8352
  106OSM   H11G10872   6.667   0.483   9.140  0.1051 -0.2200  0.5512
  106OSM   C12F10873   6.595   0.666   9.077 -1.0034 -0.5645  0.8931
  106OSM   H12F10874   6.696   0.709   9.062 -0.9193 -0.0476  2.7134
  106OSM   H12G10875   6.525   0.742   9.117  1.2208  1.0315  1.9169
  106OSM   C13F10876   6.524   0.617   8.953 -0.0009 -0.0938  0.5259
  106OSM   H13F10877   6.427   0.578   8.991 -1.2229  0.7928 -1.5040
  106OSM   H13G10878   6.570   0.527   8.907 -0.1299  0.1429 -0.0799
  106OSM   C14F10879   6.482   0.738   8.865  0.9859 -0.3940  0.2271
  106OSM   H14F10880   6.576   0.782   8.826  1.1346  0.6429  1.6740
  106OSM   H14G10881   6.436   0.816   8.929 -1.9501 -1.3130 -0.5948
  106OSM   C15F10882   6.411   0.707   8.740  0.3848 -0.5185  0.0698
  106OSM   H15F10883   6.467   0.637   8.674 -0.1328 -0.7423 -0.1416
  106OSM   H15G10884   6.397   0.805   8.689  0.2509  0.0702  1.2097
  106OSM   C16F10885   6.278   0.630   8.769  0.8164  0.3297 -0.0712
  106OSM   H16F10886   6.224   0.688   8.847 -0.8612 -0.4650 -0.5892
  106OSM   H16G10887   6.315   0.535   8.813 -0.5802 -0.1516  0.1203
  106OSM   C17F10888   6.195   0.583   8.647  0.0121  0.6718  0.1198
  106OSM   H17F10889   6.109   0.518   8.675 -1.5564  2.5738 -0.1416
  106OSM   H17G10890   6.263   0.517   8.588 -0.7100  1.5393 -1.7503
  106OSM   C18F10891   6.139   0.687   8.553 -0.2978 -0.4362  0.0100
  106OSM   H18F10892   6.219   0.746   8.504 -1.1561  1.8987  1.2489
  106OSM   H18G10893   6.089   0.764   8.616 -0.4406 -0.7652  0.3045
  106OSM   H18H10894   6.064   0.651   8.480  0.5952 -0.1985 -1.0456
  107OSM      N10895   2.753   5.288  10.611 -0.2819 -0.3215  0.2853
  107OSM    C1510896   2.771   5.231  10.748 -0.3213 -0.1772 -0.0744
  107OSM   H15A10897   2.712   5.142  10.765  0.3704 -0.1934  2.7410
  107OSM   H15B10898   2.743   5.293  10.832  0.4827  0.2667 -0.1207
  107OSM   H15C10899   2.873   5.197  10.763 -0.7117 -1.3552  0.0071
  107OSM    C1410900   2.834   5.413  10.598 -0.5385 -0.0208 -0.4716
  107OSM   H14A10901   2.845   5.450  10.497 -0.5437  1.0873 -0.0781
  107OSM   H14B10902   2.932   5.384  10.633 -1.1686  0.1238  1.5470
  107OSM   H14C10903   2.788   5.487  10.662 -0.2602  1.2384 -1.6785
  107OSM    C1310904   2.799   5.193  10.507 -0.0479  0.9092 -0.8562
  107OSM   H13A10905   2.903   5.172  10.527  0.0345  3.0436  1.6395
  107OSM   H13B10906   2.789   5.240  10.411 -0.5184 -0.1258 -1.3240
  107OSM   H13C10907   2.736   5.105  10.511  0.9013  0.2558  1.0227
  107OSM    C1210908   2.608   5.314  10.581 -0.6297  0.3028  0.5892
  107OSM   H12A10909   2.548   5.225  10.586 -0.0895 -0.0868  0.2858
  107OSM   H12B10910   2.600   5.352  10.480  3.1335 -1.3574 -0.5094
  107OSM    C1110911   2.530   5.413  10.668  0.2873 -0.9522  0.3228
  107OSM   H11A10912   2.543   5.384  10.774 -2.4812 -2.1746  0.4236
  107OSM   H11B10913   2.422   5.403  10.642  0.5784 -3.0125 -0.1989
  107OSM      P10914   2.521   5.667  10.589  0.2132  0.1652 -0.5511
  107OSM    O1310915   2.399   5.704  10.660  0.0815  0.5129  0.1501
  107OSM    O1410916   2.630   5.770  10.597  0.5528 -0.4102 -0.3125
  107OSM    O1110917   2.478   5.629  10.442 -0.2227 -0.7657 -0.1810
  107OSM    O1210918   2.584   5.547  10.657 -0.1312 -0.0594  0.4387
  107OSM    C1S10919   2.570   5.592  10.338 -0.1943 -0.5796 -0.2361
  107OSM    H1S10920   2.648   5.524  10.382 -1.0933 -1.9282 -0.6621
  107OSM    H1T10921   2.623   5.676  10.288  0.0571 -2.0913 -2.6640
  107OSM     NF10922   2.583   5.469  10.132  0.0621 -0.9782  0.8946
  107OSM    HNF10923   2.580   5.516  10.044  2.9534 -0.1761  1.1255
  107OSM    C2S10924   2.491   5.521  10.229 -0.2767  0.2763  0.5941
  107OSM    H2S10925   2.443   5.434  10.279  0.0079 -0.3249 -0.1446
  107OSM    C3S10926   2.375   5.622  10.175  0.2807  0.1601  0.2104
  107OSM    H3S10927   2.428   5.705  10.123  1.4366 -0.1023  0.9212
  107OSM     O310928   2.290   5.683  10.274  0.2574  0.4096 -0.0513
  107OSM    HO310929   2.332   5.646  10.352 -1.4492  0.1520  0.7946
  107OSM    C4S10930   2.290   5.555  10.071  0.3247 -0.2813 -0.6764
  107OSM    H4S10931   2.251   5.454  10.093  1.4385 -1.0419 -1.9791
  107OSM    C5S10932   2.269   5.597   9.943  0.9534 -0.3538  0.1800
  107OSM    H5S10933   2.318   5.691   9.915 -0.1391  0.4993  1.0240
  107OSM    C6S10934   2.190   5.521   9.846 -0.2281  0.0794  0.3867
  107OSM    H6S10935   2.255   5.457   9.782  0.7884  1.7523 -0.3212
  107OSM    H6T10936   2.146   5.588   9.768  1.0927 -1.1725 -1.5379
  107OSM    C7S10937   2.065   5.452   9.896 -0.1439  0.1326  0.0495
  107OSM    H7S10938   2.027   5.507   9.985  2.1379  2.0870 -0.0768
  107OSM    H7T10939   2.086   5.345   9.913 -2.7387 -0.6838 -1.2893
  107OSM    C8S10940   1.952   5.453   9.787 -0.3054 -0.6840  0.0888
  107OSM    H8S10941   1.917   5.557   9.772 -0.4272 -0.8222 -0.6036
  107OSM    H8T10942   1.865   5.393   9.823 -0.7403 -0.1742 -0.1045
  107OSM    C9S10943   2.009   5.402   9.655 -0.0625 -0.3904 -0.2908
  107OSM    H9S10944   2.084   5.323   9.674  0.7070  0.6013  0.9653
  107OSM    H9T10945   2.061   5.487   9.604 -0.3427  1.6615  2.6347
  107OSM   C10S10946   1.886   5.366   9.568  0.2806  0.2697  0.2641
  107OSM   H10S10947   1.834   5.285   9.625  3.7440 -2.6573 -0.3283
  107OSM   H10T10948   1.921   5.313   9.477 -2.3931 -0.9713 -0.1589
  107OSM   C11S10949   1.795   5.488   9.539  0.1552  0.4139  0.3161
  107OSM   H11S10950   1.860   5.572   9.505 -0.6005  1.2266  0.8281
  107OSM   H11T10951   1.747   5.509   9.637 -0.3753  0.8598 -0.0392
  107OSM   C12S10952   1.698   5.467   9.429 -0.1379  0.1370 -0.2137
  107OSM   H12S10953   1.652   5.564   9.398  2.6391  0.6432 -3.2358
  107OSM   H12T10954   1.630   5.382   9.451 -0.1994 -0.0593 -1.1374
  107OSM   C13S10955   1.764   5.425   9.295 -0.1088  0.4820 -0.7134
  107OSM   H13S10956   1.812   5.326   9.306 -2.7722 -0.7388  0.6222
  107OSM   H13T10957   1.853   5.492   9.288 -2.0039  3.2993  0.1563
  107OSM   C14S10958   1.676   5.415   9.179 -0.6255 -1.1586  0.2168
  107OSM   H14S10959   1.641   5.518   9.157  3.7833  0.9280  1.8193
  107OSM   H14T10960   1.590   5.346   9.198  0.3835 -2.8992 -1.2680
  107OSM   C15S10961   1.741   5.378   9.045  0.0140  0.0248 -0.5412
  107OSM   H15S10962   1.782   5.275   9.058  1.5806  0.8203  1.3747
  107OSM   H15T10963   1.825   5.446   9.018  0.4017 -1.2122 -2.7200
  107OSM   C16S10964   1.638   5.376   8.934  0.0002 -1.0147 -0.6668
  107OSM   H16S10965   1.582   5.471   8.947 -0.0017 -1.0032 -0.7577
  107OSM   H16T10966   1.561   5.296   8.939 -0.0659 -0.8920  0.4712
  107OSM   C17S10967   1.701   5.392   8.802  0.7076 -0.0905  0.0533
  107OSM   H17S10968   1.622   5.382   8.725  0.1968  3.7929 -0.1366
  107OSM   H17T10969   1.772   5.308   8.784 -0.2413 -0.6345 -1.3392
  107OSM   C18S10970   1.757   5.526   8.773 -0.5721  0.0794  0.1863
  107OSM   H18S10971   1.761   5.555   8.666 -3.8153  2.2041  0.5138
  107OSM   H18T10972   1.867   5.517   8.790 -0.8347  0.7299  2.5341
  107OSM   H18U10973   1.719   5.608   8.837 -2.1171 -0.7013  0.3256
  107OSM    C1F10974   2.679   5.380  10.170  0.2795 -0.6230 -0.0537
  107OSM     OF10975   2.661   5.310  10.269 -0.0330  0.0137 -0.5343
  107OSM    C2F10976   2.791   5.364  10.071  0.1326  0.7161  0.1505
  107OSM    H2F10977   2.880   5.326  10.125  0.7597  1.7094 -0.1551
  107OSM    H2G10978   2.812   5.461  10.020  1.2807 -0.1486 -1.0787
  107OSM    C3F10979   2.764   5.247   9.979 -0.0533  0.0782 -0.0064
  107OSM    H3F10980   2.726   5.163  10.041  1.3917  0.3409  1.3259
  107OSM    H3G10981   2.861   5.213   9.935 -0.8846 -0.3701 -1.5426
  107OSM    C4F10982   2.674   5.287   9.864  0.6322  0.3484 -0.3618
  107OSM    H4F10983   2.717   5.384   9.830  0.5970  1.0049  1.3857
  107OSM    H4G10984   2.568   5.306   9.888 -0.0696 -0.6530 -2.4127
  107OSM    C5F10985   2.687   5.181   9.757 -0.4099 -0.9508 -0.3870
  107OSM    H5F10986   2.625   5.091   9.777  0.4205 -1.8470 -1.7206
  107OSM    H5G10987   2.794   5.160   9.738  0.5448  2.1727  0.8375
  107OSM    C6F10988   2.642   5.242   9.624 -0.0434 -0.0870  0.5767
  107OSM    H6F10989   2.675   5.182   9.538  1.3531  0.9075  0.3872
  107OSM    H6G10990   2.696   5.338   9.610  0.9389 -0.8012 -0.5752
  107OSM    C7F10991   2.494   5.269   9.609 -0.2935  0.7224 -0.4309
  107OSM    H7F10992   2.451   5.287   9.710 -0.6850 -0.7543 -0.3041
  107OSM    H7G10993   2.445   5.173   9.580  2.6538 -1.3413  0.9648
  107OSM    C8F10994   2.460   5.386   9.523 -0.3676 -0.1432  0.3320
  107OSM    H8F10995   2.519   5.470   9.565 -0.9587 -0.0802  1.0589
  107OSM    H8G10996   2.354   5.414   9.541 -0.5022  1.2679 -2.2027
  107OSM    C9F10997   2.488   5.364   9.379 -0.0377  0.4722 -0.3362
  107OSM    H9F10998   2.596   5.359   9.360  0.2893 -3.3638  1.3953
  107OSM   C10F10999   2.399   5.344   9.285  0.7143  0.0713  0.7732
  107OSM   H10F11000   2.430   5.322   9.182  0.6846  0.3524  0.7035
  107OSM   C11F11001   2.245   5.341   9.293  0.0300  0.4057 -0.8283
  107OSM   H11F11002   2.205   5.434   9.246  2.9916  0.9648 -2.5031
  107OSM   H11G11003   2.220   5.343   9.401  1.4876 -2.0283 -0.3807
  107OSM   C12F11004   2.188   5.213   9.228  0.7564 -0.8622 -0.3814
  107OSM   H12F11005   2.089   5.186   9.272  0.7956  0.9540  0.8791
  107OSM   H12G11006   2.250   5.122   9.245 -0.6606 -1.8539 -0.3159
  107OSM   C13F11007   2.165   5.227   9.073 -0.3976 -0.7308  0.1180
  107OSM   H13F11008   2.258   5.250   9.018 -1.4880 -0.2005 -1.6115
  107OSM   H13G11009   2.104   5.318   9.054 -1.7229 -1.2722  1.5305
  107OSM   C14F11010   2.111   5.092   9.021 -0.4185  0.8576 -0.0943
  107OSM   H14F11011   2.009   5.069   9.057 -0.5612  1.1322 -0.3188
  107OSM   H14G11012   2.179   5.011   9.054 -0.3639  0.8456 -0.2356
  107OSM   C15F11013   2.113   5.082   8.868 -0.1980  0.0842  0.6727
  107OSM   H15F11014   2.098   4.979   8.830  0.4971 -0.7263  2.4993
  107OSM   H15G11015   2.215   5.102   8.827 -1.5442  0.9621 -2.5721
  107OSM   C16F11016   2.017   5.175   8.782 -0.3489 -0.5527  0.1425
  107OSM   H16F11017   1.996   5.263   8.848  2.2078 -0.1692  0.5475
  107OSM   H16G11018   1.916   5.132   8.763 -0.7354  0.0611  0.7425
  107OSM   C17F11019   2.086   5.211   8.653  0.0631 -0.5707 -0.8876
  107OSM   H17F11020   2.079   5.123   8.585 -2.0999 -1.5202  0.4357
  107OSM   H17G11021   2.191   5.237   8.674 -0.1000 -0.1764 -0.5585
  107OSM   C18F11022   2.039   5.332   8.573 -0.3485  0.4987 -0.0626
  107OSM   H18F11023   2.060   5.427   8.627 -1.4359 -0.9006  3.0485
  107OSM   H18G11024   1.929   5.334   8.560 -0.3131  0.2790 -0.4220
  107OSM   H18H11025   2.085   5.329   8.471 -0.6365 -3.3163 -0.2449
  108OSM      N11026   4.927   1.245  10.821 -0.4378  0.3022 -0.3534
  108OSM    C1511027   4.998   1.349  10.903 -0.5476 -0.2916 -0.8157
  108OSM   H15A11028   4.971   1.347  11.008  1.4743 -0.9562 -0.2489
  108OSM   H15B11029   4.984   1.449  10.865 -0.3740  0.1576  0.2746
  108OSM   H15C11030   5.105   1.334  10.903 -0.6011 -0.8316  0.5506
  108OSM    C1411031   4.948   1.114  10.893 -0.1550 -0.1323 -0.0613
  108OSM   H14A11032   5.054   1.095  10.895 -0.0960  0.1540 -0.2985
  108OSM   H14B11033   4.903   1.029  10.844  1.8089 -1.8843  1.0342
  108OSM   H14C11034   4.912   1.116  10.995 -0.3202 -0.3536 -0.1152
  108OSM    C1311035   4.778   1.274  10.821  0.5417  0.5365  0.1908
  108OSM   H13A11036   4.753   1.371  10.781  0.4563 -0.1047 -1.4286
  108OSM   H13B11037   4.738   1.266  10.921  1.0534  2.4486  0.5947
  108OSM   H13C11038   4.728   1.196  10.765 -0.9829  1.0735  0.7578
  108OSM    C1211039   4.983   1.252  10.682 -0.0997  0.2696 -0.2986
  108OSM   H12A11040   4.949   1.345  10.640 -1.2377  1.0584  2.1576
  108OSM   H12B11041   4.940   1.169  10.629 -3.0022 -0.1381  2.4238
  108OSM    C1111042   5.139   1.254  10.663  0.1724  0.7968  0.2418
  108OSM   H11A11043   5.178   1.353  10.693 -2.5899  2.2695 -0.6386
  108OSM   H11B11044   5.148   1.244  10.552 -0.8503  0.5254  0.1715
  108OSM      P11045   5.328   1.131  10.798 -0.2988  0.5079 -0.1306
  108OSM    O1311046   5.316   1.233  10.906 -0.4510  0.0978  0.1242
  108OSM    O1411047   5.358   0.990  10.842  0.2749  0.2171  0.2925
  108OSM    O1111048   5.448   1.183  10.704  0.3700  0.4118 -0.2645
  108OSM    O1211049   5.196   1.134  10.713  0.0265 -0.5460  0.0044
  108OSM    C1S11050   5.471   1.133  10.572  0.3106 -0.5381 -0.1585
  108OSM    H1S11051   5.392   1.058  10.549 -1.0753  1.0004 -0.6333
  108OSM    H1T11052   5.573   1.089  10.566  1.7311  2.3389  0.9862
  108OSM     NF11053   5.482   1.195  10.336 -0.4070 -0.6081  0.1186
  108OSM    HNF11054   5.575   1.206  10.301 -1.0759 -1.3423 -2.0135
  108OSM    C2S11055   5.460   1.251  10.470 -0.3364  0.3305  0.4274
  108OSM    H2S11056   5.352   1.280  10.470  0.0517  2.0450 -1.4521
  108OSM    C3S11057   5.546   1.381  10.494  0.1389  0.2013  0.1676
  108OSM    H3S11058   5.653   1.374  10.467  0.1414 -2.3892  0.5878
  108OSM     O311059   5.542   1.424  10.628 -0.0618 -0.0691  0.5535
  108OSM    HO311060   5.511   1.346  10.675  0.7877 -1.4788 -1.1303
  108OSM    C4S11061   5.497   1.486  10.405  0.3086 -0.3762 -0.1778
  108OSM    H4S11062   5.544   1.490  10.306  0.8169  0.9042  0.1064
  108OSM    C5S11063   5.403   1.580  10.432 -0.0618 -0.5311 -0.5932
  108OSM    H5S11064   5.352   1.563  10.528  0.8311 -0.0729 -0.0215
  108OSM    C6S11065   5.330   1.681  10.341 -0.2837 -0.3570 -1.2176
  108OSM    H6S11066   5.289   1.760  10.408 -0.3721 -2.0119  0.7647
  108OSM    H6T11067   5.246   1.639  10.282 -1.6144 -1.5344  1.3693
  108OSM    C7S11068   5.418   1.749  10.227 -0.4493 -0.9829  0.0726
  108OSM    H7S11069   5.520   1.775  10.262 -0.4936  0.0714 -0.5460
  108OSM    H7T11070   5.376   1.850  10.207  0.8855 -0.2968  0.5668
  108OSM    C8S11071   5.430   1.678  10.093  0.5392  0.0492 -0.3248
  108OSM    H8S11072   5.326   1.667  10.056 -0.4638  1.3133  1.9152
  108OSM    H8T11073   5.470   1.575  10.107 -2.1221 -0.8651  1.2579
  108OSM    C9S11074   5.505   1.763   9.999  0.1731 -0.8032  0.0517
  108OSM    H9S11075   5.610   1.776  10.033  0.9282  1.0425 -2.7099
  108OSM    H9T11076   5.455   1.861   9.987 -0.5523 -1.0942  0.6385
  108OSM   C10S11077   5.503   1.698   9.859 -0.2467 -0.0051  0.0921
  108OSM   H10S11078   5.400   1.684   9.821  0.7869 -0.6191 -2.6887
  108OSM   H10T11079   5.537   1.594   9.878  0.6639  0.2246 -0.2346
  108OSM   C11S11080   5.581   1.770   9.745 -0.1432 -0.5524  0.1942
  108OSM   H11S11081   5.691   1.751   9.741 -0.0087  0.4111 -1.0166
  108OSM   H11T11082   5.563   1.874   9.780 -0.7665 -0.8892  0.8955
  108OSM   C12S11083   5.521   1.749   9.606 -0.1823  0.0076 -0.4919
  108OSM   H12S11084   5.415   1.784   9.611 -0.0800  0.8922 -2.9023
  108OSM   H12T11085   5.501   1.644   9.575  0.0095  0.3031 -1.6633
  108OSM   C13S11086   5.595   1.836   9.496 -0.2238  0.8518  0.3988
  108OSM   H13S11087   5.615   1.942   9.523 -0.2786  0.7141  1.0072
  108OSM   H13T11088   5.533   1.842   9.404  1.1789 -0.1257 -0.6542
  108OSM   C14S11089   5.726   1.766   9.459  0.7173 -0.1880 -0.8731
  108OSM   H14S11090   5.696   1.659   9.459  1.1522 -0.3133 -0.9510
  108OSM   H14T11091   5.803   1.785   9.537  0.4633 -1.7920 -0.1881
  108OSM   C15S11092   5.779   1.794   9.325  0.2187  0.1183  0.3579
  108OSM   H15S11093   5.881   1.753   9.311  0.0555 -0.1567 -0.0466
  108OSM   H15T11094   5.797   1.904   9.317 -0.6120  0.1649 -1.6458
  108OSM   C16S11095   5.691   1.740   9.209  0.1918 -0.3492 -0.2281
  108OSM   H16S11096   5.766   1.751   9.128  2.8404 -0.6630  2.0748
  108OSM   H16T11097   5.603   1.808   9.199 -0.3637 -0.9900  0.1676
  108OSM   C17S11098   5.655   1.590   9.218  0.0859  0.0410  0.8072
  108OSM   H17S11099   5.585   1.566   9.301 -0.7535  0.1808  0.1493
  108OSM   H17T11100   5.751   1.537   9.232  0.6640  0.7890 -0.1944
  108OSM   C18S11101   5.591   1.544   9.084 -0.4105 -0.1020  0.3994
  108OSM   H18S11102   5.497   1.602   9.070  0.2832  1.2230  1.0583
  108OSM   H18T11103   5.574   1.434   9.087 -0.8573 -0.0545 -0.1435
  108OSM   H18U11104   5.664   1.560   9.002  0.0207 -2.3152  0.3051
  108OSM    C1F11105   5.399   1.119  10.266  0.3673  1.2470  0.0260
  108OSM     OF11106   5.279   1.112  10.291  0.1691  0.3392  0.6184
  108OSM    C2F11107   5.459   1.042  10.149  0.1259  0.4306  1.0185
  108OSM    H2F11108   5.469   0.934  10.175 -1.8360  0.2532  1.2470
  108OSM    H2G11109   5.555   1.093  10.129  1.1177 -1.5994  0.2921
  108OSM    C3F11110   5.365   1.051  10.030 -0.1020  0.1250  0.4690
  108OSM    H3F11111   5.273   0.994  10.056  0.8128 -1.6689 -0.0555
  108OSM    H3G11112   5.413   0.985   9.955  2.9407  0.8997  1.6153
  108OSM    C4F11113   5.342   1.197   9.974 -0.0273  0.3312  0.2443
  108OSM    H4F11114   5.282   1.248  10.052  0.7550  1.1830  0.3082
  108OSM    H4G11115   5.269   1.186   9.890  2.2947  1.2305 -2.0395
  108OSM    C5F11116   5.468   1.281   9.940  0.4009 -0.1273 -0.4429
  108OSM    H5F11117   5.544   1.255  10.017 -0.3688 -0.1836  0.3070
  108OSM    H5G11118   5.438   1.387   9.948 -0.6213 -0.5171  1.7249
  108OSM    C6F11119   5.523   1.254   9.795 -0.1775 -1.0173 -0.1203
  108OSM    H6F11120   5.521   1.145   9.776  1.8232 -1.3939  1.4978
  108OSM    H6G11121   5.630   1.282   9.796 -0.3493 -0.2761 -1.3464
  108OSM    C7F11122   5.452   1.342   9.689  0.1122 -0.2093  0.7544
  108OSM    H7F11123   5.462   1.451   9.712  0.9202  0.2971 -1.6777
  108OSM    H7G11124   5.345   1.314   9.688  0.3212 -1.5059 -3.1195
  108OSM    C8F11125   5.511   1.334   9.548 -0.2597  0.5087 -0.5984
  108OSM    H8F11126   5.443   1.395   9.484 -0.8001  1.4437  0.8325
  108OSM    H8G11127   5.494   1.231   9.510 -1.2597  0.0005  1.1522
  108OSM    C9F11128   5.659   1.368   9.542 -0.3833 -0.1371 -0.3965
  108OSM    H9F11129   5.693   1.467   9.577  3.0028 -0.4579 -2.3432
  108OSM   C10F11130   5.751   1.288   9.484 -0.1907  0.5464 -0.8761
  108OSM   H10F11131   5.856   1.322   9.483  0.1783 -0.5517 -1.8492
  108OSM   C11F11132   5.730   1.151   9.418  0.6840 -0.3713 -0.6054
  108OSM   H11F11133   5.643   1.095   9.458 -0.3093  0.5168 -1.4787
  108OSM   H11G11134   5.814   1.088   9.456  0.5666  0.4178  1.0341
  108OSM   C12F11135   5.728   1.150   9.268 -0.0694 -0.3576 -0.1876
  108OSM   H12F11136   5.633   1.202   9.244  1.3394  2.6984  0.4436
  108OSM   H12G11137   5.715   1.048   9.226 -0.8419  0.5178 -2.2174
  108OSM   C13F11138   5.851   1.207   9.198 -0.3508  0.5299 -0.1756
  108OSM   H13F11139   5.941   1.155   9.236 -0.5622  1.4091  1.6175
  108OSM   H13G11140   5.856   1.314   9.227  2.4749  0.0948  1.2693
  108OSM   C14F11141   5.841   1.190   9.047  0.8079 -0.1444  0.8898
  108OSM   H14F11142   5.761   1.252   8.999  0.0025 -0.5666  1.6713
  108OSM   H14G11143   5.798   1.088   9.049 -1.7519  0.8231  0.2147
  108OSM   C15F11144   5.969   1.215   8.963 -0.4597  0.5899  0.2773
  108OSM   H15F11145   6.055   1.179   9.023  0.7643  1.7071 -0.7403
  108OSM   H15G11146   5.986   1.325   8.958  0.9644  0.3413 -1.2222
  108OSM   C16F11147   5.959   1.152   8.817 -0.2274  0.1279  0.0501
  108OSM   H16F11148   5.904   1.222   8.751  0.1478  0.5918  0.2330
  108OSM   H16G11149   5.893   1.062   8.819  0.6984 -0.5497  1.2302
  108OSM   C17F11150   6.086   1.105   8.744  0.4272  0.1166 -0.1198
  108OSM   H17F11151   6.055   1.048   8.654  0.4233 -1.1016  0.6342
  108OSM   H17G11152   6.131   1.027   8.810 -1.3543 -0.9902 -0.1310
  108OSM   C18F11153   6.194   1.207   8.715  0.1422 -0.1936  1.1773
  108OSM   H18F11154   6.233   1.258   8.806 -2.1257  1.2543  1.4018
  108OSM   H18G11155   6.154   1.284   8.646  3.0520 -0.1005 -0.5877
  108OSM   H18H11156   6.279   1.159   8.661  1.6398 -0.2491  3.4345
  109OSM      N11157   4.624   3.144  11.385 -0.3136  0.0889 -0.5454
  109OSM    C1511158   4.771   3.176  11.387 -0.4544  0.0142  0.0068
  109OSM   H15A11159   4.818   3.175  11.289 -0.4128 -1.8974  0.0056
  109OSM   H15B11160   4.816   3.107  11.457  1.4952  2.2030  1.0226
  109OSM   H15C11161   4.784   3.275  11.428 -0.0046  0.3390 -0.8814
  109OSM    C1411162   4.612   3.008  11.337 -0.6221 -0.7946 -0.5223
  109OSM   H14A11163   4.513   2.965  11.345 -2.1140  2.1775 -1.5583
  109OSM   H14B11164   4.682   2.944  11.388 -0.4134 -0.9362 -0.9723
  109OSM   H14C11165   4.639   2.999  11.232 -0.8224 -0.3984 -0.6091
  109OSM    C1311166   4.582   3.150  11.525  0.1225  0.7906  0.6616
  109OSM   H13A11167   4.622   3.227  11.588 -0.1987  0.6018  1.1114
  109OSM   H13B11168   4.605   3.053  11.569 -1.0688 -0.5919 -1.5674
  109OSM   H13C11169   4.474   3.162  11.525  0.0852  0.7523 -1.6214
  109OSM    C1211170   4.543   3.255  11.308 -0.1407  0.3263 -0.2947
  109OSM   H12A11171   4.542   3.351  11.357  0.2218 -0.4308  1.2376
  109OSM   H12B11172   4.437   3.242  11.325  0.0509  0.2810  0.9292
  109OSM    C1111173   4.576   3.270  11.158 -0.6783  0.1813 -0.3287
  109OSM   H11A11174   4.686   3.282  11.147 -0.6789 -1.1452 -2.2481
  109OSM   H11B11175   4.527   3.352  11.101  0.1584 -0.5209 -2.1636
  109OSM      P11176   4.414   3.083  11.056 -0.3343 -0.2497  0.1910
  109OSM    O1311177   4.435   2.937  11.051  0.3918 -0.0283 -0.4856
  109OSM    O1411178   4.325   3.141  11.160  0.3279  0.3640  0.5649
  109OSM    O1111179   4.371   3.152  10.917  0.2223  0.0073 -0.4237
  109OSM    O1211180   4.562   3.143  11.089  0.1442  0.1537  0.4349
  109OSM    C1S11181   4.390   3.071  10.800 -0.5783 -0.4782 -0.5733
  109OSM    H1S11182   4.300   3.020  10.759 -1.1023  1.1284 -1.4723
  109OSM    H1T11183   4.460   2.985  10.814 -1.5080 -1.5745 -2.3151
  109OSM     NF11184   4.437   3.111  10.558 -0.2430 -0.9589  0.1330
  109OSM    HNF11185   4.533   3.098  10.533 -0.0778  0.2553  0.0616
  109OSM    C2S11186   4.420   3.176  10.684  0.4548 -0.0624 -0.7582
  109OSM    H2S11187   4.333   3.244  10.688  0.9883  0.5930  0.3136
  109OSM    C3S11188   4.543   3.269  10.704  0.1970 -0.3367 -0.0369
  109OSM    H3S11189   4.639   3.214  10.709 -0.1197 -1.1310 -1.8003
  109OSM     O311190   4.533   3.339  10.826 -0.2694  0.6500 -0.1629
  109OSM    HO311191   4.493   3.270  10.878  1.4066 -1.6855 -1.7848
  109OSM    C4S11192   4.544   3.365  10.591  0.7127 -0.1108 -0.6735
  109OSM    H4S11193   4.462   3.438  10.595  0.0902 -0.6812 -2.1677
  109OSM    C5S11194   4.633   3.370  10.489  0.2312 -0.1121 -0.4354
  109OSM    H5S11195   4.721   3.304  10.481  1.3448  1.3882 -0.9994
  109OSM    C6S11196   4.638   3.481  10.383 -0.0324 -0.7765 -0.7970
  109OSM    H6S11197   4.730   3.540  10.402  0.1411 -0.7130 -1.7713
  109OSM    H6T11198   4.552   3.550  10.385  0.4932 -0.0984 -1.1703
  109OSM    C7S11199   4.650   3.423  10.235 -0.1365 -0.3913 -0.1315
  109OSM    H7S11200   4.568   3.351  10.213 -0.5601  0.2852 -0.8066
  109OSM    H7T11201   4.745   3.367  10.223 -0.3235 -0.5805 -0.7702
  109OSM    C8S11202   4.632   3.529  10.125  0.1551 -0.0276 -0.3109
  109OSM    H8S11203   4.680   3.625  10.156 -2.5181  0.2781  3.5118
  109OSM    H8T11204   4.524   3.548  10.112  0.0861 -0.5996 -0.5708
  109OSM    C9S11205   4.689   3.497   9.981  1.0478  0.5705 -0.1460
  109OSM    H9S11206   4.670   3.389   9.960  2.7519 -0.4267  2.9106
  109OSM    H9T11207   4.799   3.498   9.993  1.2192 -2.0339 -0.8073
  109OSM   C10S11208   4.629   3.583   9.875  0.0364  0.3955 -0.2282
  109OSM   H10S11209   4.639   3.693   9.892  1.4935  0.4376 -1.1812
  109OSM   H10T11210   4.520   3.568   9.860 -0.4348  3.2162 -0.2737
  109OSM   C11S11211   4.694   3.551   9.741  1.3549  0.6267 -0.5964
  109OSM   H11S11212   4.665   3.449   9.710  1.3728  0.8838 -1.4988
  109OSM   H11T11213   4.805   3.548   9.750  1.2058 -1.7990  1.0620
  109OSM   C12S11214   4.660   3.651   9.630  0.2966 -0.5435 -0.7527
  109OSM   H12S11215   4.680   3.754   9.666 -1.1879 -1.1312  2.0415
  109OSM   H12T11216   4.561   3.638   9.581  0.4297  2.0868 -1.8769
  109OSM   C13S11217   4.762   3.632   9.507  0.0435 -0.5683 -0.2232
  109OSM   H13S11218   4.767   3.524   9.483  1.1285  0.0912 -3.4391
  109OSM   H13T11219   4.861   3.681   9.520  0.3790 -0.6682 -2.1723
  109OSM   C14S11220   4.695   3.694   9.380 -0.3496  0.4896 -0.1091
  109OSM   H14S11221   4.649   3.788   9.417 -0.5413  0.4913 -0.3524
  109OSM   H14T11222   4.615   3.628   9.342  0.0711  0.4201 -0.8765
  109OSM   C15S11223   4.803   3.709   9.278 -0.1355  0.7335 -0.0006
  109OSM   H15S11224   4.852   3.614   9.250 -2.1385 -0.2229 -0.4475
  109OSM   H15T11225   4.875   3.781   9.322  0.7497  0.7607 -1.4241
  109OSM   C16S11226   4.753   3.761   9.146  0.9615  0.1837 -0.6045
  109OSM   H16S11227   4.694   3.849   9.178  0.4570 -1.0711  2.1792
  109OSM   H16T11228   4.682   3.685   9.108  0.9059  0.7405 -1.6592
  109OSM   C17S11229   4.863   3.799   9.045  0.4897  0.7518 -0.1089
  109OSM   H17S11230   4.916   3.705   9.018  0.0100  0.7753 -1.1796
  109OSM   H17T11231   4.933   3.876   9.085 -0.1321  1.9842 -1.2904
  109OSM   C18S11232   4.796   3.864   8.920  0.2976 -0.4464 -0.3295
  109OSM   H18S11233   4.743   3.953   8.959  0.6314 -0.8689  1.1806
  109OSM   H18T11234   4.720   3.793   8.880 -1.1512  0.2761  1.0119
  109OSM   H18U11235   4.865   3.886   8.836 -0.9460  0.2912 -1.1806
  109OSM    C1F11236   4.343   3.057  10.489  0.0170  0.0528  0.2337
  109OSM     OF11237   4.226   3.099  10.499  0.1714  0.2350 -0.5955
  109OSM    C2F11238   4.371   2.931  10.404  0.0126 -0.1044  0.1537
  109OSM    H2F11239   4.281   2.868  10.423  0.1663 -0.5146 -0.4379
  109OSM    H2G11240   4.469   2.896  10.440 -1.5250 -2.4073  2.4713
  109OSM    C3F11241   4.378   2.968  10.250 -0.0312 -0.4235 -0.0565
  109OSM    H3F11242   4.275   2.988  10.213 -1.2079 -0.2653  3.0348
  109OSM    H3G11243   4.401   2.877  10.192 -0.5659  0.0005 -0.9539
  109OSM    C4F11244   4.487   3.070  10.219  0.4658 -0.5684  0.0501
  109OSM    H4F11245   4.581   3.042  10.271 -0.4058 -0.2594  1.9135
  109OSM    H4G11246   4.463   3.168  10.265 -2.6217 -1.9134  1.6650
  109OSM    C5F11247   4.525   3.086  10.077 -0.1979  0.3996 -0.3321
  109OSM    H5F11248   4.561   2.985  10.051  1.3564  0.8998 -0.2378
  109OSM    H5G11249   4.607   3.160  10.064 -1.3595  1.6876 -0.6677
  109OSM    C6F11250   4.418   3.147   9.980  0.2148 -0.7332  0.7865
  109OSM    H6F11251   4.402   3.250  10.018  1.5516 -0.1998 -0.0532
  109OSM    H6G11252   4.324   3.087   9.974  0.5710 -1.2659  0.5321
  109OSM    C7F11253   4.472   3.159   9.836 -0.0430  0.1952 -0.1336
  109OSM    H7F11254   4.512   3.059   9.809 -1.0526 -0.9424  2.2345
  109OSM    H7G11255   4.556   3.230   9.825  0.4414  0.2413  2.9924
  109OSM    C8F11256   4.373   3.208   9.728  0.3356 -0.2722  0.0682
  109OSM    H8F11257   4.362   3.319   9.732  1.2759 -0.1793  2.9270
  109OSM    H8G11258   4.277   3.161   9.759  0.0674 -0.0940 -0.4872
  109OSM    C9F11259   4.429   3.163   9.593 -0.1019  0.8944 -1.2447
  109OSM    H9F11260   4.466   3.059   9.598 -2.7989 -0.0914  0.0290
  109OSM   C10F11261   4.448   3.240   9.484 -0.7190 -0.4639  0.3358
  109OSM   H10F11262   4.501   3.196   9.399  0.7613  1.1691  0.3619
  109OSM   C11F11263   4.403   3.380   9.464  0.0617 -0.3989 -0.7379
  109OSM   H11F11264   4.485   3.449   9.493 -0.3338  0.0835 -0.7587
  109OSM   H11G11265   4.316   3.396   9.531  0.1102  0.2226 -0.8172
  109OSM   C12F11266   4.365   3.415   9.326 -0.1264 -0.0790  0.5977
  109OSM   H12F11267   4.285   3.349   9.288 -0.4603  0.9941 -0.6220
  109OSM   H12G11268   4.450   3.400   9.257 -1.1760 -0.8186 -0.5661
  109OSM   C13F11269   4.312   3.558   9.300  0.3390 -0.0001 -0.7419
  109OSM   H13F11270   4.370   3.644   9.340  0.0501 -0.9296  1.8487
  109OSM   H13G11271   4.213   3.562   9.349  1.2152  0.8887  1.0649
  109OSM   C14F11272   4.274   3.578   9.155 -0.6119 -0.1181  0.2782
  109OSM   H14F11273   4.188   3.647   9.141 -1.0576 -1.0389 -1.9240
  109OSM   H14G11274   4.248   3.482   9.106 -1.4229 -0.1463  0.7517
  109OSM   C15F11275   4.386   3.650   9.075 -0.6221  0.1267  0.2309
  109OSM   H15F11276   4.471   3.579   9.069 -0.0123  0.6203  2.2523
  109OSM   H15G11277   4.428   3.746   9.110  0.0731  1.0412 -2.8206
  109OSM   C16F11278   4.335   3.679   8.928 -0.1060 -0.2747  0.2253
  109OSM   H16F11279   4.254   3.755   8.930  1.8127  1.8547  1.2148
  109OSM   H16G11280   4.294   3.587   8.883 -0.5780  0.5815 -1.1349
  109OSM   C17F11281   4.452   3.731   8.847 -0.6246 -0.3581 -0.1489
  109OSM   H17F11282   4.538   3.660   8.854  1.8933  2.6573  3.0321
  109OSM   H17G11283   4.481   3.828   8.892 -0.0226 -1.4294  1.9520
  109OSM   C18F11284   4.430   3.736   8.695  0.1799  0.2328 -0.1762
  109OSM   H18F11285   4.395   3.633   8.671 -0.5831  0.2755  0.6879
  109OSM   H18G11286   4.521   3.757   8.635  0.9589  1.0858  1.2589
  109OSM   H18H11287   4.347   3.804   8.667 -0.4711 -0.1212  0.8415
  110OSM      N11288   3.998   4.268  11.247  0.3594 -0.4579  0.1435
  110OSM    C1511289   3.987   4.126  11.286  0.0723 -0.1630 -0.1302
  110OSM   H15A11290   3.903   4.092  11.344 -2.0995 -1.8818 -3.9210
  110OSM   H15B11291   4.073   4.083  11.335  0.5913  2.0710  1.0537
  110OSM   H15C11292   3.959   4.066  11.201 -0.3346  0.0429 -0.1456
  110OSM    C1411293   3.864   4.322  11.201 -0.1884  0.5600  0.1772
  110OSM   H14A11294   3.868   4.430  11.192  0.4845  0.5028 -0.2364
  110OSM   H14B11295   3.791   4.296  11.277 -1.1281 -1.7875 -1.3926
  110OSM   H14C11296   3.844   4.286  11.101 -0.4775 -0.1637  0.4940
  110OSM    C1311297   4.039   4.356  11.367 -0.2036  0.4595 -0.6503
  110OSM   H13A11298   4.028   4.461  11.345  0.7843  0.3527 -1.8339
  110OSM   H13B11299   4.141   4.330  11.392 -0.3429 -0.0912 -0.6356
  110OSM   H13C11300   3.982   4.324  11.453  0.9180  0.1193 -0.0106
  110OSM    C1211301   4.105   4.286  11.134 -0.1867  0.1376  0.4264
  110OSM   H12A11302   4.189   4.223  11.159 -0.9684 -2.8862 -3.5029
  110OSM   H12B11303   4.142   4.386  11.118 -1.0036  0.7770  2.2686
  110OSM    C1111304   4.059   4.267  10.985  0.3915 -0.0473  0.1296
  110OSM   H11A11305   4.003   4.177  10.952 -1.4302  1.0371  0.1253
  110OSM   H11B11306   4.153   4.258  10.926 -0.0103 -0.5892 -0.4495
  110OSM      P11307   4.047   4.524  10.916  0.4485  0.2228  0.0941
  110OSM    O1311308   3.941   4.627  10.925  0.3055 -0.0882  0.4488
  110OSM    O1411309   4.161   4.542  11.010  0.2822 -0.4298 -0.3923
  110OSM    O1111310   4.107   4.511  10.775  0.1239 -0.3228  0.0600
  110OSM    O1211311   3.982   4.385  10.944  0.1104  0.9832 -0.5320
  110OSM    C1S11312   4.027   4.450  10.672  0.1732  0.2871 -0.1020
  110OSM    H1S11313   3.917   4.455  10.685 -0.1982 -0.4943 -2.5063
  110OSM    H1T11314   4.061   4.344  10.659 -0.2158  0.0346  0.8805
  110OSM     NF11315   3.945   4.448  10.447  0.2206  0.4748 -0.6967
  110OSM    HNF11316   3.974   4.357  10.417 -2.6809 -1.3724  1.4898
  110OSM    C2S11317   4.044   4.515  10.534  1.0086  0.5762 -0.5916
  110OSM    H2S11318   4.029   4.625  10.545  1.7170  0.7288 -1.0778
  110OSM    C3S11319   4.191   4.496  10.483  0.3811  0.3228 -0.2298
  110OSM    H3S11320   4.198   4.386  10.470  1.1002  0.4386 -0.8787
  110OSM     O311321   4.287   4.528  10.577  0.3827 -0.2866  0.6035
  110OSM    HO311322   4.228   4.531  10.652 -1.8033 -1.4446 -0.9656
  110OSM    C4S11323   4.211   4.555  10.347 -0.4654  0.3221  0.1813
  110OSM    H4S11324   4.206   4.485  10.262  1.4652 -0.1104  0.3799
  110OSM    C5S11325   4.242   4.686  10.319 -0.2169  0.1038  0.0308
  110OSM    H5S11326   4.269   4.753  10.401 -1.4061 -0.2948  0.7745
  110OSM    C6S11327   4.268   4.760  10.184 -0.8688  0.7352 -0.3175
  110OSM    H6S11328   4.283   4.868  10.202 -0.8696  0.6841 -0.0140
  110OSM    H6T11329   4.186   4.743  10.111  0.0068 -0.4828 -1.0712
  110OSM    C7S11330   4.388   4.701  10.110 -0.2322 -0.3982 -0.0388
  110OSM    H7S11331   4.358   4.597  10.085  0.3351 -0.2790 -1.2848
  110OSM    H7T11332   4.478   4.698  10.175 -0.1569 -1.4363 -0.1695
  110OSM    C8S11333   4.424   4.777   9.979  0.3317  0.0349  0.1086
  110OSM    H8S11334   4.510   4.733   9.924  0.2113 -1.2612  0.9083
  110OSM    H8T11335   4.450   4.880  10.012 -0.9243  0.3064  0.2845
  110OSM    C9S11336   4.309   4.794   9.871  0.1649  0.3021  0.5604
  110OSM    H9S11337   4.221   4.841   9.920 -0.1861  0.1963  0.0361
  110OSM    H9T11338   4.291   4.691   9.834  0.2954  0.9218 -1.3036
  110OSM   C10S11339   4.355   4.887   9.751 -0.5144 -0.5272  0.4182
  110OSM   H10S11340   4.465   4.877   9.750 -0.3867  0.5816 -1.6803
  110OSM   H10T11341   4.332   4.990   9.785 -1.6905 -1.0692  1.3652
  110OSM   C11S11342   4.309   4.834   9.613 -1.1339  0.3408  0.0511
  110OSM   H11S11343   4.199   4.821   9.607 -0.8690 -2.1051 -0.5593
  110OSM   H11T11344   4.363   4.738   9.602  0.1998  0.9274  1.3143
  110OSM   C12S11345   4.372   4.918   9.507  0.2483 -0.5887  1.0813
  110OSM   H12S11346   4.481   4.905   9.523  0.2453 -3.8940 -0.6968
  110OSM   H12T11347   4.340   5.023   9.525  0.2364 -0.5478  0.8326
  110OSM   C13S11348   4.335   4.878   9.359  0.3088  0.2623 -0.6426
  110OSM   H13S11349   4.375   4.962   9.297 -1.2283 -0.2796 -2.4810
  110OSM   H13T11350   4.226   4.868   9.340 -0.0281 -0.3625  1.4236
  110OSM   C14S11351   4.410   4.754   9.323  0.3746 -0.1011  0.6235
  110OSM   H14S11352   4.389   4.673   9.396 -1.2229 -0.2301  0.0569
  110OSM   H14T11353   4.514   4.794   9.328 -0.5108  2.5031 -0.4380
  110OSM   C15S11354   4.372   4.710   9.182  0.4196 -0.8083 -0.0490
  110OSM   H15S11355   4.377   4.797   9.113 -0.7616  0.0179  0.8739
  110OSM   H15T11356   4.267   4.673   9.183 -1.2328  3.2486 -1.2631
  110OSM   C16S11357   4.478   4.615   9.131 -0.3256  0.6257  0.1197
  110OSM   H16S11358   4.461   4.516   9.179 -1.5111  0.2365 -1.0372
  110OSM   H16T11359   4.582   4.647   9.154 -0.0979  0.9324 -1.2034
  110OSM   C17S11360   4.473   4.599   8.976 -0.1804 -0.0250  0.7032
  110OSM   H17S11361   4.557   4.532   8.946 -0.3485 -0.2196  0.6606
  110OSM   H17T11362   4.488   4.704   8.944 -0.0240  0.1090  1.2141
  110OSM   C18S11363   4.346   4.545   8.914  0.2360  0.5951  0.6564
  110OSM   H18S11364   4.269   4.622   8.936  2.1471  2.4003  1.4259
  110OSM   H18T11365   4.318   4.449   8.962 -0.5021 -1.4053 -3.3307
  110OSM   H18U11366   4.352   4.526   8.804 -1.5927  0.2950  0.5849
  110OSM    C1F11367   3.815   4.483  10.444 -0.0674  0.5597  0.3599
  110OSM     OF11368   3.781   4.592  10.484  0.0863  0.0313 -0.0347
  110OSM    C2F11369   3.717   4.389  10.381  0.4563 -0.4293 -0.5913
  110OSM    H2F11370   3.676   4.327  10.463  1.9018  0.5990  0.9694
  110OSM    H2G11371   3.775   4.320  10.316  2.2115  0.3483  0.0784
  110OSM    C3F11372   3.603   4.454  10.312  0.6042 -0.1371  0.1226
  110OSM    H3F11373   3.534   4.503  10.383 -1.6735  0.1225 -2.1277
  110OSM    H3G11374   3.544   4.374  10.260 -2.4370  1.1819  1.3103
  110OSM    C4F11375   3.646   4.553  10.191  0.3742 -0.0002  0.2193
  110OSM    H4F11376   3.728   4.511  10.130 -0.1270 -0.6061 -0.0403
  110OSM    H4G11377   3.692   4.635  10.250  0.4256  1.9086 -2.3133
  110OSM    C5F11378   3.540   4.605  10.098  0.0293 -0.5720  0.2548
  110OSM    H5F11379   3.596   4.677  10.035 -1.7254 -0.3046 -1.0494
  110OSM    H5G11380   3.465   4.675  10.140  2.1500  2.4460 -0.6626
  110OSM    C6F11381   3.464   4.496  10.029 -0.7991 -0.0468 -0.0295
  110OSM    H6F11382   3.401   4.437  10.099 -2.3583  0.0089 -1.3169
  110OSM    H6G11383   3.527   4.432   9.963 -1.5100 -1.3478  0.5019
  110OSM    C7F11384   3.358   4.548   9.929  0.4839  0.1721  0.5471
  110OSM    H7F11385   3.281   4.611   9.980 -1.3611 -0.3766 -1.4234
  110OSM    H7G11386   3.294   4.466   9.891  1.2981  0.4539 -1.5439
  110OSM    C8F11387   3.420   4.635   9.816  0.2098 -0.2916 -0.5427
  110OSM    H8F11388   3.476   4.719   9.863 -2.1149  0.8099  0.4155
  110OSM    H8G11389   3.328   4.665   9.761  0.1633  0.6118  0.0101
  110OSM    C9F11390   3.515   4.561   9.721  0.4794  0.1744 -0.2014
  110OSM    H9F11391   3.593   4.495   9.763  0.4187  0.0990 -0.2065
  110OSM   C10F11392   3.491   4.560   9.588 -0.1828 -0.3445 -0.0776
  110OSM   H10F11393   3.559   4.505   9.520  2.5866  1.5257  1.0024
  110OSM   C11F11394   3.394   4.635   9.499 -0.0891 -0.0428  0.1054
  110OSM   H11F11395   3.457   4.668   9.414  0.3050 -2.1540 -0.4633
  110OSM   H11G11396   3.339   4.723   9.540 -1.9024 -0.9398 -0.2904
  110OSM   C12F11397   3.282   4.542   9.455  0.4089 -0.7872 -0.4987
  110OSM   H12F11398   3.216   4.511   9.539  0.7436 -2.0501 -0.6773
  110OSM   H12G11399   3.312   4.439   9.425 -0.9380 -1.6655  0.9936
  110OSM   C13F11400   3.180   4.586   9.345 -0.3892 -0.0760  0.2092
  110OSM   H13F11401   3.163   4.695   9.339  1.3882  0.1615 -1.2991
  110OSM   H13G11402   3.088   4.535   9.380 -0.2187 -0.4830  0.0755
  110OSM   C14F11403   3.211   4.555   9.202  0.0203 -0.0170  0.1380
  110OSM   H14F11404   3.121   4.583   9.143 -0.1868  2.1592  1.4187
  110OSM   H14G11405   3.239   4.448   9.191  1.2593 -0.2488  4.1058
  110OSM   C15F11406   3.325   4.642   9.142 -0.3995  0.5422  0.3032
  110OSM   H15F11407   3.404   4.637   9.220 -1.7970  2.6502  1.9974
  110OSM   H15G11408   3.299   4.750   9.145  0.2747  0.7040  2.8215
  110OSM   C16F11409   3.354   4.590   9.006 -0.1686  0.0659 -0.6284
  110OSM   H16F11410   3.270   4.597   8.935 -1.8631  0.3781  1.3053
  110OSM   H16G11411   3.378   4.481   9.008  1.0332  0.3242  0.2489
  110OSM   C17F11412   3.478   4.659   8.950 -0.3403 -0.0676  0.3195
  110OSM   H17F11413   3.566   4.662   9.017  0.1500  1.6195 -0.3383
  110OSM   H17G11414   3.434   4.760   8.933 -0.2278 -0.3385 -1.9940
  110OSM   C18F11415   3.510   4.590   8.821 -0.5126  0.0367  0.7620
  110OSM   H18F11416   3.589   4.637   8.758  1.5132 -1.7798  1.7898
  110OSM   H18G11417   3.424   4.577   8.752 -0.0264  1.8567 -0.2405
  110OSM   H18H11418   3.546   4.488   8.848  2.5817  1.1221  1.1770
  111OSM      N11419   6.465   0.791  10.958  0.1708  0.7615 -0.2997
  111OSM    C1511420   6.480   0.931  10.997 -0.0716 -0.1558  0.1266
  111OSM   H15A11421   6.470   0.949  11.103  1.4055  1.8407 -0.0196
  111OSM   H15B11422   6.416   1.005  10.952  2.2200  1.1111 -1.2362
  111OSM   H15C11423   6.582   0.953  10.969  0.1722 -1.2779  0.0817
  111OSM    C1411424   6.590   0.713  11.007 -0.3635 -0.2804 -0.1835
  111OSM   H14A11425   6.673   0.755  10.952  0.2244 -0.4283  0.5671
  111OSM   H14B11426   6.585   0.608  10.982 -0.5450  0.5501 -4.4076
  111OSM   H14C11427   6.606   0.723  11.113  0.9206 -0.1574 -0.3779
  111OSM    C1311428   6.349   0.730  11.032  0.0404 -0.4674 -0.2078
  111OSM   H13A11429   6.311   0.634  11.000 -1.3075  0.2423 -0.8123
  111OSM   H13B11430   6.262   0.793  11.019  0.0038 -0.4172  0.2636
  111OSM   H13C11431   6.343   0.728  11.140  1.0779 -0.8059 -0.1399
  111OSM    C1211432   6.446   0.764  10.813  0.1922 -0.0157 -0.0816
  111OSM   H12A11433   6.370   0.834  10.779  3.0051  2.6173 -1.4980
  111OSM   H12B11434   6.391   0.671  10.814 -0.5240  0.3312  2.9459
  111OSM    C1111435   6.563   0.777  10.717 -0.1055 -1.1998  0.1665
  111OSM   H11A11436   6.518   0.763  10.617 -0.3190 -2.4333  0.4171
  111OSM   H11B11437   6.633   0.693  10.735  0.4528 -0.7770 -0.0178
  111OSM      P11438   6.773   0.939  10.741 -0.0430 -0.2443 -0.3193
  111OSM    O1311439   6.806   1.078  10.790  0.3556  0.2791  0.3560
  111OSM    O1411440   6.840   0.830  10.813 -0.3603  0.0876  0.5255
  111OSM    O1111441   6.812   0.927  10.585  0.1430 -0.3955 -0.0525
  111OSM    O1211442   6.626   0.908  10.733 -0.2370  0.1006 -0.4510
  111OSM    C1S11443   6.742   1.002  10.484 -0.5521 -0.0131 -1.1956
  111OSM    H1S11444   6.767   1.110  10.480 -0.7310 -0.0011 -2.4655
  111OSM    H1T11445   6.633   0.996  10.508 -0.7769  1.2451 -1.8179
  111OSM     NF11446   6.670   1.013  10.245 -0.8361 -0.5296 -0.2182
  111OSM    HNF11447   6.573   0.995  10.229 -2.0113  2.4086  2.4698
  111OSM    C2S11448   6.752   0.940  10.344  0.2768  0.2210 -0.2573
  111OSM    H2S11449   6.859   0.939  10.315 -0.4563  0.9348 -3.4014
  111OSM    C3S11450   6.712   0.793  10.341  0.9174 -0.3085 -0.5616
  111OSM    H3S11451   6.603   0.792  10.363  0.1767  1.9698 -3.4578
  111OSM     O311452   6.766   0.704  10.437  0.0756 -0.8632 -0.1919
  111OSM    HO311453   6.762   0.751  10.521 -3.8392 -0.3101 -0.5065
  111OSM    C4S11454   6.735   0.737  10.201  0.1107 -0.0083  0.1511
  111OSM    H4S11455   6.653   0.766  10.133  0.9190  1.6262 -0.1773
  111OSM    C5S11456   6.843   0.681  10.148  0.0630 -0.2728  0.0009
  111OSM    H5S11457   6.936   0.675  10.207 -0.3171 -1.0443  0.5474
  111OSM    C6S11458   6.851   0.643  10.011  0.2963  0.4547 -0.4560
  111OSM    H6S11459   6.761   0.584   9.984 -0.4638  1.6229 -0.5403
  111OSM    H6T11460   6.939   0.574  10.009 -1.0589 -1.3246 -0.6873
  111OSM    C7S11461   6.872   0.754   9.906  0.4849 -0.3043 -0.1334
  111OSM    H7S11462   6.959   0.822   9.919  0.9577 -0.9976  0.4385
  111OSM    H7T11463   6.790   0.828   9.896  2.5591  2.5502  2.1129
  111OSM    C8S11464   6.881   0.686   9.768 -0.1953 -0.5877  0.2636
  111OSM    H8S11465   6.890   0.767   9.693 -0.8103  0.8565  1.6803
  111OSM    H8T11466   6.799   0.618   9.738 -1.2552 -0.1473  1.9863
  111OSM    C9S11467   7.015   0.606   9.756  0.2528  0.9967 -0.0056
  111OSM    H9S11468   6.992   0.516   9.818 -1.6059  1.2068 -0.3529
  111OSM    H9T11469   7.097   0.661   9.808 -0.6068  0.9359  1.4883
  111OSM   C10S11470   7.039   0.547   9.613  0.7460  0.0060  0.7137
  111OSM   H10S11471   6.942   0.533   9.561  1.1048  0.4603 -0.1064
  111OSM   H10T11472   7.096   0.452   9.612  0.1123 -0.4013 -1.3332
  111OSM   C11S11473   7.130   0.644   9.539 -0.6878  0.0161 -0.3633
  111OSM   H11S11474   7.223   0.657   9.599 -1.1467  1.2206  0.1242
  111OSM   H11T11475   7.094   0.749   9.528  0.3273  0.3486 -0.6046
  111OSM   C12S11476   7.165   0.603   9.397  0.1023  0.5252  1.0628
  111OSM   H12S11477   7.211   0.502   9.403  0.2738  0.6084  1.1509
  111OSM   H12T11478   7.227   0.680   9.347 -1.6684  1.7997  0.7457
  111OSM   C13S11479   7.044   0.587   9.302  0.3107 -0.4392 -0.2913
  111OSM   H13S11480   6.984   0.679   9.318  0.3426 -0.1281 -1.7597
  111OSM   H13T11481   6.979   0.504   9.335 -1.3096  0.6155 -0.7146
  111OSM   C14S11482   7.070   0.586   9.148 -0.3786 -0.0597  0.4770
  111OSM   H14S11483   6.972   0.594   9.097 -0.2855 -2.0250 -0.0911
  111OSM   H14T11484   7.102   0.485   9.115  0.1592  0.2998 -0.1312
  111OSM   C15S11485   7.166   0.690   9.104  0.1405 -0.2273  0.0341
  111OSM   H15S11486   7.266   0.664   9.144  0.5661  2.6864  1.1123
  111OSM   H15T11487   7.142   0.793   9.138 -1.3449 -0.5288 -0.0526
  111OSM   C16S11488   7.181   0.712   8.953 -0.4246 -0.2264  0.4964
  111OSM   H16S11489   7.239   0.807   8.946 -0.0615 -0.3970  1.0526
  111OSM   H16T11490   7.088   0.747   8.903 -0.3098 -0.4924  0.1014
  111OSM   C17S11491   7.250   0.597   8.887 -0.0588 -0.0128  0.1527
  111OSM   H17S11492   7.168   0.524   8.874  0.4007 -0.8031  1.4187
  111OSM   H17T11493   7.332   0.552   8.947 -1.2692  0.1796  2.0250
  111OSM   C18S11494   7.313   0.637   8.755 -0.7990 -0.2035 -0.2020
  111OSM   H18S11495   7.232   0.647   8.679  0.4492 -0.9354 -1.6870
  111OSM   H18T11496   7.369   0.551   8.712  1.1544  1.4552 -1.1661
  111OSM   H18U11497   7.386   0.719   8.762 -1.2571  0.4155 -1.9667
  111OSM    C1F11498   6.711   1.129  10.196 -0.1744  0.0718 -0.3582
  111OSM     OF11499   6.823   1.175  10.215 -0.0725 -0.2034  0.2020
  111OSM    C2F11500   6.611   1.210  10.121  0.1436 -0.3878  0.3180
  111OSM    H2F11501   6.604   1.298  10.188 -0.5588 -1.3944  1.6113
  111OSM    H2G11502   6.513   1.158  10.114 -0.0885  0.2756 -2.2735
  111OSM    C3F11503   6.650   1.258   9.979 -0.8909  0.1543  0.1859
  111OSM    H3F11504   6.741   1.316  10.006  0.6788 -1.5828 -1.1147
  111OSM    H3G11505   6.580   1.329   9.931 -1.1025 -1.6016 -2.2761
  111OSM    C4F11506   6.687   1.137   9.886  0.3157  0.6798  0.6727
  111OSM    H4F11507   6.595   1.105   9.833  0.0932  1.1623  0.7577
  111OSM    H4G11508   6.719   1.053   9.952 -2.1245 -0.9404 -0.0767
  111OSM    C5F11509   6.785   1.178   9.776  0.0132 -0.2445  0.0355
  111OSM    H5F11510   6.867   1.221   9.837 -1.7659  0.7601  1.8258
  111OSM    H5G11511   6.746   1.251   9.702 -0.5703  0.2784  0.8520
  111OSM    C6F11512   6.840   1.059   9.697 -0.1019 -0.5643 -0.5000
  111OSM    H6F11513   6.870   0.976   9.764  1.1746  1.7687  2.0236
  111OSM    H6G11514   6.934   1.092   9.647 -0.0521  1.6144  0.9214
  111OSM    C7F11515   6.744   1.021   9.580 -0.7466  0.0814 -0.6496
  111OSM    H7F11516   6.725   1.112   9.519  1.7056 -0.5602 -2.5632
  111OSM    H7G11517   6.651   0.978   9.622 -0.5313  0.0962 -0.1541
  111OSM    C8F11518   6.808   0.925   9.485 -0.5862  0.0715 -0.2746
  111OSM    H8F11519   6.733   0.924   9.403 -1.1391 -1.3188  0.2341
  111OSM    H8G11520   6.808   0.820   9.522 -0.0227 -0.2599 -1.1680
  111OSM    C9F11521   6.949   0.957   9.431 -0.1586  0.3848 -0.2233
  111OSM    H9F11522   7.023   0.972   9.511 -0.6956  2.5943 -0.0569
  111OSM   C10F11523   6.982   0.965   9.294 -0.3761  0.8096 -0.3778
  111OSM   H10F11524   7.083   0.994   9.264  0.1514  3.0693  2.9805
  111OSM   C11F11525   6.890   0.935   9.183 -0.4530 -0.2885 -0.1921
  111OSM   H11F11526   6.792   0.899   9.219  0.5866 -3.7413 -0.4904
  111OSM   H11G11527   6.932   0.862   9.111 -0.2987  0.3102 -0.7159
  111OSM   C12F11528   6.842   1.044   9.096  0.6806 -1.0172 -0.5769
  111OSM   H12F11529   6.923   1.102   9.047  0.7972  2.1813  2.9331
  111OSM   H12G11530   6.792   1.121   9.158  1.3305 -0.6929 -0.4486
  111OSM   C13F11531   6.734   1.000   8.990 -0.2950 -0.1285  0.4255
  111OSM   H13F11532   6.650   0.939   9.031  0.0699 -2.1518 -1.6336
  111OSM   H13G11533   6.795   0.924   8.937 -1.1758 -2.5804  2.6716
  111OSM   C14F11534   6.706   1.114   8.882  0.2991 -0.2031  0.6778
  111OSM   H14F11535   6.806   1.130   8.837 -0.8806  0.6662 -1.8342
  111OSM   H14G11536   6.668   1.208   8.926 -0.9620  0.5264 -1.7530
  111OSM   C15F11537   6.606   1.073   8.780  0.0179 -0.4943  0.1882
  111OSM   H15F11538   6.504   1.078   8.826 -0.6765  1.7575 -1.4137
  111OSM   H15G11539   6.638   0.971   8.749 -0.1556 -0.3975 -0.3169
  111OSM   C16F11540   6.600   1.163   8.658  0.4492 -0.2659 -0.2887
  111OSM   H16F11541   6.588   1.269   8.689 -0.4409 -0.0555 -1.3199
  111OSM   H16G11542   6.515   1.134   8.594 -1.1616  1.8235  0.7601
  111OSM   C17F11543   6.718   1.142   8.569  0.0411  0.6305  0.0043
  111OSM   H17F11544   6.729   1.032   8.557 -1.5783  0.3222  1.0904
  111OSM   H17G11545   6.810   1.183   8.616  0.0498 -0.2122  0.7368
  111OSM   C18F11546   6.716   1.210   8.430  0.0371  0.3160 -0.8852
  111OSM   H18F11547   6.817   1.212   8.382  0.8887  1.3733  0.8413
  111OSM   H18G11548   6.684   1.316   8.442  0.5131  0.4288 -0.5645
  111OSM   H18H11549   6.651   1.146   8.367  0.9773 -1.9828  0.3647
  112OSM      N11550   4.857   6.687  10.763  0.1196 -0.3544  0.2685
  112OSM    C1511551   4.762   6.609  10.856  0.2106  0.7205  0.1778
  112OSM   H15A11552   4.818   6.529  10.904 -0.4454 -0.0460 -0.2968
  112OSM   H15B11553   4.681   6.564  10.800 -1.3348  1.4739  1.7040
  112OSM   H15C11554   4.730   6.673  10.937  1.7649  0.3314  1.1394
  112OSM    C1411555   4.773   6.797  10.697  0.6032 -0.3230 -0.2158
  112OSM   H14A11556   4.703   6.763  10.623  1.9192  0.3173 -1.8265
  112OSM   H14B11557   4.824   6.882  10.653 -1.8543  0.5878 -1.5063
  112OSM   H14C11558   4.722   6.857  10.772 -1.9216 -0.7194 -1.5199
  112OSM    C1311559   4.958   6.753  10.851  0.1418  0.7006 -0.1669
  112OSM   H13A11560   4.915   6.830  10.913  1.0891  1.2697 -0.2125
  112OSM   H13B11561   5.024   6.805  10.784  0.4316  0.0184 -0.4219
  112OSM   H13C11562   5.012   6.675  10.903 -2.2949 -0.0885  1.3584
  112OSM    C1211563   4.918   6.604  10.654 -0.4733 -0.1281 -0.2462
  112OSM   H12A11564   4.969   6.530  10.714 -1.1087  0.2596  0.7957
  112OSM   H12B11565   4.993   6.662  10.602  0.5519  1.4355  2.7508
  112OSM    C1111566   4.822   6.530  10.559 -0.4180  0.2149 -0.7241
  112OSM   H11A11567   4.875   6.500  10.467 -1.8638  0.5086 -1.6868
  112OSM   H11B11568   4.744   6.599  10.521 -2.0784 -1.4106 -0.4315
  112OSM      P11569   4.804   6.291  10.652 -0.2642 -0.4079 -0.0870
  112OSM    O1311570   4.940   6.305  10.708  0.3435  0.0157 -0.7262
  112OSM    O1411571   4.707   6.214  10.734 -0.0396 -0.2540  0.3575
  112OSM    O1111572   4.812   6.220  10.512 -0.3861 -0.1103  0.0325
  112OSM    O1211573   4.739   6.432  10.631 -1.1097 -0.0395  0.2112
  112OSM    C1S11574   4.694   6.180  10.441 -0.4761 -0.3032  0.3384
  112OSM    H1S11575   4.621   6.258  10.412 -1.5072 -1.9789 -1.8502
  112OSM    H1T11576   4.632   6.125  10.515 -2.5092  1.0955 -0.2726
  112OSM     NF11577   4.626   6.068  10.215  0.3034  0.4656  0.0402
  112OSM    HNF11578   4.571   5.985  10.208 -1.4219  1.3828  1.8357
  112OSM    C2S11579   4.729   6.088  10.318  1.2211  0.2011  0.4590
  112OSM    H2S11580   4.829   6.115  10.279  0.8124  1.4792  0.2614
  112OSM    C3S11581   4.768   5.947  10.371  0.7445 -0.2220  0.4093
  112OSM    H3S11582   4.675   5.894  10.400  0.4209  0.1117  0.0008
  112OSM     O311583   4.837   5.957  10.498  0.9599  0.6421  0.3090
  112OSM    HO311584   4.842   6.048  10.528  2.9004  1.0383 -1.0190
  112OSM    C4S11585   4.848   5.856  10.280  0.3974  1.0291  0.3726
  112OSM    H4S11586   4.792   5.794  10.208 -0.9761  1.5202  0.9687
  112OSM    C5S11587   4.977   5.830  10.291  0.4195 -0.2724  0.1153
  112OSM    H5S11588   5.026   5.863  10.383 -0.5505  1.9420 -0.1076
  112OSM    C6S11589   5.057   5.738  10.205  0.0198 -0.1560 -1.4870
  112OSM    H6S11590   5.071   5.643  10.261  1.6984 -0.0920 -1.7482
  112OSM    H6T11591   5.149   5.796  10.182 -0.9818  3.3932  2.2328
  112OSM    C7S11592   4.993   5.700  10.067 -0.0888 -0.7755  0.6928
  112OSM    H7S11593   4.975   5.799  10.019 -1.5133 -0.4731  1.7834
  112OSM    H7T11594   4.905   5.635  10.080  0.2229 -1.1994  0.6926
  112OSM    C8S11595   5.086   5.624   9.974 -0.4071  0.2418  0.0955
  112OSM    H8S11596   5.122   5.527  10.011 -2.4274 -0.8521 -0.6305
  112OSM    H8T11597   5.172   5.693   9.957  0.3413 -0.1532  2.0445
  112OSM    C9S11598   5.010   5.615   9.837  0.2091  0.4180 -1.0030
  112OSM    H9S11599   4.977   5.718   9.814  0.2701  0.2895 -1.6926
  112OSM    H9T11600   4.923   5.546   9.853  2.3344 -1.8461  2.0305
  112OSM   C10S11601   5.102   5.583   9.720 -0.2971 -0.0857  0.6534
  112OSM   H10S11602   5.181   5.524   9.772 -0.5002 -0.0052  1.0534
  112OSM   H10T11603   5.143   5.678   9.679 -1.8013 -0.1484 -1.1419
  112OSM   C11S11604   5.036   5.506   9.606 -0.0329 -0.1734 -0.0935
  112OSM   H11S11605   4.947   5.568   9.584  0.0024 -0.8010 -2.3098
  112OSM   H11T11606   5.008   5.401   9.630  1.1082 -0.3840  0.3839
  112OSM   C12S11607   5.126   5.503   9.480  0.3727 -0.1619 -0.4990
  112OSM   H12S11608   5.219   5.443   9.492  0.2405 -0.2888 -0.1019
  112OSM   H12T11609   5.150   5.610   9.458  1.5160 -0.2807  0.0671
  112OSM   C13S11610   5.062   5.438   9.352 -0.1568  0.4389 -0.1340
  112OSM   H13S11611   5.054   5.328   9.369  1.1663  0.0005 -1.9850
  112OSM   H13T11612   5.127   5.459   9.264  1.1432 -0.1349  0.6597
  112OSM   C14S11613   4.921   5.489   9.324 -0.2933  0.7020  0.9566
  112OSM   H14S11614   4.918   5.600   9.326 -1.5879  0.6793  0.9031
  112OSM   H14T11615   4.854   5.450   9.403 -1.4226 -0.3467 -0.4556
  112OSM   C15S11616   4.850   5.431   9.198  0.1755  0.6961 -0.2353
  112OSM   H15S11617   4.891   5.477   9.105  1.7219  0.2092  0.1782
  112OSM   H15T11618   4.743   5.459   9.204 -0.1931 -0.8619  1.2736
  112OSM   C16S11619   4.867   5.281   9.172 -0.1057 -1.2466  0.3755
  112OSM   H16S11620   4.972   5.246   9.178 -0.1996 -1.3122  1.7520
  112OSM   H16T11621   4.824   5.277   9.069  1.2042  0.0682 -0.2626
  112OSM   C17S11622   4.777   5.189   9.254 -0.0820  0.6638 -0.1054
  112OSM   H17S11623   4.670   5.216   9.242 -0.1467  0.7053  0.5357
  112OSM   H17T11624   4.809   5.202   9.359  0.6467  0.1671 -0.2603
  112OSM   C18S11625   4.796   5.045   9.226 -0.7327  0.1541 -0.0760
  112OSM   H18S11626   4.731   4.985   9.293 -2.0611  2.6918  1.0177
  112OSM   H18T11627   4.902   5.013   9.239 -0.8120  0.0262  0.2520
  112OSM   H18U11628   4.760   5.002   9.130  0.1515 -2.6766  0.7508
  112OSM    C1F11629   4.596   6.160  10.127 -0.3545 -0.2455  0.5997
  112OSM     OF11630   4.647   6.272  10.133 -0.2576  0.0077  0.2096
  112OSM    C2F11631   4.482   6.124  10.032 -0.0972  0.4526 -0.5206
  112OSM    H2F11632   4.398   6.193  10.056 -0.7328 -0.3918 -0.2941
  112OSM    H2G11633   4.451   6.018  10.039 -2.5944  1.2027  1.2416
  112OSM    C3F11634   4.544   6.134   9.888  0.0453  0.3348  1.3597
  112OSM    H3F11635   4.614   6.052   9.863 -0.1331  0.9319 -1.4465
  112OSM    H3G11636   4.602   6.229   9.887  2.4992 -1.0813  0.1220
  112OSM    C4F11637   4.446   6.131   9.772  0.7911 -0.0553 -0.4486
  112OSM    H4F11638   4.372   6.214   9.771 -0.2421 -0.8662  1.6030
  112OSM    H4G11639   4.380   6.041   9.765 -1.2984  1.4425 -1.0925
  112OSM    C5F11640   4.518   6.149   9.635 -0.6574 -0.2018  0.4097
  112OSM    H5F11641   4.560   6.050   9.609  0.8834  1.1838 -2.9072
  112OSM    H5G11642   4.608   6.214   9.643 -0.7369 -0.0987  0.4797
  112OSM    C6F11643   4.431   6.191   9.523 -0.5572 -0.0773 -0.1225
  112OSM    H6F11644   4.389   6.291   9.545  0.2328 -0.1338  1.8898
  112OSM    H6G11645   4.347   6.118   9.514 -2.2697  1.7129  0.6761
  112OSM    C7F11646   4.516   6.195   9.393  0.2348 -0.2540  0.0158
  112OSM    H7F11647   4.536   6.088   9.371 -1.5909 -0.3457 -1.4364
  112OSM    H7G11648   4.600   6.267   9.401 -0.9601  1.3285 -1.0280
  112OSM    C8F11649   4.436   6.235   9.267 -0.7911 -0.6483 -0.1827
  112OSM    H8F11650   4.496   6.201   9.180 -0.4632 -4.3703  1.2937
  112OSM    H8G11651   4.451   6.345   9.260 -0.6130 -0.7615 -2.0315
  112OSM    C9F11652   4.284   6.209   9.270 -0.4042 -0.4601  0.4201
  112OSM    H9F11653   4.238   6.224   9.369  1.1659  1.3945  0.9225
  112OSM   C10F11654   4.207   6.194   9.159 -0.2200  0.0010 -0.2132
  112OSM   H10F11655   4.098   6.193   9.171 -0.3401  1.1137 -1.1109
  112OSM   C11F11656   4.255   6.171   9.017  0.2514  0.0002  0.2025
  112OSM   H11F11657   4.230   6.069   8.980  1.3587 -0.3298  0.3266
  112OSM   H11G11658   4.364   6.176   8.996 -0.0334  0.0802 -1.3736
  112OSM   C12F11659   4.189   6.281   8.921 -0.5831 -0.0124  0.1639
  112OSM   H12F11660   4.265   6.306   8.844  0.0122  2.7390  1.5171
  112OSM   H12G11661   4.180   6.380   8.970  1.3384  2.1704 -3.4894
  112OSM   C13F11662   4.059   6.237   8.857  0.1728 -0.2748 -0.6314
  112OSM   H13F11663   4.003   6.173   8.928  1.2179 -3.2328 -2.3108
  112OSM   H13G11664   4.082   6.165   8.776 -1.1340 -0.9051 -0.4502
  112OSM   C14F11665   3.977   6.357   8.805  0.2574  0.4076  0.1988
  112OSM   H14F11666   4.057   6.430   8.780  0.3435  0.5879  0.9659
  112OSM   H14G11667   3.920   6.410   8.883 -0.3169  0.2955 -0.1408
  112OSM   C15F11668   3.879   6.332   8.688  0.0772 -0.0385 -0.4551
  112OSM   H15F11669   3.787   6.387   8.714  1.5058  2.1401  0.2861
  112OSM   H15G11670   3.848   6.226   8.691  0.4369 -0.1517 -0.6625
  112OSM   C16F11671   3.921   6.376   8.547  0.2855 -0.7228  0.6703
  112OSM   H16F11672   4.009   6.311   8.525 -0.3180 -1.9198  1.6718
  112OSM   H16G11673   3.957   6.481   8.539  1.1065 -1.0520 -0.2408
  112OSM   C17F11674   3.806   6.369   8.439 -0.0357  0.5392 -0.2472
  112OSM   H17F11675   3.719   6.418   8.488  0.1485  0.7620 -0.1430
  112OSM   H17G11676   3.775   6.263   8.426  2.1722 -0.1645 -0.1729
  112OSM   C18F11677   3.843   6.428   8.304  0.9721 -0.0103  0.6291
  112OSM   H18F11678   3.944   6.390   8.279  0.2063 -2.1962  0.6416
  112OSM   H18G11679   3.823   6.538   8.306 -0.9903 -0.1009 -3.3314
  112OSM   H18H11680   3.769   6.389   8.231 -0.5172 -0.1637  2.1676
  113OSM      N11681   5.729   5.488  11.031  0.5331 -0.3211  0.5820
  113OSM    C1511682   5.680   5.451  11.167  0.3465  0.0736 -0.4491
  113OSM   H15A11683   5.739   5.374  11.213  0.8471  0.8595  0.2479
  113OSM   H15B11684   5.582   5.406  11.157  0.5349 -0.7090  0.9205
  113OSM   H15C11685   5.677   5.540  11.229  2.1283 -0.8500  1.0548
  113OSM    C1411686   5.863   5.546  11.051 -0.5194 -0.4269 -0.2108
  113OSM   H14A11687   5.901   5.586  10.958 -0.9247  0.8689  0.1568
  113OSM   H14B11688   5.933   5.472  11.087  0.3721 -0.2798 -1.5889
  113OSM   H14C11689   5.850   5.630  11.117  0.3130  1.7184 -2.6037
  113OSM    C1311690   5.750   5.362  10.953  0.4613  0.4685  0.3230
  113OSM   H13A11691   5.816   5.382  10.869  1.9094  1.0970  1.5617
  113OSM   H13B11692   5.661   5.322  10.907  0.6879 -0.3624  0.5800
  113OSM   H13C11693   5.799   5.285  11.011  0.5508 -2.0002 -2.7092
  113OSM    C1211694   5.632   5.591  10.962  0.2302  0.4724 -0.2638
  113OSM   H12A11695   5.535   5.547  10.941  0.3615  0.8875 -1.9189
  113OSM   H12B11696   5.671   5.618  10.865 -1.0269  0.1443 -0.8780
  113OSM    C1111697   5.614   5.725  11.038  0.0258 -0.7584 -0.0063
  113OSM   H11A11698   5.555   5.703  11.129  0.9470  0.0516  0.8181
  113OSM   H11B11699   5.541   5.776  10.972 -1.1348 -3.1055 -0.6408
  113OSM      P11700   5.798   5.906  10.949  0.8791  0.0129 -0.2879
  113OSM    O1311701   5.705   6.026  10.943 -0.1889  0.1864 -0.8515
  113OSM    O1411702   5.950   5.919  10.973  0.5591 -0.0563  0.3672
  113OSM    O1111703   5.770   5.832  10.810  0.1491  0.2371 -0.1015
  113OSM    O1211704   5.733   5.804  11.060  0.0243  0.3187  0.1397
  113OSM    C1S11705   5.830   5.890  10.690 -0.3293  0.0676 -0.8111
  113OSM    H1S11706   5.940   5.890  10.704 -0.3303 -0.6217 -0.7808
  113OSM    H1T11707   5.798   5.996  10.686 -0.3508  0.0450 -1.3200
  113OSM     NF11708   5.863   5.871  10.439  1.1635 -0.0726  0.6697
  113OSM    HNF11709   5.814   5.910  10.361 -1.1810 -0.4922  1.8557
  113OSM    C2S11710   5.789   5.819  10.555  0.6854  0.1495 -0.4800
  113OSM    H2S11711   5.809   5.710  10.565 -0.3306 -0.2076 -1.9917
  113OSM    C3S11712   5.632   5.829  10.548  0.2170 -0.0664 -0.3387
  113OSM    H3S11713   5.609   5.937  10.561 -0.1868 -0.1679 -0.1894
  113OSM     O311714   5.568   5.754  10.655  0.2621  0.4207  0.0485
  113OSM    HO311715   5.631   5.745  10.727 -1.7849  2.1916  2.2128
  113OSM    C4S11716   5.576   5.779  10.417  0.5674 -0.1437 -0.6138
  113OSM    H4S11717   5.539   5.860  10.352  0.5956 -0.3678 -0.9123
  113OSM    C5S11718   5.566   5.656  10.369 -0.1932  0.2993 -0.4272
  113OSM    H5S11719   5.604   5.567  10.422 -1.8540 -0.9397 -1.1960
  113OSM    C6S11720   5.512   5.622  10.234  0.0422 -0.4661 -0.1781
  113OSM    H6S11721   5.403   5.646  10.234  0.1878  0.5870  2.8961
  113OSM    H6T11722   5.536   5.515  10.219  0.6998 -0.2025 -1.0874
  113OSM    C7S11723   5.572   5.695  10.119  0.1898 -0.1349 -0.1183
  113OSM    H7S11724   5.681   5.673  10.109  0.0643 -0.2415 -1.3540
  113OSM    H7T11725   5.568   5.805  10.128 -0.1358  0.0429 -2.0539
  113OSM    C8S11726   5.512   5.672   9.982  0.5221  0.0249 -0.6053
  113OSM    H8S11727   5.579   5.723   9.909  0.3892  0.5455 -0.3676
  113OSM    H8T11728   5.417   5.728   9.971  0.7664  0.5242 -0.2068
  113OSM    C9S11729   5.497   5.524   9.932 -0.0375  0.2153  0.6249
  113OSM    H9S11730   5.410   5.477   9.983 -1.4240 -0.0632 -1.8084
  113OSM    H9T11731   5.585   5.459   9.948  1.2485  1.3194 -1.5035
  113OSM   C10S11732   5.457   5.516   9.773  0.2977 -0.1208  0.3831
  113OSM   H10S11733   5.411   5.616   9.757 -2.5491 -1.4827 -0.5551
  113OSM   H10T11734   5.377   5.442   9.753 -1.1851  1.1983  1.1754
  113OSM   C11S11735   5.582   5.494   9.690 -0.7081  0.4020  0.1020
  113OSM   H11S11736   5.621   5.390   9.705  2.8309  1.0942 -2.6784
  113OSM   H11T11737   5.651   5.578   9.712 -2.0310  1.5060  0.1765
  113OSM   C12S11738   5.566   5.494   9.536  0.7271 -0.9685  0.6426
  113OSM   H12S11739   5.493   5.570   9.504  1.4882  0.8082  2.8270
  113OSM   H12T11740   5.523   5.393   9.521  2.6126 -1.7112 -0.0114
  113OSM   C13S11741   5.694   5.522   9.454 -0.1525 -0.8146  0.1173
  113OSM   H13S11742   5.777   5.471   9.508 -2.0063 -2.0706  1.9489
  113OSM   H13T11743   5.707   5.631   9.470 -2.7719 -0.6350  1.5750
  113OSM   C14S11744   5.671   5.477   9.309 -0.2822 -0.7142 -0.1043
  113OSM   H14S11745   5.581   5.523   9.263 -1.0949 -2.5122 -0.4002
  113OSM   H14T11746   5.660   5.367   9.311  0.1285 -0.7493  1.0554
  113OSM   C15S11747   5.792   5.523   9.214  0.4841  0.4513  0.6787
  113OSM   H15S11748   5.889   5.499   9.262  0.5644  1.6624  1.1537
  113OSM   H15T11749   5.795   5.633   9.201 -1.1144  0.2906 -1.5715
  113OSM   C16S11750   5.768   5.459   9.079 -0.1775  0.6965  0.1401
  113OSM   H16S11751   5.668   5.485   9.041 -0.2354 -1.0653 -0.9975
  113OSM   H16T11752   5.763   5.350   9.100 -1.0971  1.2005  2.9239
  113OSM   C17S11753   5.881   5.496   8.983  0.4142  0.2240  0.3183
  113OSM   H17S11754   5.981   5.483   9.031  0.0048  0.6144  1.2927
  113OSM   H17T11755   5.853   5.594   8.938  0.2812 -0.5805 -1.4524
  113OSM   C18S11756   5.891   5.407   8.863  0.4917 -0.0802  0.3819
  113OSM   H18S11757   5.791   5.407   8.813  0.6064  0.2903  0.1437
  113OSM   H18T11758   5.916   5.301   8.883 -2.4937 -0.9328  0.0219
  113OSM   H18U11759   5.967   5.449   8.793  1.2986 -0.3334  1.0884
  113OSM    C1F11760   5.993   5.860  10.426  0.0115  0.7505 -0.3488
  113OSM     OF11761   6.053   5.792  10.508  0.3037 -0.0573  0.0593
  113OSM    C2F11762   6.057   5.927  10.312  0.1534 -0.5019  0.1175
  113OSM    H2F11763   6.166   5.927  10.332  0.1675 -0.4248  0.0402
  113OSM    H2G11764   6.017   6.031  10.309  1.6738  0.1623  1.5177
  113OSM    C3F11765   6.035   5.851  10.177 -0.7615 -0.1256  0.5199
  113OSM    H3F11766   6.050   5.744  10.202  0.2946  0.0775  0.8438
  113OSM    H3G11767   6.119   5.887  10.114 -0.7720 -1.2100 -0.1378
  113OSM    C4F11768   5.901   5.863  10.090  0.4632 -0.0221 -0.4725
  113OSM    H4F11769   5.890   5.970  10.061  1.2931 -0.3169 -1.9598
  113OSM    H4G11770   5.814   5.843  10.156 -0.6014  0.1531 -1.7863
  113OSM    C5F11771   5.894   5.758   9.975 -0.1187  0.5493 -0.0623
  113OSM    H5F11772   5.821   5.798   9.901 -1.3690  0.8346  1.2782
  113OSM    H5G11773   5.861   5.655  10.001 -0.0438  0.7050  0.6546
  113OSM    C6F11774   6.032   5.738   9.910 -0.3623 -0.4928  0.8785
  113OSM    H6F11775   6.088   5.677   9.985 -0.3029 -0.0171  1.2310
  113OSM    H6G11776   6.069   5.842   9.900 -4.0248  0.9346  0.7925
  113OSM    C7F11777   6.035   5.667   9.779  0.7906  0.2724  0.3686
  113OSM    H7F11778   5.992   5.565   9.787 -0.0725  0.4124 -1.8876
  113OSM    H7G11779   6.143   5.658   9.756  0.7043 -1.1905  0.4306
  113OSM    C8F11780   5.976   5.737   9.652  0.2428  0.3276  0.0535
  113OSM    H8F11781   5.865   5.739   9.663 -0.1247 -0.4497 -2.7656
  113OSM    H8G11782   5.999   5.677   9.561  0.4505 -0.5072  0.6381
  113OSM    C9F11783   6.025   5.880   9.639  0.6856  0.3415  0.1950
  113OSM    H9F11784   6.017   5.949   9.725 -0.3290  0.0231  0.3727
  113OSM   C10F11785   6.064   5.937   9.525 -0.3243 -0.4816  0.4697
  113OSM   H10F11786   6.073   6.046   9.534 -0.4993 -0.3749 -0.6050
  113OSM   C11F11787   6.088   5.886   9.381 -0.2814 -0.6075 -0.0167
  113OSM   H11F11788   6.178   5.941   9.346 -1.5537  1.0823 -0.8226
  113OSM   H11G11789   6.003   5.912   9.314  1.1356 -2.0492 -2.5086
  113OSM   C12F11790   6.129   5.740   9.358  0.0701 -0.2116 -0.2906
  113OSM   H12F11791   6.033   5.684   9.367 -0.7703  0.6371 -2.8884
  113OSM   H12G11792   6.189   5.711   9.447 -2.2112  0.1055  1.4588
  113OSM   C13F11793   6.180   5.711   9.215  0.5175 -0.1305 -0.4903
  113OSM   H13F11794   6.141   5.609   9.200  1.5460 -0.2571 -2.7166
  113OSM   H13G11795   6.291   5.708   9.213  0.6585  2.2385  0.2158
  113OSM   C14F11796   6.120   5.801   9.110 -0.6225  0.1589 -0.5478
  113OSM   H14F11797   6.151   5.907   9.121 -2.2695  0.5162  1.3447
  113OSM   H14G11798   6.011   5.807   9.134 -0.3352 -0.0670  0.9250
  113OSM   C15F11799   6.149   5.760   8.971  0.5802  0.2261  0.0216
  113OSM   H15F11800   6.112   5.655   8.968 -0.1315  0.3927  1.7174
  113OSM   H15G11801   6.259   5.769   8.957  0.7849  0.7189  1.7179
  113OSM   C16F11802   6.070   5.847   8.875  0.3162 -0.3225 -0.0041
  113OSM   H16F11803   6.096   5.954   8.862 -0.7067 -0.0163  0.3067
  113OSM   H16G11804   5.960   5.848   8.892 -0.0484 -0.5481 -2.1209
  113OSM   C17F11805   6.067   5.778   8.742  0.1281 -0.0628  0.1915
  113OSM   H17F11806   6.037   5.671   8.746  0.3157 -0.1731 -0.8641
  113OSM   H17G11807   6.166   5.785   8.691 -1.3718  2.5327 -2.7450
  113OSM   C18F11808   5.971   5.853   8.657 -0.2814  0.1252  0.1673
  113OSM   H18F11809   5.875   5.853   8.712 -1.3523 -1.1888 -1.6218
  113OSM   H18G11810   5.938   5.810   8.560  0.8373  1.4087 -0.8341
  113OSM   H18H11811   6.000   5.957   8.629  0.1566 -1.0131 -4.4296
  114OSM      N11812   6.747   3.727  11.283 -0.5384 -0.4711  0.4717
  114OSM    C1511813   6.723   3.848  11.201  0.3009 -0.0325  0.1756
  114OSM   H15A11814   6.617   3.870  11.194  0.7956  2.4095 -0.6630
  114OSM   H15B11815   6.760   3.845  11.100  0.9513  0.9362  0.3739
  114OSM   H15C11816   6.776   3.932  11.244 -0.3772 -0.5205  2.0968
  114OSM    C1411817   6.693   3.747  11.416 -0.1845  0.2654 -0.2966
  114OSM   H14A11818   6.721   3.834  11.474 -2.6734  0.7609  0.2711
  114OSM   H14B11819   6.723   3.664  11.478 -1.0129  0.2671  0.1168
  114OSM   H14C11820   6.585   3.749  11.417 -0.3146 -2.6577 -0.7743
  114OSM    C1311821   6.681   3.610  11.214  0.4361 -0.1632 -0.0327
  114OSM   H13A11822   6.691   3.517  11.267  1.3527  0.7703  1.5274
  114OSM   H13B11823   6.717   3.594  11.113  1.2575  2.0214 -0.1579
  114OSM   H13C11824   6.577   3.637  11.211 -0.3526 -2.6660  1.8391
  114OSM    C1211825   6.899   3.708  11.285 -0.5571  0.3606  0.1598
  114OSM   H12A11826   6.934   3.676  11.188 -0.9643  0.2954  0.0311
  114OSM   H12B11827   6.910   3.620  11.347 -0.3243  0.8253  0.7894
  114OSM    C1111828   6.986   3.826  11.325 -0.4042  0.3071  0.0756
  114OSM   H11A11829   7.080   3.790  11.372  0.0772  1.1596 -0.2064
  114OSM   H11B11830   6.933   3.879  11.408 -2.3984 -0.5488 -0.5721
  114OSM      P11831   7.143   3.876  11.126  0.5456 -0.0475  0.4008
  114OSM    O1311832   7.261   3.902  11.212  0.6849 -0.0612 -0.8748
  114OSM    O1411833   7.128   3.749  11.057  0.1783  0.2679  0.2979
  114OSM    O1111834   7.135   3.990  11.016 -0.1452  0.0941 -0.4259
  114OSM    O1211835   7.014   3.909  11.210 -0.2221 -0.1960 -0.6645
  114OSM    C1S11836   7.012   4.039  10.950  0.6143 -0.2883  0.5578
  114OSM    H1S11837   6.999   4.139  10.996  0.4520  1.0297 -2.1860
  114OSM    H1T11838   6.927   3.968  10.965  1.1529 -1.1699 -0.3951
  114OSM     NF11839   6.924   4.142  10.739 -0.5205  0.2170 -0.2373
  114OSM    HNF11840   6.843   4.086  10.726 -1.1086  1.0852 -0.4402
  114OSM    C2S11841   7.028   4.064  10.795 -0.1025 -0.0553 -0.9409
  114OSM    H2S11842   7.119   4.127  10.782 -1.1489  2.1318  1.4307
  114OSM    C3S11843   7.051   3.933  10.710  0.1461 -0.2268 -0.3400
  114OSM    H3S11844   6.955   3.877  10.701 -1.3273  2.3792 -2.4065
  114OSM     O311845   7.136   3.833  10.767  0.2411  0.1166  0.0987
  114OSM    HO311846   7.160   3.881  10.846 -1.8529 -0.8327  1.4017
  114OSM    C4S11847   7.104   3.961  10.573 -0.1760 -0.4641  0.8064
  114OSM    H4S11848   7.204   4.006  10.566 -0.2004 -0.2464  1.7939
  114OSM    C5S11849   7.033   3.944  10.461  0.2203  0.5104  0.1344
  114OSM    H5S11850   6.935   3.893  10.460 -0.1786  1.2619 -0.1572
  114OSM    C6S11851   7.082   3.986  10.329 -0.1331  0.8106  0.1302
  114OSM    H6S11852   7.042   3.914  10.254 -0.3623  1.2535 -0.1771
  114OSM    H6T11853   7.193   3.984  10.326 -0.0916  1.9704  0.2839
  114OSM    C7S11854   7.030   4.124  10.293 -0.5203 -0.2204  0.3932
  114OSM    H7S11855   7.110   4.183  10.341 -0.3974 -0.1816  0.1362
  114OSM    H7T11856   6.936   4.158  10.343 -1.0891  0.1203 -0.8757
  114OSM    C8S11857   7.008   4.134  10.143 -0.2259  0.5913  0.0791
  114OSM    H8S11858   6.921   4.073  10.110  1.1681 -0.5410 -1.7109
  114OSM    H8T11859   7.100   4.092  10.098 -1.8448 -0.7970 -2.1737
  114OSM    C9S11860   6.994   4.275  10.080  0.3278  0.3185  0.1838
  114OSM    H9S11861   7.059   4.347  10.134  0.4594 -0.1382  0.6332
  114OSM    H9T11862   6.889   4.304  10.103  0.8479  3.4925 -0.8784
  114OSM   C10S11863   7.009   4.288   9.925 -0.2249  0.4590 -0.3076
  114OSM   H10S11864   6.920   4.245   9.874  0.0762 -2.1734  1.1854
  114OSM   H10T11865   7.103   4.239   9.890 -1.0851 -0.8752 -0.8346
  114OSM   C11S11866   7.009   4.440   9.890 -0.5453 -0.0522  0.0301
  114OSM   H11S11867   7.077   4.494   9.960  0.5237 -1.2295 -0.0562
  114OSM   H11T11868   6.904   4.469   9.912  0.1944  2.3093  0.7280
  114OSM   C12S11869   7.055   4.468   9.746 -0.6391 -0.0829 -0.2317
  114OSM   H12S11870   6.996   4.402   9.679 -0.0839 -0.8389  0.0097
  114OSM   H12T11871   7.162   4.439   9.742 -0.8401 -1.2134  1.7172
  114OSM   C13S11872   7.013   4.610   9.697  0.9368  0.2667 -0.3382
  114OSM   H13S11873   7.062   4.684   9.764  0.0589  0.3083  0.2718
  114OSM   H13T11874   6.902   4.619   9.705  0.7578 -0.9427 -1.1793
  114OSM   C14S11875   7.061   4.640   9.553  0.2133 -0.1176  0.0828
  114OSM   H14S11876   7.166   4.604   9.547  0.2116 -0.3820  1.2857
  114OSM   H14T11877   7.063   4.751   9.543  2.0729 -0.2656 -1.7112
  114OSM   C15S11878   6.981   4.579   9.442  0.4580 -0.3641  0.1136
  114OSM   H15S11879   6.877   4.618   9.446  1.1904  1.7118  0.3996
  114OSM   H15T11880   6.986   4.469   9.452  1.8996 -0.2220  1.2752
  114OSM   C16S11881   7.033   4.628   9.300  0.6262  0.0816 -0.1013
  114OSM   H16S11882   7.127   4.577   9.271 -0.1948 -1.7348  0.3432
  114OSM   H16T11883   7.054   4.737   9.309  2.2713 -0.2366  0.2253
  114OSM   C17S11884   6.929   4.595   9.190  0.6699 -0.3620  0.6698
  114OSM   H17S11885   6.831   4.644   9.208 -0.1466 -0.4937 -2.7952
  114OSM   H17T11886   6.913   4.485   9.190 -1.6025 -0.0819  0.9852
  114OSM   C18S11887   6.966   4.633   9.046  0.1223  0.1791  0.6943
  114OSM   H18S11888   6.888   4.594   8.977  0.0228  1.4040  0.0846
  114OSM   H18T11889   7.058   4.579   9.017 -1.3011 -1.3970 -1.1747
  114OSM   H18U11890   6.971   4.744   9.035  3.0590  0.2368  1.6925
  114OSM    C1F11891   6.906   4.272  10.771 -0.8944 -0.0725  0.0152
  114OSM     OF11892   6.973   4.329  10.853  0.0493 -1.0324 -0.2443
  114OSM    C2F11893   6.782   4.343  10.718  0.5404  0.2138 -0.3769
  114OSM    H2F11894   6.783   4.449  10.751 -1.8567  0.3920 -0.6840
  114OSM    H2G11895   6.696   4.295  10.770  1.2041 -1.4084 -0.7367
  114OSM    C3F11896   6.764   4.342  10.569  0.2041  0.2147  0.2209
  114OSM    H3F11897   6.761   4.238  10.530 -1.2567  0.3856 -0.1876
  114OSM    H3G11898   6.844   4.399  10.517 -1.1203  0.0045 -2.1686
  114OSM    C4F11899   6.637   4.402  10.521  0.5893  0.0143  0.5697
  114OSM    H4F11900   6.651   4.510  10.498 -1.3976 -0.1309 -1.7112
  114OSM    H4G11901   6.567   4.392  10.607  1.4168 -1.2146  1.1205
  114OSM    C5F11902   6.574   4.323  10.399  0.8902 -0.5361  0.0166
  114OSM    H5F11903   6.489   4.385  10.364  0.7399 -1.3127 -1.0792
  114OSM    H5G11904   6.531   4.226  10.431  0.6164  0.4771  2.9905
  114OSM    C6F11905   6.660   4.313  10.276  0.4690  0.4497  0.1364
  114OSM    H6F11906   6.740   4.244  10.311 -1.4777 -1.4990  0.9512
  114OSM    H6G11907   6.713   4.410  10.262  0.2788  0.8155  1.7449
  114OSM    C7F11908   6.585   4.264  10.152  0.2630 -0.5219  0.2974
  114OSM    H7F11909   6.509   4.186  10.176 -1.7273  0.8807 -1.0703
  114OSM    H7G11910   6.660   4.220  10.083 -0.0435 -0.9926  0.2551
  114OSM    C8F11911   6.507   4.364  10.067  0.6476 -0.7224 -0.1022
  114OSM    H8F11912   6.417   4.392  10.126  0.7342  0.6530 -0.5776
  114OSM    H8G11913   6.462   4.301   9.987 -0.8805 -0.3765  0.4310
  114OSM    C9F11914   6.585   4.478  10.007  0.1839  0.1352 -0.5951
  114OSM    H9F11915   6.642   4.542  10.077  2.9919  0.0008 -2.5868
  114OSM   C10F11916   6.613   4.506   9.878 -0.2436 -0.0667  0.1503
  114OSM   H10F11917   6.656   4.606   9.862  0.3899  0.2226  3.1788
  114OSM   C11F11918   6.557   4.428   9.765 -0.1053 -0.7925 -0.2857
  114OSM   H11F11919   6.447   4.441   9.754 -0.1006 -2.1666 -2.6859
  114OSM   H11G11920   6.560   4.322   9.799 -1.8956 -0.4018  1.2753
  114OSM   C12F11921   6.605   4.459   9.620 -0.3810  1.0535  0.0392
  114OSM   H12F11922   6.714   4.438   9.614 -0.9697 -2.1387 -2.1539
  114OSM   H12G11923   6.600   4.567   9.596 -0.7351  0.9658 -0.2939
  114OSM   C13F11924   6.536   4.384   9.507 -0.0146 -0.1254 -0.0873
  114OSM   H13F11925   6.427   4.389   9.526 -0.4522  2.1838 -2.5662
  114OSM   H13G11926   6.572   4.278   9.509  1.2218  0.2857  0.0682
  114OSM   C14F11927   6.555   4.431   9.365  0.2608  0.6455 -0.4885
  114OSM   H14F11928   6.662   4.428   9.335  0.8299  0.3722  1.4679
  114OSM   H14G11929   6.521   4.537   9.368  1.4905  1.0569 -0.5432
  114OSM   C15F11930   6.476   4.342   9.262  0.7636 -0.3162  0.0414
  114OSM   H15F11931   6.367   4.359   9.280  0.7797 -0.8699  0.6927
  114OSM   H15G11932   6.485   4.235   9.292 -2.4059 -0.9238 -0.7711
  114OSM   C16F11933   6.513   4.364   9.118  0.5932  0.3880  0.6049
  114OSM   H16F11934   6.444   4.304   9.055  0.4608  1.9584 -0.8362
  114OSM   H16G11935   6.608   4.310   9.100 -0.5734 -0.7416 -3.0584
  114OSM   C17F11936   6.531   4.505   9.067  0.0419 -0.1186 -0.3362
  114OSM   H17F11937   6.607   4.561   9.126 -0.8519  0.7919 -0.0034
  114OSM   H17G11938   6.439   4.564   9.090  0.1725 -0.4333  1.1401
  114OSM   C18F11939   6.556   4.519   8.922 -0.6239 -0.0192 -0.6120
  114OSM   H18F11940   6.621   4.434   8.894  1.3171  1.0126  0.5057
  114OSM   H18G11941   6.598   4.619   8.895 -0.2722  0.1304  0.4280
  114OSM   H18H11942   6.456   4.520   8.874 -0.3954  1.3643 -1.1231
  115OSM      N11943   5.273   2.577   5.964  0.1679 -0.2843  0.3179
  115OSM    C1511944   5.375   2.650   5.880  0.2224 -0.5434 -0.1255
  115OSM   H15A11945   5.348   2.645   5.776 -1.6281  1.5785  0.1972
  115OSM   H15B11946   5.473   2.607   5.895  0.1124 -0.2640  1.6665
  115OSM   H15C11947   5.383   2.755   5.904  0.5787 -0.8726  1.2859
  115OSM    C1411948   5.138   2.640   5.959 -0.4208  0.5452 -0.0824
  115OSM   H14A11949   5.091   2.641   5.862 -0.7990  2.8754  0.0734
  115OSM   H14B11950   5.152   2.745   5.982  0.0705  0.3997  0.3095
  115OSM   H14C11951   5.074   2.594   6.032  0.0135  0.4021  0.2112
  115OSM    C1311952   5.264   2.436   5.909 -0.6971  0.9892 -0.0722
  115OSM   H13A11953   5.362   2.391   5.911  0.2967  2.9385 -1.4358
  115OSM   H13B11954   5.248   2.441   5.802 -0.2372  1.6771 -0.1138
  115OSM   H13C11955   5.192   2.377   5.964 -1.4427  0.4504 -1.5477
  115OSM    C1211956   5.334   2.561   6.097 -0.6218  0.1292 -0.0402
  115OSM   H12A11957   5.431   2.516   6.083 -0.8857 -1.1461  1.8646
  115OSM   H12B11958   5.278   2.485   6.150 -0.5681  1.3409  1.8175
  115OSM    C1111959   5.351   2.684   6.194  0.1535 -0.0836 -0.5716
  115OSM   H11A11960   5.390   2.649   6.292 -1.6333 -0.5058  0.0199
  115OSM   H11B11961   5.249   2.717   6.225  0.5864  0.0453  0.7823
  115OSM      P11962   5.376   2.944   6.144 -0.0657  0.5382  0.1894
  115OSM    O1311963   5.460   3.031   6.061 -0.3484  0.5615  0.4628
  115OSM    O1411964   5.229   2.960   6.106 -1.1108  0.2292 -0.3974
  115OSM    O1111965   5.404   2.981   6.303  0.3674  0.6403  0.7902
  115OSM    O1211966   5.422   2.792   6.140  0.2966  0.6981 -0.0618
  115OSM    C1S11967   5.550   2.974   6.344 -0.0261  0.0175 -0.3574
  115OSM    H1S11968   5.606   3.059   6.301  0.2497 -0.9429 -1.9865
  115OSM    H1T11969   5.597   2.878   6.313  1.2867 -0.3343  2.4261
  115OSM     NF11970   5.675   2.975   6.566  0.0509  0.4832  0.0073
  115OSM    HNF11971   5.706   2.886   6.597 -0.5919 -0.2849 -1.4390
  115OSM    C2S11972   5.542   2.973   6.502 -0.7731  0.7170  0.4287
  115OSM    H2S11973   5.486   3.064   6.532 -4.0406 -0.9981  0.0095
  115OSM    C3S11974   5.459   2.855   6.556  0.6094 -0.1887  0.1393
  115OSM    H3S11975   5.502   2.757   6.525 -0.7754 -0.4260 -1.1969
  115OSM     O311976   5.327   2.852   6.504 -0.1144 -0.1474  0.1936
  115OSM    HO311977   5.330   2.923   6.440 -3.2074  0.7289  0.8359
  115OSM    C4S11978   5.439   2.867   6.700 -0.7060 -0.6277  0.1079
  115OSM    H4S11979   5.356   2.934   6.727 -0.4230  0.3626 -1.3611
  115OSM    C5S11980   5.506   2.802   6.795  1.0904  0.1576 -0.4369
  115OSM    H5S11981   5.573   2.721   6.765 -0.4119 -1.2623 -0.0927
  115OSM    C6S11982   5.487   2.815   6.948  0.6079  0.0500  0.1869
  115OSM    H6S11983   5.478   2.717   6.998 -0.1817 -0.0281 -0.0879
  115OSM    H6T11984   5.399   2.878   6.973  0.9691  0.4500  0.4711
  115OSM    C7S11985   5.610   2.897   6.995 -0.2219  0.8131 -0.1477
  115OSM    H7S11986   5.605   2.993   6.940 -2.6871  2.1326  2.0890
  115OSM    H7T11987   5.707   2.845   6.986 -1.4145 -1.3151 -1.6276
  115OSM    C8S11988   5.599   2.934   7.147 -0.5766  0.0643 -0.2092
  115OSM    H8S11989   5.526   3.014   7.174  0.7270  1.7716 -1.5387
  115OSM    H8T11990   5.698   2.981   7.165 -0.7183  0.3129 -0.0666
  115OSM    C9S11991   5.595   2.811   7.247  0.1159 -0.1911 -0.0219
  115OSM    H9S11992   5.696   2.765   7.258  1.1102  1.6293 -1.0534
  115OSM    H9T11993   5.526   2.733   7.209  0.8707 -1.0398  0.2914
  115OSM   C10S11994   5.547   2.850   7.380  0.1546 -0.9524 -0.0213
  115OSM   H10S11995   5.437   2.862   7.378  0.2286 -0.3314 -0.4859
  115OSM   H10T11996   5.588   2.949   7.412  0.4217 -1.4222  1.1501
  115OSM   C11S11997   5.603   2.756   7.488 -0.0528 -0.0007  0.1103
  115OSM   H11S11998   5.713   2.747   7.479  0.0827  1.6040 -0.0271
  115OSM   H11T11999   5.573   2.652   7.462 -0.1851 -0.5165  2.0949
  115OSM   C12S12000   5.551   2.792   7.628  0.2543 -0.3531  0.6245
  115OSM   H12S12001   5.441   2.802   7.625  0.2745 -0.3282 -1.5797
  115OSM   H12T12002   5.595   2.891   7.655 -1.8050  1.4377 -2.1110
  115OSM   C13S12003   5.580   2.681   7.726  0.1212  0.8206  0.0704
  115OSM   H13S12004   5.687   2.655   7.739 -0.4305 -0.8799  1.6580
  115OSM   H13T12005   5.528   2.589   7.692 -1.9675  1.4876  1.2667
  115OSM   C14S12006   5.534   2.724   7.864 -0.3632 -0.5656  0.3710
  115OSM   H14S12007   5.426   2.747   7.863  0.0805  1.7318 -0.5448
  115OSM   H14T12008   5.582   2.823   7.883 -0.0546 -0.6062 -0.1691
  115OSM   C15S12009   5.555   2.619   7.973  0.1333  0.2334 -0.0214
  115OSM   H15S12010   5.642   2.557   7.942 -0.3932  0.6735 -2.5459
  115OSM   H15T12011   5.466   2.552   7.976 -0.6529  1.1018  4.9991
  115OSM   C16S12012   5.565   2.690   8.106 -0.0665 -0.4403 -0.8776
  115OSM   H16S12013   5.473   2.749   8.124  1.6761  2.2695 -0.2556
  115OSM   H16T12014   5.655   2.755   8.097 -0.6651  0.3446 -1.2885
  115OSM   C17S12015   5.582   2.590   8.220 -0.2626  0.3648 -0.6314
  115OSM   H17S12016   5.678   2.536   8.204 -1.5908 -1.9117 -1.3232
  115OSM   H17T12017   5.508   2.508   8.231  1.2780 -0.8891  1.1764
  115OSM   C18S12018   5.580   2.655   8.356  0.3497 -0.5041  0.4019
  115OSM   H18S12019   5.595   2.580   8.436 -0.3254 -2.1839 -0.9883
  115OSM   H18T12020   5.490   2.718   8.371 -0.0006 -1.2774  1.5922
  115OSM   H18U12021   5.665   2.726   8.369 -0.2384  0.1090  0.9949
  115OSM    C1F12022   5.749   3.085   6.535  0.0202 -0.1505 -0.3421
  115OSM     OF12023   5.703   3.195   6.503  0.1904 -1.3101 -0.3183
  115OSM    C2F12024   5.899   3.061   6.531 -0.2534 -0.3444 -0.2267
  115OSM    H2F12025   5.928   3.068   6.424  0.2899 -1.7887 -0.1933
  115OSM    H2G12026   5.925   2.959   6.565  0.8356  0.3330  1.0465
  115OSM    C3F12027   5.993   3.165   6.601 -0.3620 -0.3279  0.9590
  115OSM    H3F12028   5.964   3.267   6.566 -1.5550 -1.1080 -0.4398
  115OSM    H3G12029   6.097   3.146   6.567  0.5113  2.3301  1.8260
  115OSM    C4F12030   6.003   3.154   6.756 -0.1852 -0.5210  0.0153
  115OSM    H4F12031   6.104   3.183   6.791  0.2154 -2.8201  0.9707
  115OSM    H4G12032   5.998   3.046   6.783 -0.3715 -0.8922 -1.4605
  115OSM    C5F12033   5.895   3.234   6.838  0.1733 -0.2918 -0.5758
  115OSM    H5F12034   5.799   3.179   6.839 -1.2927  2.0955  2.0012
  115OSM    H5G12035   5.867   3.330   6.789  1.9695  0.7446  0.3184
  115OSM    C6F12036   5.941   3.256   6.990  0.1951 -0.3135 -0.8616
  115OSM    H6F12037   6.021   3.333   6.987 -1.6293  1.7457 -0.2675
  115OSM    H6G12038   5.976   3.157   7.024  0.2233  0.6438  2.1813
  115OSM    C7F12039   5.815   3.304   7.073 -0.2451  0.3021 -0.2261
  115OSM    H7F12040   5.742   3.223   7.091  1.7469 -1.3407  0.9362
  115OSM    H7G12041   5.755   3.370   7.007  0.8631 -0.1158 -1.7206
  115OSM    C8F12042   5.850   3.365   7.211  0.1040 -0.1390 -0.5983
  115OSM    H8F12043   5.753   3.411   7.241  0.3637  1.2978 -1.8970
  115OSM    H8G12044   5.923   3.445   7.187 -0.1235  0.1780 -0.2411
  115OSM    C9F12045   5.900   3.263   7.312 -0.3815 -0.0686 -0.1807
  115OSM    H9F12046   5.988   3.203   7.285  0.2595  1.3064 -1.2100
  115OSM   C10F12047   5.839   3.228   7.426  0.9069 -0.1736  0.0127
  115OSM   H10F12048   5.899   3.157   7.486  0.9013  0.3931  0.7031
  115OSM   C11F12049   5.709   3.269   7.491 -0.1274  0.3964  0.3592
  115OSM   H11F12050   5.622   3.237   7.430 -1.5292  2.9265  0.9156
  115OSM   H11G12051   5.693   3.379   7.491  1.0690  0.7359 -3.6328
  115OSM   C12F12052   5.721   3.209   7.632 -0.5775 -0.5374 -0.3202
  115OSM   H12F12053   5.816   3.229   7.686 -0.7503 -1.8656  0.5199
  115OSM   H12G12054   5.719   3.098   7.622  0.2994 -0.6303  0.4353
  115OSM   C13F12055   5.618   3.254   7.733  0.2194 -0.3461  0.0619
  115OSM   H13F12056   5.515   3.235   7.695 -1.1405  4.0449  0.9399
  115OSM   H13G12057   5.636   3.363   7.749 -1.8863  0.0927 -0.2752
  115OSM   C14F12058   5.621   3.181   7.865  0.5873  0.0327  0.5900
  115OSM   H14F12059   5.575   3.085   7.834 -0.2941  0.6340 -0.0477
  115OSM   H14G12060   5.546   3.235   7.927 -0.6640 -0.8897 -0.0664
  115OSM   C15F12061   5.754   3.153   7.942 -0.1645  0.1589  0.1543
  115OSM   H15F12062   5.810   3.248   7.938 -0.1084  0.0800 -2.1038
  115OSM   H15G12063   5.817   3.081   7.885 -0.6164 -0.5155  0.4966
  115OSM   C16F12064   5.721   3.089   8.077 -0.6024 -0.6578  0.5155
  115OSM   H16F12065   5.640   3.021   8.045  0.9528 -1.3091 -2.4430
  115OSM   H16G12066   5.681   3.162   8.150 -0.4621  0.5997 -0.5991
  115OSM   C17F12067   5.833   3.004   8.131 -0.3506  0.2129  0.2390
  115OSM   H17F12068   5.928   3.019   8.075 -1.4710 -1.1150 -2.1265
  115OSM   H17G12069   5.811   2.896   8.120  1.3284 -0.1693  0.2644
  115OSM   C18F12070   5.858   3.028   8.279  0.4205  0.4727 -0.4510
  115OSM   H18F12071   5.953   2.987   8.318 -0.5699 -1.3659  0.1658
  115OSM   H18G12072   5.771   2.995   8.339  0.5653 -1.9235 -1.4296
  115OSM   H18H12073   5.867   3.138   8.290 -1.0180  0.4449  1.4073
  116OSM      N12074   5.847   4.880   5.854 -0.8595 -0.1525  0.3576
  116OSM    C1512075   5.850   4.820   5.717  0.4464  1.0651  0.4573
  116OSM   H15A12076   5.877   4.715   5.721 -0.2610  0.7416 -1.7041
  116OSM   H15B12077   5.923   4.871   5.656  0.6511  0.4572  0.1891
  116OSM   H15C12078   5.754   4.819   5.667  0.9228  1.9102 -0.5090
  116OSM    C1412079   5.978   4.882   5.900 -0.2268 -0.4688  0.8142
  116OSM   H14A12080   6.035   4.791   5.894  2.7804  1.2948  0.5848
  116OSM   H14B12081   5.975   4.908   6.005 -0.7036 -0.1229  0.7205
  116OSM   H14C12082   6.045   4.948   5.848 -0.4193  0.5693  1.8272
  116OSM    C1312083   5.795   5.017   5.838  0.5619 -0.6768  0.0395
  116OSM   H13A12084   5.863   5.089   5.796 -0.0208  0.3718  0.8441
  116OSM   H13B12085   5.769   5.055   5.936  1.1053 -1.7315  0.6125
  116OSM   H13C12086   5.712   5.022   5.769  1.5848  0.2675 -1.1485
  116OSM    C1212087   5.754   4.794   5.944 -0.4710 -0.6153 -0.4476
  116OSM   H12A12088   5.790   4.693   5.953 -0.0128 -0.7376 -2.9406
  116OSM   H12B12089   5.660   4.760   5.905 -0.1120 -1.7779 -0.3220
  116OSM    C1112090   5.717   4.845   6.090 -0.0295  0.4213  0.5403
  116OSM   H11A12091   5.664   4.766   6.148  0.0711  0.4926  0.7287
  116OSM   H11B12092   5.647   4.931   6.079  0.0278  0.1412 -2.9610
  116OSM      P12093   5.837   4.997   6.262 -0.0413 -0.0786  0.0295
  116OSM    O1312094   5.964   5.003   6.345 -0.2680 -0.4640  0.3141
  116OSM    O1412095   5.805   5.119   6.188 -0.3895  0.5381  0.1318
  116OSM    O1112096   5.719   4.967   6.359  0.1359 -0.3524  0.1717
  116OSM    O1212097   5.841   4.878   6.162 -0.1476  0.6281  0.4077
  116OSM    C1S12098   5.727   4.845   6.441  0.1673  0.0061  0.1926
  116OSM    H1S12099   5.818   4.785   6.419 -0.7975 -0.9667 -1.3318
  116OSM    H1T12100   5.648   4.769   6.421  0.7301 -0.3064 -0.9981
  116OSM     NF12101   5.768   4.746   6.669 -0.1868  1.0476  0.0112
  116OSM    HNF12102   5.694   4.691   6.706 -0.1648 -0.1054 -1.5560
  116OSM    C2S12103   5.734   4.867   6.598  0.2469  0.0948  0.0465
  116OSM    H2S12104   5.819   4.934   6.624  0.4716 -0.6363  1.2896
  116OSM    C3S12105   5.601   4.933   6.639 -0.7428 -0.6949 -0.4215
  116OSM    H3S12106   5.515   4.869   6.614 -0.0226 -1.3076 -1.3836
  116OSM     O312107   5.571   5.052   6.567  0.0762 -0.0453  0.1245
  116OSM    HO312108   5.625   5.057   6.487  0.1328 -1.3105  0.0753
  116OSM    C4S12109   5.609   4.956   6.789 -0.1441 -0.0618  0.1343
  116OSM    H4S12110   5.567   4.871   6.844 -2.7379 -0.1677 -1.8132
  116OSM    C5S12111   5.646   5.074   6.846 -0.3646  0.3398 -0.8628
  116OSM    H5S12112   5.682   5.153   6.779 -0.0355  0.1756 -0.8785
  116OSM    C6S12113   5.662   5.106   6.991 -0.0327  0.1293 -0.5767
  116OSM    H6S12114   5.603   5.197   7.015  0.4226  0.1556  0.5220
  116OSM    H6T12115   5.770   5.128   7.001  0.0625 -0.0245 -1.1987
  116OSM    C7S12116   5.624   5.007   7.099  0.2515  0.3982 -0.0296
  116OSM    H7S12117   5.668   4.907   7.079 -0.6421  0.5872 -3.6893
  116OSM    H7T12118   5.516   4.980   7.092  0.9330 -2.1498 -4.3050
  116OSM    C8S12119   5.655   5.049   7.240 -0.2691  0.5867  0.2984
  116OSM    H8S12120   5.614   5.150   7.257 -0.7303  0.6606 -1.1768
  116OSM    H8T12121   5.766   5.053   7.246 -0.3638  1.6497  1.7598
  116OSM    C9S12122   5.613   4.947   7.347  0.2235  0.6354 -0.3586
  116OSM    H9S12123   5.659   4.847   7.342 -1.4730 -0.1586 -0.9806
  116OSM    H9T12124   5.507   4.919   7.327  0.5407 -0.4819 -0.5189
  116OSM   C10S12125   5.622   5.017   7.483 -1.0096  0.6102  0.3244
  116OSM   H10S12126   5.565   5.112   7.474 -0.7455  0.9214  1.6955
  116OSM   H10T12127   5.728   5.043   7.500 -0.3059 -0.8459 -1.4639
  116OSM   C11S12128   5.573   4.939   7.601  0.5658  0.2501  0.7836
  116OSM   H11S12129   5.569   4.831   7.576 -0.6697  0.8541 -1.8691
  116OSM   H11T12130   5.467   4.963   7.623  0.1875  1.3987 -1.9786
  116OSM   C12S12131   5.654   4.965   7.732  0.0882  0.1194  0.0093
  116OSM   H12S12132   5.625   5.064   7.773 -1.4671 -0.2968 -0.0055
  116OSM   H12T12133   5.764   4.974   7.717  0.3472  0.2056  1.7564
  116OSM   C13S12134   5.627   4.863   7.840 -0.0439  0.1585  0.0185
  116OSM   H13S12135   5.672   4.766   7.809 -0.8842  0.1948 -1.3855
  116OSM   H13T12136   5.518   4.852   7.856  0.0197 -1.0744 -0.3239
  116OSM   C14S12137   5.702   4.881   7.971 -0.5628  0.6480 -0.3578
  116OSM   H14S12138   5.684   4.986   8.002  2.4109  1.5624 -1.3752
  116OSM   H14T12139   5.809   4.851   7.966 -0.5639  0.0682  2.0723
  116OSM   C15S12140   5.657   4.789   8.084 -0.0307  0.0368  0.1101
  116OSM   H15S12141   5.679   4.685   8.050 -0.8423 -0.5912  1.4158
  116OSM   H15T12142   5.546   4.788   8.092 -0.1852 -0.1780 -1.6644
  116OSM   C16S12143   5.719   4.816   8.221 -0.1438 -0.0538 -0.8745
  116OSM   H16S12144   5.759   4.919   8.221 -1.1201  0.3358 -0.2804
  116OSM   H16T12145   5.803   4.745   8.238 -0.7668 -0.7073 -0.4269
  116OSM   C17S12146   5.630   4.789   8.342  0.9559 -0.1856 -0.3090
  116OSM   H17S12147   5.692   4.773   8.432  0.5470 -2.8003 -0.4219
  116OSM   H17T12148   5.573   4.695   8.327 -0.4731  0.8873 -2.1769
  116OSM   C18S12149   5.527   4.900   8.378  0.5736  0.0573  0.2626
  116OSM   H18S12150   5.477   4.926   8.283 -0.6649  1.2591  1.1981
  116OSM   H18T12151   5.578   4.986   8.428 -0.2847  0.6276  0.1818
  116OSM   H18U12152   5.452   4.855   8.447 -0.1520 -0.0833 -0.6006
  116OSM    C1F12153   5.886   4.689   6.662 -0.0176  0.1924 -0.5670
  116OSM     OF12154   5.983   4.761   6.650  0.0896 -0.4447 -0.3269
  116OSM    C2F12155   5.889   4.537   6.677  0.2940  0.7565 -0.4427
  116OSM    H2F12156   5.953   4.502   6.593 -0.5745  1.6816 -1.5354
  116OSM    H2G12157   5.784   4.500   6.669  0.5464 -0.6437  1.9874
  116OSM    C3F12158   5.942   4.506   6.815 -0.7582  0.2757 -0.8218
  116OSM    H3F12159   5.872   4.541   6.893 -0.7031  2.2029 -1.5869
  116OSM    H3G12160   6.046   4.541   6.832  0.0953 -1.8169 -1.3230
  116OSM    C4F12161   5.961   4.355   6.824  0.2343  0.0507 -0.4705
  116OSM    H4F12162   6.042   4.331   6.753  1.7734 -0.4570  1.3742
  116OSM    H4G12163   5.867   4.307   6.789 -0.6236  1.1447  0.2589
  116OSM    C5F12164   6.012   4.301   6.963 -0.1731 -0.1636  0.3938
  116OSM    H5F12165   6.097   4.365   6.994 -0.5795  0.4340  0.2725
  116OSM    H5G12166   6.053   4.198   6.951  1.0500  0.2166  1.1046
  116OSM    C6F12167   5.904   4.284   7.078 -0.4934  0.5251  0.7569
  116OSM    H6F12168   5.827   4.221   7.028 -1.6019  2.7595 -0.5064
  116OSM    H6G12169   5.869   4.388   7.096  0.5945  1.1840 -0.7166
  116OSM    C7F12170   5.985   4.231   7.196  0.2464  0.0741  0.0292
  116OSM    H7F12171   6.058   4.306   7.233 -0.2954 -0.2496  1.8827
  116OSM    H7G12172   6.031   4.136   7.160 -1.7187 -0.8456 -0.2063
  116OSM    C8F12173   5.880   4.198   7.302 -0.6539 -0.8447 -0.4240
  116OSM    H8F12174   5.799   4.135   7.258 -0.4231 -1.7712  0.4408
  116OSM    H8G12175   5.829   4.294   7.322  0.3139  0.4011 -3.4208
  116OSM    C9F12176   5.929   4.138   7.430 -0.9096 -0.5233 -0.0412
  116OSM    H9F12177   6.034   4.166   7.445 -1.6825  2.9256 -0.2696
  116OSM   C10F12178   5.863   4.088   7.541 -0.2089  0.4686 -0.1259
  116OSM   H10F12179   5.920   4.057   7.631  0.8239 -0.4367 -1.0665
  116OSM   C11F12180   5.713   4.066   7.552 -0.2463 -0.3406  0.2412
  116OSM   H11F12181   5.695   3.957   7.562 -3.1750  0.0477  0.2316
  116OSM   H11G12182   5.644   4.095   7.470 -1.8051 -0.0417  1.5894
  116OSM   C12F12183   5.650   4.126   7.683  0.5833  0.0412  0.6238
  116OSM   H12F12184   5.539   4.130   7.677  0.6288  0.1698 -0.2835
  116OSM   H12G12185   5.679   4.234   7.683 -1.0112  0.5109  1.4458
  116OSM   C13F12186   5.695   4.060   7.820  0.5393 -0.0549 -0.3394
  116OSM   H13F12187   5.685   4.132   7.905  0.6455 -3.0600  2.4366
  116OSM   H13G12188   5.800   4.032   7.800  1.3380  2.0583  0.5066
  116OSM   C14F12189   5.612   3.939   7.852  0.4052  0.1691 -0.5452
  116OSM   H14F12190   5.612   3.859   7.775  2.1392 -1.3793  0.9740
  116OSM   H14G12191   5.505   3.967   7.868  0.8372  0.9931  1.0659
  116OSM   C15F12192   5.651   3.875   7.987 -0.3785  0.4445  0.6566
  116OSM   H15F12193   5.762   3.863   7.993 -0.3330 -0.1126 -0.9694
  116OSM   H15G12194   5.610   3.772   7.990  0.7962 -0.0348  1.0038
  116OSM   C16F12195   5.594   3.952   8.107  0.0528  0.8704 -0.3588
  116OSM   H16F12196   5.627   4.056   8.090 -1.2930  0.9282 -3.3150
  116OSM   H16G12197   5.643   3.901   8.193 -2.8453 -1.4343  0.0864
  116OSM   C17F12198   5.441   3.937   8.133 -0.2864  0.1778 -0.0348
  116OSM   H17F12199   5.389   3.842   8.106  0.4390 -0.1448 -0.3163
  116OSM   H17G12200   5.399   4.003   8.054  0.6070 -0.8865 -1.4455
  116OSM   C18F12201   5.394   3.984   8.263  0.1977  0.4109  0.3912
  116OSM   H18F12202   5.425   3.919   8.347  0.9509 -1.9849 -1.6148
  116OSM   H18G12203   5.283   3.982   8.254  0.1949 -2.8906  0.0145
  116OSM   H18H12204   5.437   4.081   8.296 -0.0763 -0.3143  3.1119
  117OSM      N12205   0.534   5.725   6.025  1.0064  0.0400 -0.0637
  117OSM    C1512206   0.472   5.750   5.893 -0.2501  0.1185 -0.5682
  117OSM   H15A12207   0.500   5.847   5.854 -0.1319  0.7095  0.9144
  117OSM   H15B12208   0.365   5.741   5.905 -0.4384  0.6775 -1.7774
  117OSM   H15C12209   0.509   5.677   5.823 -0.1876 -0.6313  0.2266
  117OSM    C1412210   0.489   5.826   6.121  0.8196 -0.8187  0.1057
  117OSM   H14A12211   0.544   5.816   6.214  1.0735  0.8026  0.1593
  117OSM   H14B12212   0.383   5.806   6.132  0.6676 -0.6551 -0.9691
  117OSM   H14C12213   0.506   5.929   6.092  0.6089 -0.1029  2.3082
  117OSM    C1312214   0.504   5.591   6.074  0.3239 -0.3510 -0.1710
  117OSM   H13A12215   0.397   5.587   6.087  0.0274  0.8499 -1.9694
  117OSM   H13B12216   0.549   5.565   6.169 -0.6735  1.1408  0.7562
  117OSM   H13C12217   0.538   5.508   6.013 -0.2452 -0.2819 -0.5929
  117OSM    C1212218   0.689   5.743   6.016  0.0480  0.1092  0.7397
  117OSM   H12A12219   0.718   5.832   5.961 -1.6118 -0.7652 -1.7344
  117OSM   H12B12220   0.726   5.655   5.966  1.2140  0.4536  0.9632
  117OSM    C1112221   0.774   5.733   6.149 -0.0952 -0.0248 -0.2932
  117OSM   H11A12222   0.880   5.722   6.118 -0.2627 -0.6052 -0.6792
  117OSM   H11B12223   0.747   5.641   6.205 -0.4695 -1.0248 -2.0292
  117OSM      P12224   0.816   5.854   6.378  0.0346 -0.2218  0.7095
  117OSM    O1312225   0.962   5.868   6.353  0.3658  0.1949  0.7165
  117OSM    O1412226   0.748   5.962   6.457 -0.2851 -0.2108  0.8106
  117OSM    O1112227   0.791   5.709   6.434  0.1630  0.4674  0.1943
  117OSM    O1212228   0.754   5.845   6.234 -0.0399 -0.3755  0.7785
  117OSM    C1S12229   0.807   5.691   6.574  0.1697 -0.5411 -0.0119
  117OSM    H1S12230   0.880   5.763   6.617  1.3371 -0.2512 -2.2893
  117OSM    H1T12231   0.859   5.594   6.592  0.7649  0.0815  1.8083
  117OSM     NF12232   0.699   5.663   6.796 -0.4217 -0.1371  0.2279
  117OSM    HNF12233   0.670   5.569   6.815  2.8832 -1.3988 -0.2804
  117OSM    C2S12234   0.677   5.716   6.664  0.2245  0.2965  0.0105
  117OSM    H2S12235   0.649   5.823   6.670 -1.2338 -0.1057  0.7963
  117OSM    C3S12236   0.551   5.642   6.598  0.1608  0.2417 -1.1629
  117OSM    H3S12237   0.563   5.532   6.612  2.4955  0.5616 -0.2258
  117OSM     O312238   0.540   5.653   6.462 -0.1059  0.0035  0.4602
  117OSM    HO312239   0.626   5.692   6.451  0.6306 -0.4488  3.5330
  117OSM    C4S12240   0.418   5.686   6.663  0.2953 -0.0456  0.4198
  117OSM    H4S12241   0.395   5.793   6.649  0.8054  0.3755  2.4671
  117OSM    C5S12242   0.329   5.609   6.738  0.0005  0.2912  0.0125
  117OSM    H5S12243   0.347   5.500   6.743 -1.2181  0.1041  0.5643
  117OSM    C6S12244   0.207   5.668   6.810  0.1239  0.2252  0.3374
  117OSM    H6S12245   0.118   5.662   6.744  0.4960 -2.0960 -0.0347
  117OSM    H6T12246   0.230   5.775   6.828  2.7208 -0.1376 -0.4629
  117OSM    C7S12247   0.164   5.600   6.946 -0.3318 -0.0975 -0.2394
  117OSM    H7S12248   0.086   5.661   6.996 -1.1597 -2.2036  1.1838
  117OSM    H7T12249   0.253   5.574   7.007 -0.7734 -1.4537 -0.1296
  117OSM    C8S12250   0.108   5.459   6.924 -0.4324 -0.1898 -0.4796
  117OSM    H8S12251   0.189   5.397   6.881 -1.2467 -0.9142 -0.9953
  117OSM    H8T12252   0.028   5.468   6.848  0.6591  0.4281 -1.5935
  117OSM    C9S12253   0.060   5.390   7.055 -0.3927 -1.2208  1.0439
  117OSM    H9S12254   0.025   5.288   7.028 -1.3671 -0.6979  0.2474
  117OSM    H9T12255  -0.025   5.450   7.094 -1.0344 -2.2043  1.1953
  117OSM   C10S12256   0.154   5.402   7.176 -0.3404  0.0399  0.5059
  117OSM   H10S12257   0.218   5.491   7.190  1.6247 -1.3491  0.8651
  117OSM   H10T12258   0.229   5.321   7.160 -1.3211 -1.3597  2.5670
  117OSM   C11S12259   0.091   5.361   7.308 -0.0629  1.0579 -0.4793
  117OSM   H11S12260   0.063   5.253   7.302  0.7133  0.8067  0.2072
  117OSM   H11T12261   0.001   5.419   7.335 -0.6443 -0.9036  2.2864
  117OSM   C12S12262   0.197   5.362   7.418  0.2224 -0.2295  0.7187
  117OSM   H12S12263   0.245   5.461   7.431  1.6411 -0.0088 -4.1360
  117OSM   H12T12264   0.280   5.291   7.401  1.6934  1.1732  1.7634
  117OSM   C13S12265   0.132   5.320   7.549  0.6063 -0.5194  0.0184
  117OSM   H13S12266   0.081   5.222   7.541 -0.6362  0.1314 -0.2982
  117OSM   H13T12267   0.055   5.396   7.574  0.9577 -0.5924  1.4240
  117OSM   C14S12268   0.230   5.314   7.665 -0.1360  0.5502  0.0499
  117OSM   H14S12269   0.268   5.418   7.669 -0.3909  0.6250  0.7468
  117OSM   H14T12270   0.315   5.245   7.648 -1.6945 -1.3044 -0.5963
  117OSM   C15S12271   0.156   5.290   7.799 -0.2742  0.0299 -0.5212
  117OSM   H15S12272   0.157   5.180   7.813 -0.5317  0.2478  1.4782
  117OSM   H15T12273   0.052   5.328   7.787 -0.0961  0.3955 -0.9177
  117OSM   C16S12274   0.223   5.364   7.915  0.3144  0.3413 -0.6561
  117OSM   H16S12275   0.243   5.471   7.893  3.7029  0.7371  3.0559
  117OSM   H16T12276   0.322   5.316   7.936  0.4529 -0.3035 -2.5624
  117OSM   C17S12277   0.154   5.361   8.061 -0.4013 -0.3264 -0.0909
  117OSM   H17S12278   0.056   5.412   8.052 -2.0493 -2.7341  2.4753
  117OSM   H17T12279   0.204   5.423   8.137  0.4518 -1.0820 -0.0147
  117OSM   C18S12280   0.118   5.218   8.127 -0.0004 -0.0742 -0.3000
  117OSM   H18S12281   0.209   5.159   8.150 -0.5436 -0.9306 -0.2861
  117OSM   H18T12282   0.062   5.156   8.054 -0.9813  0.6796 -0.2019
  117OSM   H18U12283   0.056   5.236   8.218  0.1224 -0.5016 -0.1283
  117OSM    C1F12284   0.778   5.719   6.885 -0.1728  0.0563  0.4676
  117OSM     OF12285   0.835   5.823   6.856  0.5784 -0.4479 -0.1494
  117OSM    C2F12286   0.796   5.656   7.025  0.3706  0.4508  0.2688
  117OSM    H2F12287   0.858   5.567   7.000 -1.9743 -1.0487 -0.5451
  117OSM    H2G12288   0.697   5.623   7.063  0.4927 -0.2939 -0.0423
  117OSM    C3F12289   0.871   5.745   7.127  0.3552 -0.2512 -0.2785
  117OSM    H3F12290   0.827   5.846   7.120  0.5359 -0.0444  1.2212
  117OSM    H3G12291   0.976   5.747   7.089  0.5271  0.4646  0.2311
  117OSM    C4F12292   0.858   5.686   7.270 -0.8604  0.0912 -0.2413
  117OSM    H4F12293   0.883   5.579   7.250 -1.3136  0.2731 -1.9890
  117OSM    H4G12294   0.749   5.700   7.289 -0.8948 -0.4471 -0.0182
  117OSM    C5F12295   0.949   5.757   7.373 -0.7429  0.1618  0.1043
  117OSM    H5F12296   0.916   5.862   7.385  3.8209  1.9073 -0.5318
  117OSM    H5G12297   1.050   5.770   7.328 -0.1707 -1.8485  0.6632
  117OSM    C6F12298   0.960   5.696   7.518  0.3857  0.3326  0.2913
  117OSM    H6F12299   1.023   5.606   7.507  1.4562  1.1388 -0.3121
  117OSM    H6G12300   0.864   5.665   7.565 -0.0571  2.9107  1.2672
  117OSM    C7F12301   1.035   5.782   7.626  0.5336 -0.1179  0.7223
  117OSM    H7F12302   0.970   5.871   7.639 -0.5071 -0.6688 -0.5288
  117OSM    H7G12303   1.129   5.830   7.591  0.1618 -0.0733 -0.2480
  117OSM    C8F12304   1.043   5.708   7.765  0.3161 -0.7886  0.1702
  117OSM    H8F12305   1.129   5.639   7.751  0.9487  0.4580 -2.6528
  117OSM    H8G12306   0.947   5.654   7.780 -0.4048 -0.2085 -2.0407
  117OSM    C9F12307   1.073   5.801   7.871 -0.1028 -0.3122 -0.1968
  117OSM    H9F12308   1.097   5.903   7.835 -2.6935  0.0729 -1.0408
  117OSM   C10F12309   1.050   5.789   8.002 -0.2865  0.6564  0.4012
  117OSM   H10F12310   1.092   5.862   8.073  1.3320  0.8361 -0.7056
  117OSM   C11F12311   0.999   5.661   8.070 -0.9409 -0.7250  0.3641
  117OSM   H11F12312   1.041   5.578   8.009 -1.2706 -0.0141 -0.8633
  117OSM   H11G12313   0.891   5.645   8.048 -1.4343  0.2021  1.9681
  117OSM   C12F12314   1.044   5.650   8.214  0.7918 -0.5533 -1.0376
  117OSM   H12F12315   1.150   5.677   8.233  0.1950  0.0553  2.0927
  117OSM   H12G12316   1.014   5.551   8.255 -0.3021 -0.8740 -2.5239
  117OSM   C13F12317   0.968   5.755   8.304 -0.5187  0.3517 -0.6166
  117OSM   H13F12318   0.857   5.749   8.299 -0.5989  0.9223  0.3838
  117OSM   H13G12319   0.990   5.859   8.272 -0.8703  0.4300 -0.6089
  117OSM   C14F12320   1.008   5.710   8.453 -0.7338 -0.6949 -0.0611
  117OSM   H14F12321   1.118   5.696   8.452 -0.7622 -1.0874  1.0604
  117OSM   H14G12322   0.959   5.615   8.482 -1.6059 -0.6070 -1.1810
  117OSM   C15F12323   0.985   5.815   8.563  1.0630  0.4856  0.1164
  117OSM   H15F12324   1.034   5.909   8.528  0.4247  0.4998 -0.7982
  117OSM   H15G12325   1.018   5.789   8.665  0.9456  0.0164  0.0369
  117OSM   C16F12326   0.833   5.845   8.578 -0.0817 -0.2526  0.2022
  117OSM   H16F12327   0.778   5.751   8.554 -0.6059 -0.6826  2.7952
  117OSM   H16G12328   0.806   5.908   8.491 -0.9499 -2.3883 -1.1799
  117OSM   C17F12329   0.778   5.900   8.709  0.3111  0.5994 -0.0357
  117OSM   H17F12330   0.797   5.822   8.786 -0.0321  0.3611 -0.1896
  117OSM   H17G12331   0.826   5.996   8.738  2.8428 -0.1635 -1.4250
  117OSM   C18F12332   0.628   5.939   8.717 -0.5696  0.6764 -0.3518
  117OSM   H18F12333   0.567   5.847   8.705  0.3701 -0.1459  0.8134
  117OSM   H18G12334   0.607   6.013   8.638  1.1590  0.9392 -0.6091
  117OSM   H18H12335   0.610   5.982   8.818  1.2548 -3.4239  1.9595
  118OSM      N12336   1.814   0.635   6.183 -0.1933 -0.1639 -0.1147
  118OSM    C1512337   1.682   0.602   6.144  0.3944  0.0749  0.3219
  118OSM   H15A12338   1.689   0.529   6.064 -0.0110  2.3597 -1.9223
  118OSM   H15B12339   1.636   0.688   6.098  2.6905  0.5238 -1.3284
  118OSM   H15C12340   1.620   0.564   6.224  1.6238 -2.9795 -0.0236
  118OSM    C1412341   1.875   0.519   6.252 -0.7817 -0.3639  0.2125
  118OSM   H14A12342   1.848   0.437   6.187 -0.5176 -0.2936  0.0129
  118OSM   H14B12343   1.836   0.509   6.352 -0.3746 -2.0063  0.2364
  118OSM   H14C12344   1.982   0.526   6.261 -0.8588  1.5117  0.0094
  118OSM    C1312345   1.897   0.666   6.059 -0.0066  1.0664  0.6359
  118OSM   H13A12346   1.873   0.606   5.973  1.0319  2.5864 -0.7626
  118OSM   H13B12347   2.003   0.662   6.079  0.5942  1.3367 -2.1570
  118OSM   H13C12348   1.861   0.759   6.017 -0.7950  0.0819 -0.9604
  118OSM    C1212349   1.818   0.753   6.279  0.1281 -0.3277 -0.8126
  118OSM   H12A12350   1.922   0.761   6.309 -0.0251  1.2385 -0.6395
  118OSM   H12B12351   1.760   0.722   6.365 -0.2562 -1.5229 -1.4821
  118OSM    C1112352   1.775   0.892   6.233 -0.1257 -0.8236 -0.2199
  118OSM   H11A12353   1.832   0.915   6.140  0.8576 -1.3750  0.2382
  118OSM   H11B12354   1.805   0.975   6.300 -1.0952 -0.7555  0.1374
  118OSM      P12355   1.521   0.896   6.315 -0.2817  0.2768 -0.3519
  118OSM    O1312356   1.430   1.003   6.272  0.5273  0.0460 -0.2892
  118OSM    O1412357   1.466   0.758   6.327 -0.3480  0.0601  0.2388
  118OSM    O1112358   1.591   0.934   6.455  0.0758  0.7516 -0.4808
  118OSM    O1212359   1.634   0.898   6.206  0.1889 -0.2163 -0.4309
  118OSM    C1S12360   1.532   1.045   6.530  0.0965 -0.2974  0.1542
  118OSM    H1S12361   1.422   1.036   6.534 -0.3225  2.8658 -1.3955
  118OSM    H1T12362   1.564   1.143   6.489 -2.4684  0.8656  0.7308
  118OSM     NF12363   1.532   1.164   6.754  0.0367  0.5742 -0.0042
  118OSM    HNF12364   1.605   1.225   6.785  0.2958  0.7327 -0.9070
  118OSM    C2S12365   1.580   1.047   6.677 -0.0548 -0.0998 -0.4704
  118OSM    H2S12366   1.548   0.953   6.725  1.1319  0.0981  0.7760
  118OSM    C3S12367   1.734   1.045   6.682  0.0692 -0.3099 -0.1254
  118OSM    H3S12368   1.767   1.145   6.648 -0.3973 -0.4442 -0.9872
  118OSM     O312369   1.800   0.946   6.616  0.2952  0.0539  0.3484
  118OSM    HO312370   1.736   0.928   6.547 -0.5249  0.6979  0.9147
  118OSM    C4S12371   1.776   1.040   6.830  0.1239 -0.1185  0.3851
  118OSM    H4S12372   1.790   1.139   6.877 -1.0193  0.2594 -0.0387
  118OSM    C5S12373   1.779   0.937   6.913  0.1342  0.8704 -0.5915
  118OSM    H5S12374   1.772   0.832   6.881  0.3671  0.5813  0.2920
  118OSM    C6S12375   1.804   0.945   7.061 -0.1066 -0.3530 -0.2880
  118OSM    H6S12376   1.891   0.882   7.091  0.6237  1.1328  0.8484
  118OSM    H6T12377   1.721   0.911   7.128  0.1345 -3.4507 -1.4035
  118OSM    C7S12378   1.845   1.079   7.122 -0.3151 -0.7719 -0.4548
  118OSM    H7S12379   1.770   1.159   7.134  1.9424  1.0623  3.5867
  118OSM    H7T12380   1.926   1.126   7.062  0.4160  1.5188  2.0784
  118OSM    C8S12381   1.901   1.069   7.269 -0.0302  0.2673  0.4766
  118OSM    H8S12382   1.943   1.170   7.288  0.7896 -0.0153  0.2086
  118OSM    H8T12383   1.983   0.995   7.272  0.4013  0.7469  0.7588
  118OSM    C9S12384   1.796   1.027   7.371  0.0742  0.0230  0.6576
  118OSM    H9S12385   1.774   0.919   7.358 -1.8599  0.4157  0.3240
  118OSM    H9T12386   1.702   1.076   7.339  0.4433  0.3790  0.0882
  118OSM   C10S12387   1.842   1.036   7.517 -0.0157  0.0667 -0.0698
  118OSM   H10S12388   1.893   1.133   7.532  0.0795 -0.1913  1.4486
  118OSM   H10T12389   1.928   0.968   7.535  0.1902  0.1151 -0.8385
  118OSM   C11S12390   1.733   1.014   7.618  0.2268  0.8292  0.6627
  118OSM   H11S12391   1.696   0.911   7.601  3.1058  0.1455 -2.5129
  118OSM   H11T12392   1.653   1.089   7.604  2.5855  3.3053 -0.3873
  118OSM   C12S12393   1.782   1.020   7.766 -0.2483  0.0895  0.4138
  118OSM   H12S12394   1.815   1.124   7.784 -1.7028  0.6510 -0.0089
  118OSM   H12T12395   1.867   0.950   7.781 -1.1422 -0.9045  0.9673
  118OSM   C13S12396   1.679   0.964   7.869 -0.3527 -0.0671  0.2093
  118OSM   H13S12397   1.672   0.855   7.847 -1.5797 -0.0245  0.3083
  118OSM   H13T12398   1.578   1.006   7.851  0.1649  1.2790  0.2863
  118OSM   C14S12399   1.732   0.986   8.009 -0.5533  0.8062 -0.1433
  118OSM   H14S12400   1.694   1.082   8.050  0.7291  1.2392  0.0877
  118OSM   H14T12401   1.838   1.020   8.014 -0.6173  1.1876 -1.0953
  118OSM   C15S12402   1.691   0.861   8.089  0.8322 -0.0157  0.7948
  118OSM   H15S12403   1.719   0.773   8.028 -2.5958 -1.3746  0.9742
  118OSM   H15T12404   1.580   0.871   8.097  0.8496 -0.4012  1.5895
  118OSM   C16S12405   1.748   0.844   8.229  0.0409  0.3086 -0.3544
  118OSM   H16S12406   1.713   0.927   8.294  0.7735  0.1523  0.2562
  118OSM   H16T12407   1.859   0.847   8.222  0.2749 -1.9940  1.3447
  118OSM   C17S12408   1.732   0.708   8.289 -1.0063  0.6443  0.1917
  118OSM   H17S12409   1.787   0.635   8.226 -1.2358  1.7943 -1.4077
  118OSM   H17T12410   1.624   0.681   8.281 -0.8127 -1.1492  2.4784
  118OSM   C18S12411   1.778   0.699   8.436  0.0695 -0.2186  0.2664
  118OSM   H18S12412   1.877   0.747   8.451  0.8461 -2.3112  2.4642
  118OSM   H18T12413   1.785   0.592   8.465  1.8491 -0.5813 -1.3233
  118OSM   H18U12414   1.704   0.749   8.502 -0.4751 -1.8079  0.9178
  118OSM    C1F12415   1.407   1.192   6.786 -0.3121 -0.9220 -0.3436
  118OSM     OF12416   1.315   1.115   6.772 -0.6154  0.5354  0.0534
  118OSM    C2F12417   1.391   1.319   6.861 -0.1633 -0.6944 -0.6492
  118OSM    H2F12418   1.304   1.378   6.826 -1.5997 -2.0303  0.5123
  118OSM    H2G12419   1.480   1.385   6.850  0.4070 -1.6944 -2.5325
  118OSM    C3F12420   1.359   1.295   7.016 -0.0264  0.7320 -0.2201
  118OSM    H3F12421   1.441   1.242   7.069 -0.3785  0.5805  0.1770
  118OSM    H3G12422   1.262   1.240   7.019 -0.2718  1.1935  0.6469
  118OSM    C4F12423   1.333   1.426   7.092  0.2272  0.3872  0.2863
  118OSM    H4F12424   1.291   1.498   7.018  0.9282  0.4025 -0.1142
  118OSM    H4G12425   1.428   1.478   7.118 -0.6385  2.5496 -0.6395
  118OSM    C5F12426   1.245   1.427   7.217  0.5000  0.1711 -0.4856
  118OSM    H5F12427   1.266   1.357   7.300  0.8843 -1.0429 -1.5614
  118OSM    H5G12428   1.140   1.408   7.185 -0.1870  0.7098  1.3703
  118OSM    C6F12429   1.258   1.566   7.284 -0.5589  0.2936  0.3702
  118OSM    H6F12430   1.259   1.643   7.203  0.2507  0.6897  0.7513
  118OSM    H6G12431   1.357   1.583   7.330 -1.0639  0.5582  1.3868
  118OSM    C7F12432   1.154   1.586   7.400 -0.2243 -0.7262  0.0343
  118OSM    H7F12433   1.095   1.493   7.415 -1.9264  0.0315 -1.6578
  118OSM    H7G12434   1.087   1.669   7.370  0.1170 -0.6898 -0.6418
  118OSM    C8F12435   1.223   1.628   7.534 -0.2737 -0.3717  0.3356
  118OSM    H8F12436   1.145   1.667   7.603  1.5978  3.4858  0.5246
  118OSM    H8G12437   1.285   1.717   7.511 -1.7582  0.4635 -0.5635
  118OSM    C9F12438   1.297   1.519   7.607  0.0010 -0.1387  0.4785
  118OSM    H9F12439   1.339   1.446   7.537 -0.8391  0.8174 -1.0771
  118OSM   C10F12440   1.325   1.503   7.734  0.0231 -0.2502  0.1572
  118OSM   H10F12441   1.381   1.413   7.766 -0.3334 -0.1572  1.0633
  118OSM   C11F12442   1.294   1.595   7.850  0.2884 -0.1605 -0.0096
  118OSM   H11F12443   1.274   1.693   7.803  3.7009 -0.4568 -2.4104
  118OSM   H11G12444   1.380   1.596   7.920  1.5342  0.8329 -1.4901
  118OSM   C12F12445   1.170   1.535   7.923 -0.3984 -0.6905  0.3320
  118OSM   H12F12446   1.204   1.432   7.947  3.4214 -0.0574 -1.6406
  118OSM   H12G12447   1.092   1.539   7.843  0.6624 -0.8100 -0.7413
  118OSM   C13F12448   1.114   1.629   8.038 -0.5800  0.2237 -0.0272
  118OSM   H13F12449   1.182   1.616   8.125  0.0880  0.7181 -0.4592
  118OSM   H13G12450   1.015   1.588   8.067 -1.1264  1.6952  0.2720
  118OSM   C14F12451   1.088   1.770   7.993  0.0684 -0.5267  0.0881
  118OSM   H14F12452   1.063   1.778   7.885  1.7931  0.0140 -0.2915
  118OSM   H14G12453   1.188   1.819   7.993  0.3044 -0.9940 -0.6124
  118OSM   C15F12454   0.988   1.845   8.076 -0.9900 -0.2190  0.3511
  118OSM   H15F12455   0.892   1.797   8.050 -0.7210  0.2796 -1.7720
  118OSM   H15G12456   0.992   1.953   8.049  3.5678 -0.0207  1.0367
  118OSM   C16F12457   1.001   1.832   8.228  0.0025  0.7235 -0.3437
  118OSM   H16F12458   1.099   1.874   8.260  1.5121 -0.7668 -2.6890
  118OSM   H16G12459   0.990   1.726   8.260  0.9725  0.5368 -0.6043
  118OSM   C17F12460   0.893   1.912   8.302  0.4846 -0.1846 -0.0504
  118OSM   H17F12461   0.792   1.880   8.269  1.4419 -1.0810 -2.3460
  118OSM   H17G12462   0.893   2.013   8.256  0.1975 -0.3325 -0.3862
  118OSM   C18F12463   0.909   1.924   8.452  0.5605 -0.4618 -0.1616
  118OSM   H18F12464   1.002   1.983   8.466 -0.4979  1.1999  0.1442
  118OSM   H18G12465   0.926   1.830   8.509  0.5334  0.2368  1.0249
  118OSM   H18H12466   0.829   1.978   8.508 -0.7122 -1.7642 -0.6510
  119OSM      N12467   4.134   2.211   5.768  0.2625  0.0358 -0.5877
  119OSM    C1512468   4.079   2.146   5.646 -0.6092 -0.5329 -0.4720
  119OSM   H15A12469   4.160   2.129   5.576 -0.3479  0.6032 -0.4693
  119OSM   H15B12470   4.006   2.213   5.603 -1.1720 -0.3533  0.7386
  119OSM   H15C12471   4.038   2.047   5.659  0.2185 -0.8496 -0.2171
  119OSM    C1412472   4.189   2.348   5.732 -0.1218 -0.4149  0.3915
  119OSM   H14A12473   4.116   2.406   5.678 -0.4958  0.1105  1.4203
  119OSM   H14B12474   4.273   2.335   5.666 -0.2248 -0.1732  0.2108
  119OSM   H14C12475   4.236   2.402   5.813  0.5348  0.9661 -0.8579
  119OSM    C1312476   4.018   2.248   5.858 -0.5817 -0.0574 -0.1633
  119OSM   H13A12477   3.972   2.156   5.891 -0.2820 -0.2410 -0.2590
  119OSM   H13B12478   3.947   2.298   5.794 -0.0435 -0.3004 -0.9575
  119OSM   H13C12479   4.045   2.311   5.942  0.9344 -1.2235  0.2697
  119OSM    C1212480   4.234   2.122   5.842 -0.2920  0.0859  0.1878
  119OSM   H12A12481   4.277   2.178   5.923  0.9983 -1.4365  0.6115
  119OSM   H12B12482   4.320   2.104   5.780  0.4269  0.4303  1.0602
  119OSM    C1112483   4.180   1.981   5.884 -0.3653 -0.1498 -0.1902
  119OSM   H11A12484   4.249   1.926   5.952  0.8183 -0.6172 -1.7041
  119OSM   H11B12485   4.190   1.913   5.797  3.6441 -1.2375  0.9055
  119OSM      P12486   3.976   1.825   5.949 -0.3613  0.3005  0.1410
  119OSM    O1312487   3.843   1.838   6.012  0.3803 -0.3077 -0.2313
  119OSM    O1412488   3.986   1.763   5.812  0.4804 -1.1884  0.5304
  119OSM    O1112489   4.086   1.762   6.048 -0.2988  0.2189  0.6610
  119OSM    O1212490   4.047   1.972   5.939  0.3691 -0.1013 -0.2004
  119OSM    C1S12491   4.113   1.813   6.180  0.1651  0.3931 -0.3583
  119OSM    H1S12492   4.023   1.809   6.246  0.2292  1.9510 -0.1371
  119OSM    H1T12493   4.155   1.916   6.177  0.9457  0.0573 -1.3991
  119OSM     NF12494   4.239   1.775   6.398 -0.3031 -0.1153  0.2551
  119OSM    HNF12495   4.311   1.840   6.419 -0.1600  0.0988 -0.8359
  119OSM    C2S12496   4.225   1.733   6.264  0.3041  0.1431 -0.4169
  119OSM    H2S12497   4.182   1.632   6.252  1.0963 -0.0064 -2.4211
  119OSM    C3S12498   4.356   1.739   6.185 -0.3471  0.4348  0.2029
  119OSM    H3S12499   4.397   1.840   6.166  0.2476 -0.0116 -1.0671
  119OSM     O312500   4.344   1.692   6.053 -0.0970 -0.4937 -0.1536
  119OSM    HO312501   4.250   1.706   6.047 -0.0769  0.1034  0.7314
  119OSM    C4S12502   4.470   1.666   6.264  0.0483  0.3974 -0.1484
  119OSM    H4S12503   4.435   1.572   6.309 -0.4579 -0.4743 -2.2462
  119OSM    C5S12504   4.596   1.700   6.273  0.4989  0.0964 -0.3837
  119OSM    H5S12505   4.641   1.791   6.231  0.1880  0.0449 -0.8421
  119OSM    C6S12506   4.691   1.617   6.365  0.0860 -0.2464  0.2168
  119OSM    H6S12507   4.791   1.609   6.318  1.1858  1.0603  2.1567
  119OSM    H6T12508   4.664   1.509   6.368 -0.7887 -0.0394  2.5499
  119OSM    C7S12509   4.718   1.683   6.502  0.2200 -0.0427  0.7714
  119OSM    H7S12510   4.744   1.788   6.475 -0.8795 -0.4860 -2.4192
  119OSM    H7T12511   4.806   1.638   6.552  1.4030  0.1034 -1.1051
  119OSM    C8S12512   4.604   1.687   6.606 -0.3336 -0.2279 -0.0837
  119OSM    H8S12513   4.582   1.581   6.633 -0.8302  0.2552  1.5495
  119OSM    H8T12514   4.510   1.727   6.562  0.3441  0.9090 -0.5389
  119OSM    C9S12515   4.649   1.760   6.739  0.2824 -0.1682 -0.0722
  119OSM    H9S12516   4.648   1.871   6.733  0.4283 -0.2012 -0.7038
  119OSM    H9T12517   4.750   1.725   6.767  1.5322  2.8773 -0.4227
  119OSM   C10S12518   4.540   1.735   6.846  0.4286  0.5622 -0.0713
  119OSM   H10S12519   4.544   1.627   6.873  0.7328  0.9414  1.5105
  119OSM   H10T12520   4.440   1.741   6.798  0.8719 -0.8963 -1.2773
  119OSM   C11S12521   4.552   1.822   6.972 -0.0045 -0.1425 -0.3814
  119OSM   H11S12522   4.581   1.923   6.935  1.9294 -0.7079 -0.5385
  119OSM   H11T12523   4.637   1.789   7.036  0.7205  2.2120 -0.0050
  119OSM   C12S12524   4.429   1.823   7.058 -0.5170 -0.0759 -0.2263
  119OSM   H12S12525   4.393   1.718   7.068 -0.6199 -0.0834 -0.6302
  119OSM   H12T12526   4.349   1.876   7.002  0.5015 -0.6173 -2.2998
  119OSM   C13S12527   4.462   1.883   7.197  0.1700  0.0887 -0.3337
  119OSM   H13S12528   4.512   1.981   7.183  2.8312 -0.9356  1.2173
  119OSM   H13T12529   4.540   1.826   7.251 -0.4832  0.4831  1.0854
  119OSM   C14S12530   4.337   1.902   7.282  0.3339 -0.3264  0.1005
  119OSM   H14S12531   4.283   1.806   7.296  1.2269 -0.7467  0.8079
  119OSM   H14T12532   4.259   1.964   7.235 -0.1962 -0.7672  0.3923
  119OSM   C15S12533   4.379   1.961   7.416 -0.0276  0.0081  0.5991
  119OSM   H15S12534   4.378   2.072   7.418  1.0444  0.0455  3.6513
  119OSM   H15T12535   4.481   1.922   7.436 -1.2874 -2.8542  2.0048
  119OSM   C16S12536   4.289   1.917   7.536 -0.9142 -0.0670  0.1616
  119OSM   H16S12537   4.279   1.806   7.544 -1.7671  0.0012  0.1581
  119OSM   H16T12538   4.192   1.957   7.500  0.9625  5.1106  0.1200
  119OSM   C17S12539   4.308   1.982   7.674  0.0766  0.0485 -0.1099
  119OSM   H17S12540   4.209   2.003   7.719  0.0645 -1.7478  0.7834
  119OSM   H17T12541   4.359   2.079   7.657 -1.3008  0.6622 -0.8588
  119OSM   C18S12542   4.391   1.905   7.778  0.5877  0.5639 -0.6188
  119OSM   H18S12543   4.334   1.812   7.801 -0.4164  1.6117  1.4052
  119OSM   H18T12544   4.401   1.952   7.878  2.5627 -1.8295  0.4335
  119OSM   H18U12545   4.492   1.866   7.754  0.0973 -1.8260  0.8356
  119OSM    C1F12546   4.134   1.768   6.480  0.4651 -1.0723 -0.3436
  119OSM     OF12547   4.045   1.689   6.456 -0.1855  0.1683 -0.5062
  119OSM    C2F12548   4.147   1.841   6.612  0.0827  0.3768 -0.2465
  119OSM    H2F12549   4.158   1.949   6.589  0.9798  0.4518  0.5034
  119OSM    H2G12550   4.237   1.808   6.668  0.3107  0.2037 -0.7065
  119OSM    C3F12551   4.027   1.805   6.709 -0.0676  0.0761  0.5115
  119OSM    H3F12552   4.018   1.696   6.727 -1.0738 -0.1778 -1.3682
  119OSM    H3G12553   3.927   1.840   6.676 -2.3756 -4.5954  1.7437
  119OSM    C4F12554   4.040   1.867   6.849 -0.3332 -0.9646  0.1935
  119OSM    H4F12555   4.055   1.976   6.833 -3.0372 -0.7786 -1.9604
  119OSM    H4G12556   4.128   1.836   6.909 -1.0841 -0.3026  1.6985
  119OSM    C5F12557   3.915   1.852   6.937  0.1538 -0.1754  0.6612
  119OSM    H5F12558   3.896   1.743   6.938  3.5301 -0.9446 -1.4727
  119OSM    H5G12559   3.832   1.911   6.893 -1.3085 -1.3926  1.7114
  119OSM    C6F12560   3.957   1.892   7.082  0.5025 -0.3993 -0.4545
  119OSM    H6F12561   3.986   1.999   7.077  2.0298 -0.5243  2.8984
  119OSM    H6G12562   4.043   1.832   7.118  1.0621  2.0092  2.7636
  119OSM    C7F12563   3.850   1.881   7.194  0.3854 -0.3967  0.7060
  119OSM    H7F12564   3.810   1.778   7.200 -1.4273  0.3361  3.0287
  119OSM    H7G12565   3.758   1.936   7.162  0.0297 -0.3140  1.8189
  119OSM    C8F12566   3.890   1.924   7.342 -0.0260 -0.2179  0.2724
  119OSM    H8F12567   3.971   1.852   7.364 -0.3413 -0.8050 -0.4642
  119OSM    H8G12568   3.803   1.900   7.407 -0.6910 -0.6795 -0.7633
  119OSM    C9F12569   3.957   2.064   7.356  0.5628  0.7626 -0.7088
  119OSM    H9F12570   4.050   2.079   7.300 -0.3519  3.5574 -1.6681
  119OSM   C10F12571   3.905   2.167   7.431 -0.4333  0.2394 -0.4714
  119OSM   H10F12572   3.960   2.262   7.434  1.6832 -0.8419 -2.0474
  119OSM   C11F12573   3.780   2.161   7.512  0.0724 -0.9744  0.0695
  119OSM   H11F12574   3.719   2.071   7.490  0.3761 -0.7782 -1.6773
  119OSM   H11G12575   3.708   2.241   7.486  1.4581  0.4728  0.4578
  119OSM   C12F12576   3.821   2.153   7.661 -0.5675 -0.9724  0.0531
  119OSM   H12F12577   3.729   2.160   7.723 -0.8047  0.4710 -0.4306
  119OSM   H12G12578   3.875   2.247   7.686 -2.0347 -0.2343  0.6056
  119OSM   C13F12579   3.886   2.021   7.704  0.0868  0.2894 -0.6146
  119OSM   H13F12580   3.986   2.021   7.655  1.0495 -0.0675  1.2360
  119OSM   H13G12581   3.830   1.931   7.670  0.8855 -0.6812  0.5151
  119OSM   C14F12582   3.921   2.012   7.854  0.2557 -0.2330  0.0341
  119OSM   H14F12583   3.827   2.027   7.912  1.1071 -0.6322  1.5941
  119OSM   H14G12584   4.000   2.088   7.874  0.6699  0.3779 -3.3430
  119OSM   C15F12585   3.987   1.881   7.893  0.2616  0.1005 -0.6765
  119OSM   H15F12586   4.089   1.875   7.848  0.2456  1.8790 -1.0161
  119OSM   H15G12587   3.920   1.800   7.857 -0.2649  0.7099 -1.1025
  119OSM   C16F12588   3.991   1.870   8.044  0.4783  0.9978  0.2978
  119OSM   H16F12589   3.923   1.790   8.078  0.4366  0.4151 -1.1002
  119OSM   H16G12590   3.960   1.969   8.085  1.1475  0.7770  1.3813
  119OSM   C17F12591   4.126   1.845   8.097 -0.1844  0.0970  0.3811
  119OSM   H17F12592   4.191   1.928   8.061 -1.9544  0.3255 -2.6063
  119OSM   H17G12593   4.171   1.750   8.062 -2.2012 -1.5937  2.1463
  119OSM   C18F12594   4.134   1.834   8.254  0.2844  0.9398  0.6387
  119OSM   H18F12595   4.048   1.769   8.280  1.0261 -0.2693  0.1390
  119OSM   H18G12596   4.113   1.935   8.297 -3.1926  0.8474 -0.5149
  119OSM   H18H12597   4.225   1.781   8.288  0.3587 -1.0278 -2.2622
  120OSM      N12598   6.190   5.268   6.150  0.4580 -0.4732  0.1162
  120OSM    C1512599   6.184   5.224   6.292 -0.4208  0.2401  0.1065
  120OSM   H15A12600   6.217   5.300   6.361 -2.8847  1.4477  0.0674
  120OSM   H15B12601   6.245   5.139   6.320  0.3171  0.7187 -0.0291
  120OSM   H15C12602   6.081   5.210   6.324  0.3923 -2.4725  1.9400
  120OSM    C1412603   6.329   5.271   6.108 -0.6143  0.0711  0.0414
  120OSM   H14A12604   6.389   5.336   6.170 -0.1664  0.4220 -0.7424
  120OSM   H14B12605   6.355   5.298   6.007 -1.0860 -0.0777 -0.1203
  120OSM   H14C12606   6.360   5.168   6.113  1.5491  0.7264  1.7481
  120OSM    C1312607   6.128   5.156   6.073  0.2506  1.1571 -0.4212
  120OSM   H13A12608   6.179   5.062   6.086 -0.5865  0.3995 -2.2988
  120OSM   H13B12609   6.139   5.181   5.968 -0.8274 -1.0522 -1.1228
  120OSM   H13C12610   6.024   5.138   6.092  0.6952 -0.1474  0.8927
  120OSM    C1212611   6.121   5.403   6.128  0.0097 -0.2378  0.0382
  120OSM   H12A12612   6.021   5.396   6.168 -0.9620 -2.5918 -2.4698
  120OSM   H12B12613   6.098   5.422   6.024 -1.5724 -0.9376  0.2238
  120OSM    C1112614   6.181   5.526   6.192 -0.2276 -0.0256  0.5146
  120OSM   H11A12615   6.142   5.616   6.141  0.0675 -0.8319 -1.2052
  120OSM   H11B12616   6.289   5.531   6.167 -0.8690  0.6114 -2.5199
  120OSM      P12617   6.021   5.571   6.393  0.0138 -0.0427 -0.0148
  120OSM    O1312618   6.015   5.719   6.367  0.3619  0.3162  0.1156
  120OSM    O1412619   5.905   5.490   6.347  0.0760  0.3535 -0.2257
  120OSM    O1112620   6.033   5.545   6.545  0.6517  0.2472 -0.3251
  120OSM    O1212621   6.161   5.519   6.339 -0.0745 -0.6520 -0.3998
  120OSM    C1S12622   6.114   5.440   6.597 -0.0051 -0.9702 -0.1563
  120OSM    H1S12623   6.216   5.472   6.566 -0.7176  0.6849 -0.9059
  120OSM    H1T12624   6.086   5.342   6.553 -0.9111  0.2839 -2.5186
  120OSM     NF12625   6.222   5.372   6.806  0.5102  0.1983 -0.6183
  120OSM    HNF12626   6.226   5.276   6.830  0.7350  0.1528 -0.8329
  120OSM    C2S12627   6.106   5.437   6.750  0.5940 -0.5692 -0.6716
  120OSM    H2S12628   6.093   5.540   6.789 -0.9359 -0.8893 -0.2430
  120OSM    C3S12629   5.973   5.372   6.804 -0.6970 -0.1872  0.2384
  120OSM    H3S12630   5.969   5.270   6.759  1.8224  1.3501 -4.0387
  120OSM     O312631   5.859   5.443   6.752 -0.0300  0.0644  0.1472
  120OSM    HO312632   5.901   5.487   6.678  4.0954 -2.5135  0.6146
  120OSM    C4S12633   5.972   5.365   6.951  0.6614  0.8227 -0.8375
  120OSM    H4S12634   5.991   5.261   6.984  2.5137  0.8907 -1.5714
  120OSM    C5S12635   5.948   5.456   7.048  0.0306 -0.4274 -0.1044
  120OSM    H5S12636   5.902   5.551   7.017 -1.4246 -0.2383  2.4054
  120OSM    C6S12637   5.955   5.434   7.193 -0.3156  0.3851 -0.4634
  120OSM    H6S12638   5.926   5.528   7.245 -0.1569 -0.6632  1.5933
  120OSM    H6T12639   6.061   5.425   7.226 -0.4725 -1.2955 -0.3317
  120OSM    C7S12640   5.863   5.323   7.255 -0.5962  0.0018 -0.0130
  120OSM    H7S12641   5.880   5.226   7.205  2.0687  1.5142 -2.3827
  120OSM    H7T12642   5.760   5.354   7.228 -0.8273  1.2185  1.9594
  120OSM    C8S12643   5.871   5.312   7.410 -0.7368 -0.1923 -0.0495
  120OSM    H8S12644   5.771   5.274   7.442  0.2813 -1.2615  2.0703
  120OSM    H8T12645   5.873   5.413   7.456  1.1435  0.0115 -0.4884
  120OSM    C9S12646   5.979   5.228   7.470 -0.0957  0.7934 -0.1112
  120OSM    H9S12647   6.075   5.282   7.454  1.3097 -0.5679  2.9387
  120OSM    H9T12648   5.980   5.132   7.413 -2.8570  2.3649 -3.1721
  120OSM   C10S12649   5.962   5.216   7.626 -0.8511  0.0377 -0.6496
  120OSM   H10S12650   5.866   5.167   7.653 -1.6322  2.7354  2.1376
  120OSM   H10T12651   5.965   5.311   7.684 -0.3371 -0.0593 -0.5084
  120OSM   C11S12652   6.066   5.127   7.701  0.2686  0.9734  1.0438
  120OSM   H11S12653   6.159   5.187   7.709  0.1703  1.0203  1.8690
  120OSM   H11T12654   6.092   5.037   7.641  1.6358  2.3929 -0.5891
  120OSM   C12S12655   6.019   5.083   7.843 -0.6473  0.8422  0.1510
  120OSM   H12S12656   5.913   5.048   7.843 -0.0461 -1.1947  1.9069
  120OSM   H12T12657   6.020   5.166   7.918  2.0250 -1.9280  3.5266
  120OSM   C13S12658   6.106   4.973   7.897 -0.3867  0.3380 -0.0002
  120OSM   H13S12659   6.212   4.982   7.866 -0.6595  0.1129 -1.0377
  120OSM   H13T12660   6.078   4.882   7.840  0.8534  0.4900 -0.9030
  120OSM   C14S12661   6.097   4.960   8.048 -0.3003  0.2680  0.2711
  120OSM   H14S12662   5.997   4.992   8.083  0.0690  1.0261  0.6660
  120OSM   H14T12663   6.159   5.037   8.099 -0.0699 -0.1299  0.5957
  120OSM   C15S12664   6.110   4.816   8.106 -0.2839 -0.5307  0.3999
  120OSM   H15S12665   6.180   4.749   8.051 -0.6560 -1.1259  0.6366
  120OSM   H15T12666   6.013   4.766   8.086 -0.2949  0.0669 -1.1375
  120OSM   C16S12667   6.145   4.820   8.250 -0.2776  0.2305  0.3624
  120OSM   H16S12668   6.148   4.715   8.286  0.4843 -0.9490 -2.7888
  120OSM   H16T12669   6.058   4.876   8.291 -0.2662  0.6639 -0.1959
  120OSM   C17S12670   6.282   4.889   8.289 -0.5737 -0.3849  0.4456
  120OSM   H17S12671   6.286   4.993   8.252  0.9518 -0.3447  0.6621
  120OSM   H17T12672   6.363   4.837   8.233 -0.0612 -0.6037  1.3700
  120OSM   C18S12673   6.309   4.886   8.438 -0.3146  0.6676  0.7053
  120OSM   H18S12674   6.219   4.911   8.499  0.2739 -1.2748  2.5086
  120OSM   H18T12675   6.383   4.961   8.473 -1.7183  0.9491  3.3452
  120OSM   H18U12676   6.347   4.787   8.470 -1.7532 -0.0280  0.3477
  120OSM    C1F12677   6.338   5.436   6.805  0.7457  0.5409  0.3213
  120OSM     OF12678   6.330   5.551   6.793 -0.6690 -0.5640  0.1174
  120OSM    C2F12679   6.464   5.355   6.829  0.2885  0.5208 -0.5529
  120OSM    H2F12680   6.536   5.378   6.748  0.6049  0.3592 -0.3191
  120OSM    H2G12681   6.436   5.248   6.825 -0.8750  0.8573 -2.4803
  120OSM    C3F12682   6.521   5.398   6.964  0.0179  0.6815 -0.2019
  120OSM    H3F12683   6.540   5.507   6.960 -1.6877  1.0205  0.4495
  120OSM    H3G12684   6.610   5.333   6.980 -1.2268 -0.5149  2.5160
  120OSM    C4F12685   6.437   5.377   7.080  0.5930  0.9171 -0.3957
  120OSM    H4F12686   6.415   5.268   7.089  1.7879  0.6087 -1.0050
  120OSM    H4G12687   6.341   5.432   7.073  0.0509 -0.0728 -1.0532
  120OSM    C5F12688   6.513   5.427   7.204 -0.1746 -0.9631 -0.5681
  120OSM    H5F12689   6.544   5.533   7.204  1.5117 -1.4243  0.2569
  120OSM    H5G12690   6.614   5.383   7.216  1.8353  3.3702  0.1225
  120OSM    C6F12691   6.436   5.395   7.332 -0.4505 -0.5744 -0.6225
  120OSM    H6F12692   6.415   5.286   7.327 -0.3458 -0.5931 -0.6504
  120OSM    H6G12693   6.340   5.451   7.344  0.0467 -0.0858  1.3783
  120OSM    C7F12694   6.514   5.424   7.462 -0.7039  0.5703 -0.0061
  120OSM    H7F12695   6.545   5.531   7.463  1.7207 -0.0781  1.0247
  120OSM    H7G12696   6.613   5.374   7.468 -0.7990  0.4134  0.2564
  120OSM    C8F12697   6.444   5.403   7.591  0.6459  0.5883  0.3094
  120OSM    H8F12698   6.419   5.296   7.601 -1.5021  1.0914  0.8725
  120OSM    H8G12699   6.352   5.465   7.584 -0.9161 -1.7039 -0.5207
  120OSM    C9F12700   6.523   5.460   7.706 -0.6177  0.1748 -0.0209
  120OSM    H9F12701   6.632   5.460   7.691 -0.6099 -1.0457 -0.0219
  120OSM   C10F12702   6.475   5.512   7.820  0.1713  0.7913 -0.7078
  120OSM   H10F12703   6.543   5.547   7.899 -0.5004  0.9142 -0.1802
  120OSM   C11F12704   6.334   5.508   7.855 -0.3139 -0.0643 -0.5202
  120OSM   H11F12705   6.278   5.440   7.788 -1.0616 -0.1548  0.1752
  120OSM   H11G12706   6.287   5.607   7.843 -0.7223 -0.1734  0.1099
  120OSM   C12F12707   6.319   5.471   8.005  0.3591  0.0997  0.1793
  120OSM   H12F12708   6.216   5.504   8.031  1.2436  0.3051  3.9347
  120OSM   H12G12709   6.380   5.536   8.071  1.0941  0.5005 -0.8712
  120OSM   C13F12710   6.336   5.321   8.042  1.1373 -0.1673  0.0470
  120OSM   H13F12711   6.425   5.276   7.993  1.7507  0.0594  0.9471
  120OSM   H13G12712   6.247   5.273   7.996  0.7635  1.8114 -1.4321
  120OSM   C14F12713   6.345   5.283   8.191  0.9336  0.0092 -0.3547
  120OSM   H14F12714   6.294   5.187   8.214  0.1097  0.9387  2.0312
  120OSM   H14G12715   6.290   5.364   8.244  0.1406 -0.5445 -0.3119
  120OSM   C15F12716   6.487   5.274   8.248  0.3069 -0.4999  0.2415
  120OSM   H15F12717   6.541   5.366   8.217  1.2074 -1.4525 -1.1353
  120OSM   H15G12718   6.543   5.182   8.221  0.1242 -1.5254  3.0348
  120OSM   C16F12719   6.491   5.265   8.402  0.1103  0.1800 -0.0943
  120OSM   H16F12720   6.457   5.164   8.433 -1.7412  0.9296  0.4675
  120OSM   H16G12721   6.417   5.333   8.449 -0.2216 -1.5710  2.0453
  120OSM   C17F12722   6.636   5.280   8.442 -0.0657  0.3104 -0.6315
  120OSM   H17F12723   6.625   5.334   8.539  2.8884 -0.4013  0.2222
  120OSM   H17G12724   6.686   5.351   8.373 -0.2847  4.0646  2.7052
  120OSM   C18F12725   6.713   5.152   8.472 -0.1882  0.3840 -0.8924
  120OSM   H18F12726   6.723   5.083   8.385  2.3775 -0.6268  0.1041
  120OSM   H18G12727   6.664   5.091   8.551  0.1966 -0.7534 -1.4979
  120OSM   H18H12728   6.814   5.179   8.508 -0.6947 -0.5880  1.4387
  121OSM      N12729   2.920   6.692   5.914 -0.3154 -0.1296  0.0466
  121OSM    C1512730   3.057   6.709   5.850  1.1479 -0.5713 -0.3220
  121OSM   H15A12731   3.043   6.731   5.745  0.4845  0.3656 -0.0494
  121OSM   H15B12732   3.121   6.625   5.875  0.4315 -1.1066 -0.2637
  121OSM   H15C12733   3.106   6.798   5.886  2.0259 -1.0887 -0.1892
  121OSM    C1412734   2.824   6.639   5.810 -0.3583 -0.0706  0.0560
  121OSM   H14A12735   2.853   6.536   5.803 -2.7084 -1.0068  2.3658
  121OSM   H14B12736   2.827   6.701   5.722  0.9097  0.3634  0.3813
  121OSM   H14C12737   2.723   6.634   5.848 -0.1678  1.9267  0.9707
  121OSM    C1312738   2.927   6.584   6.031  0.1223  0.4659  0.1421
  121OSM   H13A12739   2.990   6.627   6.107  0.0051 -1.1048  1.1861
  121OSM   H13B12740   2.971   6.491   5.999  0.9977  0.8498  0.1917
  121OSM   H13C12741   2.839   6.562   6.090  0.4333 -0.6784  0.2006
  121OSM    C1212742   2.868   6.826   5.958  0.8087 -0.5706  0.1220
  121OSM   H12A12743   2.775   6.804   6.008 -0.4791  2.2100 -0.8693
  121OSM   H12B12744   2.856   6.890   5.872 -3.9941  1.1737  1.7747
  121OSM    C1112745   2.952   6.896   6.063 -1.4771 -0.2938 -0.0886
  121OSM   H11A12746   2.980   6.828   6.147 -0.4345 -0.9437 -0.9367
  121OSM   H11B12747   2.897   6.985   6.101  0.0785  1.0698 -0.8980
  121OSM      P12748   3.195   6.994   6.060 -0.4805 -0.0822  0.3129
  121OSM    O1312749   3.287   6.890   6.033  0.1180  0.2705 -0.1034
  121OSM    O1412750   3.239   7.124   6.017  0.2000 -0.3046 -0.0508
  121OSM    O1112751   3.162   7.001   6.209 -0.3620 -0.0473 -0.4914
  121OSM    O1212752   3.060   6.957   5.992  0.1249  0.4425  0.0924
  121OSM    C1S12753   3.128   7.115   6.288 -0.3956  0.4951  0.6104
  121OSM    H1S12754   3.043   7.165   6.237  0.1279 -0.5307 -1.4184
  121OSM    H1T12755   3.216   7.183   6.294  0.8411 -0.8998 -0.4779
  121OSM     NF12756   3.047   7.189   6.522  0.2303  0.1703  0.6672
  121OSM    HNF12757   3.113   7.239   6.579 -0.0992  1.3296  0.0671
  121OSM    C2S12758   3.102   7.077   6.437 -0.3136  0.0155 -0.3669
  121OSM    H2S12759   3.029   6.993   6.438  1.5291 -1.6721  0.2357
  121OSM    C3S12760   3.227   7.010   6.512 -0.5283  0.5865 -0.2124
  121OSM    H3S12761   3.306   7.087   6.525 -0.3787  0.1366  1.9437
  121OSM     O312762   3.288   6.901   6.432 -0.1837 -0.1463  0.2128
  121OSM    HO312763   3.265   6.928   6.343 -3.5645 -0.6177  0.8186
  121OSM    C4S12764   3.196   6.972   6.659 -0.1404 -0.2401 -0.1691
  121OSM    H4S12765   3.240   7.039   6.735  1.1778  0.3508 -1.3998
  121OSM    C5S12766   3.140   6.860   6.703  0.1041  0.4728 -0.8610
  121OSM    H5S12767   3.116   6.770   6.644  1.5594 -0.8800  0.5170
  121OSM    C6S12768   3.140   6.834   6.856 -0.0432 -0.3772  0.4368
  121OSM    H6S12769   3.209   6.751   6.879  0.6154  0.0250 -0.0171
  121OSM    H6T12770   3.039   6.801   6.888  0.7278 -1.8139  1.4690
  121OSM    C7S12771   3.178   6.949   6.956 -0.0975 -0.4880 -0.0883
  121OSM    H7S12772   3.095   7.023   6.949  0.6964  0.2894 -2.2441
  121OSM    H7T12773   3.273   7.001   6.933 -0.9303  1.0617 -0.1979
  121OSM    C8S12774   3.176   6.907   7.111 -0.7097 -0.5332  0.1611
  121OSM    H8S12775   3.262   6.841   7.136 -0.3556 -0.1576 -0.0447
  121OSM    H8T12776   3.082   6.850   7.097  0.1011 -1.3577 -2.4386
  121OSM    C9S12777   3.151   7.018   7.211  0.0911  0.2068  0.0309
  121OSM    H9S12778   3.056   7.069   7.183  1.3030  2.3445 -0.3463
  121OSM    H9T12779   3.226   7.100   7.218 -0.6137  0.7990  0.8012
  121OSM   C10S12780   3.121   6.967   7.352 -0.4535  0.0278  0.7478
  121OSM   H10S12781   3.032   6.901   7.360 -0.7399  0.5347  2.0853
  121OSM   H10T12782   3.105   7.055   7.418 -0.7139  0.2431  0.4027
  121OSM   C11S12783   3.253   6.907   7.405  0.1076 -0.2462 -0.0739
  121OSM   H11S12784   3.324   6.991   7.389 -0.3631  0.5174  1.6065
  121OSM   H11T12785   3.279   6.818   7.344 -0.4182 -1.2121  1.0781
  121OSM   C12S12786   3.252   6.872   7.554 -0.0543 -0.5469  0.7514
  121OSM   H12S12787   3.171   6.808   7.596  0.4042 -1.3514  0.4213
  121OSM   H12T12788   3.230   6.968   7.605 -0.6237 -0.9936  1.3739
  121OSM   C13S12789   3.391   6.848   7.619  0.0985 -0.2918 -0.2438
  121OSM   H13S12790   3.467   6.925   7.595 -0.3767  0.0216 -0.7743
  121OSM   H13T12791   3.422   6.746   7.589 -2.1411 -1.1926  0.2927
  121OSM   C14S12792   3.360   6.826   7.771  0.6102 -0.2980  0.2966
  121OSM   H14S12793   3.294   6.737   7.780 -0.1798 -0.0388 -2.1117
  121OSM   H14T12794   3.305   6.912   7.815  0.3078 -0.6675  0.6466
  121OSM   C15S12795   3.482   6.811   7.863 -0.0476  0.5673 -0.3772
  121OSM   H15S12796   3.553   6.889   7.829  1.4644 -0.4350  0.3577
  121OSM   H15T12797   3.521   6.710   7.837  1.2787  1.3671 -1.6112
  121OSM   C16S12798   3.476   6.824   8.014 -0.0414 -0.1342  0.6150
  121OSM   H16S12799   3.406   6.750   8.056  1.1496 -1.7868 -0.1714
  121OSM   H16T12800   3.445   6.927   8.039  0.6787  0.3280 -0.3085
  121OSM   C17S12801   3.612   6.809   8.080  0.2197  0.0421 -0.0297
  121OSM   H17S12802   3.619   6.865   8.176  4.2553  0.4253 -0.3605
  121OSM   H17T12803   3.685   6.854   8.010 -1.0279  0.7679 -0.9002
  121OSM   C18S12804   3.644   6.664   8.109  0.3896  0.5636  0.4238
  121OSM   H18S12805   3.753   6.640   8.106 -0.3045 -2.9543 -1.9141
  121OSM   H18T12806   3.616   6.599   8.024  1.5973 -0.5103  0.8134
  121OSM   H18U12807   3.597   6.622   8.200  0.6904  0.5416  0.5727
  121OSM    C1F12808   2.932   7.250   6.505 -0.0952  0.0147  0.7213
  121OSM     OF12809   2.863   7.220   6.410  0.2275  0.0248 -0.1727
  121OSM    C2F12810   2.898   7.364   6.600 -1.0650 -0.4619 -0.2780
  121OSM    H2F12811   2.795   7.403   6.587 -0.7718  0.8214  1.0925
  121OSM    H2G12812   2.971   7.445   6.580 -0.1965 -0.8214  1.3151
  121OSM    C3F12813   2.912   7.321   6.741 -0.7447  0.0160 -0.7581
  121OSM    H3F12814   3.016   7.287   6.761 -0.2843  1.4023 -0.6654
  121OSM    H3G12815   2.845   7.236   6.765  0.8121 -0.6775  1.3956
  121OSM    C4F12816   2.866   7.435   6.833 -0.0610 -0.1366  1.0149
  121OSM    H4F12817   2.756   7.447   6.833  0.0454  0.9348 -0.0920
  121OSM    H4G12818   2.917   7.526   6.795 -0.9650 -0.2130 -0.4671
  121OSM    C5F12819   2.924   7.424   6.968 -0.3441  0.5076  0.0270
  121OSM    H5F12820   3.034   7.414   6.954 -0.3304  1.7920 -0.9149
  121OSM    H5G12821   2.886   7.328   7.010  0.8519 -0.7183 -1.5039
  121OSM    C6F12822   2.880   7.537   7.058  0.2771 -0.6718  0.3981
  121OSM    H6F12823   2.772   7.539   7.084  0.0391  0.7957 -0.5593
  121OSM    H6G12824   2.901   7.636   7.013 -1.6290  0.8185  2.6079
  121OSM    C7F12825   2.943   7.530   7.198 -0.5088  0.1218 -0.6633
  121OSM    H7F12826   3.054   7.532   7.194 -0.5462  0.5185 -3.8690
  121OSM    H7G12827   2.907   7.437   7.247 -3.2587  1.4612  0.0677
  121OSM    C8F12828   2.913   7.648   7.292 -0.8441  0.2019 -0.2149
  121OSM    H8F12829   2.954   7.629   7.393 -0.0808  0.5103 -0.4604
  121OSM    H8G12830   2.804   7.640   7.314 -1.2686  0.8341 -1.9203
  121OSM    C9F12831   2.945   7.792   7.258 -0.8023 -0.0424 -0.0533
  121OSM    H9F12832   2.890   7.835   7.174 -3.5598 -1.2204  1.0237
  121OSM   C10F12833   3.029   7.870   7.327  1.0188  0.6803 -0.2218
  121OSM   H10F12834   3.044   7.968   7.278 -0.9670  1.4186  0.5228
  121OSM   C11F12835   3.118   7.844   7.443 -0.5205 -0.4044 -0.9312
  121OSM   H11F12836   3.209   7.908   7.441  1.4686 -2.9241  1.3925
  121OSM   H11G12837   3.153   7.739   7.430  0.3264 -0.0278 -1.8401
  121OSM   C12F12838   3.048   7.844   7.582 -0.2998  0.1126  0.0483
  121OSM   H12F12839   2.937   7.830   7.582 -0.2106 -0.9414  2.3334
  121OSM   H12G12840   3.063   7.947   7.621  0.7679  1.3840 -3.3736
  121OSM   C13F12841   3.124   7.767   7.687 -0.8650  0.0358 -0.2989
  121OSM   H13F12842   3.220   7.823   7.688 -0.1220 -1.2243  0.2834
  121OSM   H13G12843   3.137   7.660   7.663 -0.3812  0.1060 -0.3698
  121OSM   C14F12844   3.059   7.796   7.824  0.7764 -0.0470  0.4209
  121OSM   H14F12845   2.993   7.710   7.849 -0.4524  0.4712 -0.8839
  121OSM   H14G12846   2.998   7.888   7.828 -0.7138 -0.9934  0.4450
  121OSM   C15F12847   3.164   7.824   7.925  0.5134  0.5743 -0.2024
  121OSM   H15F12848   3.231   7.910   7.900  1.9314  0.2101  2.0262
  121OSM   H15G12849   3.231   7.736   7.920 -1.2126 -0.7270 -2.2248
  121OSM   C16F12850   3.099   7.862   8.067 -0.5167 -0.7490  0.7158
  121OSM   H16F12851   3.016   7.932   8.044  1.0439  1.1096  0.5400
  121OSM   H16G12852   3.170   7.912   8.135  0.3568 -3.2479  1.7741
  121OSM   C17F12853   3.050   7.742   8.152 -0.1523 -0.5619 -0.2614
  121OSM   H17F12854   3.146   7.697   8.184  0.3075  2.0714  2.5230
  121OSM   H17G12855   2.994   7.679   8.079 -1.0811 -0.8285  0.6667
  121OSM   C18F12856   2.970   7.775   8.277 -0.1545  0.1895 -0.1162
  121OSM   H18F12857   2.945   7.684   8.335 -1.0538 -1.6107 -3.0723
  121OSM   H18G12858   2.878   7.826   8.238  0.7422  2.6402  0.7644
  121OSM   H18H12859   3.020   7.858   8.332 -1.6599 -0.2348  2.0278
  122OSM      N12860   3.225   2.113   5.719 -0.1897  1.1148  0.2539
  122OSM    C1512861   3.236   2.259   5.699  0.0125  0.4541 -0.3382
  122OSM   H15A12862   3.164   2.299   5.769 -0.8799 -2.8257  0.7784
  122OSM   H15B12863   3.221   2.280   5.594  0.1104 -0.3661 -0.5209
  122OSM   H15C12864   3.336   2.293   5.720  0.6436  0.4123 -2.8590
  122OSM    C1412865   3.107   2.052   5.648  0.2572  0.0277 -0.3371
  122OSM   H14A12866   3.019   2.105   5.679 -0.5009 -0.4135 -1.6533
  122OSM   H14B12867   3.082   1.953   5.681 -0.3371 -0.2444 -1.5677
  122OSM   H14C12868   3.125   2.055   5.542  0.1307 -1.6811 -0.4281
  122OSM    C1312869   3.353   2.046   5.670 -0.4658 -0.5559 -0.1113
  122OSM   H13A12870   3.349   1.938   5.673 -0.6456 -0.5263  0.8217
  122OSM   H13B12871   3.438   2.079   5.728 -1.0818  2.2653 -0.6930
  122OSM   H13C12872   3.372   2.066   5.565  1.7354 -2.0208 -0.0870
  122OSM    C1212873   3.210   2.083   5.865 -0.3168 -0.2349 -0.3843
  122OSM   H12A12874   3.290   2.135   5.914  0.3771 -0.6673 -1.0423
  122OSM   H12B12875   3.232   1.980   5.887  0.8738  0.0880 -0.0042
  122OSM    C1112876   3.086   2.123   5.939  1.3633 -0.2768 -0.0697
  122OSM   H11A12877   3.095   2.075   6.039 -0.9482  1.5291  1.1080
  122OSM   H11B12878   2.990   2.087   5.897  2.1253 -2.3842 -0.0957
  122OSM      P12879   2.942   2.317   6.024 -0.0516 -0.0425  0.1724
  122OSM    O1312880   2.962   2.458   6.059 -0.2760 -0.3348 -0.3235
  122OSM    O1412881   2.834   2.293   5.924  0.0521  0.2568  0.0059
  122OSM    O1112882   2.912   2.234   6.156 -0.1985 -0.4474  0.6992
  122OSM    O1212883   3.079   2.267   5.967 -0.8295 -0.0267 -1.2903
  122OSM    C1S12884   3.013   2.238   6.259 -0.2511 -0.3476 -0.3307
  122OSM    H1S12885   3.009   2.333   6.316  1.7713 -1.5516  2.0134
  122OSM    H1T12886   3.112   2.218   6.213 -1.1295 -1.3714 -1.8665
  122OSM     NF12887   3.122   2.144   6.464 -0.7110  0.1194 -0.1505
  122OSM    HNF12888   3.192   2.072   6.459 -1.3186 -0.5990  1.2072
  122OSM    C2S12889   3.007   2.129   6.369  0.8201  0.1858 -0.3787
  122OSM    H2S12890   2.910   2.140   6.422  2.6481 -0.9621  3.6213
  122OSM    C3S12891   3.003   1.985   6.314 -0.6762 -0.2687  0.3207
  122OSM    H3S12892   3.107   1.965   6.281  0.0466  2.6027  0.6294
  122OSM     O312893   2.914   1.964   6.202  0.2119 -0.4595  0.3066
  122OSM    HO312894   2.893   2.053   6.175  1.7661 -0.5339 -1.3200
  122OSM    C4S12895   2.968   1.885   6.424  0.5704 -0.0917  1.2088
  122OSM    H4S12896   2.865   1.899   6.461 -0.6301 -0.9010 -1.5307
  122OSM    C5S12897   3.034   1.772   6.443  0.4660 -0.2478  0.8513
  122OSM    H5S12898   3.134   1.752   6.400  0.3209 -0.9236  0.8051
  122OSM    C6S12899   3.003   1.679   6.556 -0.0909  0.2944 -0.2501
  122OSM    H6S12900   3.097   1.621   6.567 -1.2517 -2.1169 -2.0265
  122OSM    H6T12901   2.923   1.607   6.528 -1.3400  2.2629 -2.0433
  122OSM    C7S12902   2.971   1.751   6.684  0.1175 -0.2452 -0.1730
  122OSM    H7S12903   2.928   1.676   6.754 -0.1435  1.3303  1.4378
  122OSM    H7T12904   2.893   1.829   6.672  0.1241 -0.4468 -1.6142
  122OSM    C8S12905   3.092   1.823   6.744 -0.7630  1.0224 -0.5682
  122OSM    H8S12906   3.153   1.885   6.675  0.9542 -1.0886 -1.0878
  122OSM    H8T12907   3.160   1.748   6.789 -0.8563  0.6763 -0.9967
  122OSM    C9S12908   3.043   1.917   6.854 -0.5291 -0.2558 -0.8918
  122OSM    H9S12909   2.966   1.867   6.917 -1.7818 -0.3009 -2.4227
  122OSM    H9T12910   2.994   2.005   6.809 -1.8158 -0.1140  0.6943
  122OSM   C10S12911   3.150   1.952   6.956 -0.3931  0.3097  0.1251
  122OSM   H10S12912   3.237   2.009   6.916  1.0239 -0.9401  1.2842
  122OSM   H10T12913   3.180   1.858   7.007 -0.1955 -0.5197 -1.4773
  122OSM   C11S12914   3.089   2.045   7.055  0.5192 -0.8708 -0.1486
  122OSM   H11S12915   2.992   2.000   7.084  0.5605 -1.2357 -0.5652
  122OSM   H11T12916   3.063   2.136   6.996  0.3666 -0.0058  1.1945
  122OSM   C12S12917   3.171   2.089   7.177 -0.3308 -0.3163  0.4185
  122OSM   H12S12918   3.104   2.142   7.248  1.5976  1.7449  0.8053
  122OSM   H12T12919   3.236   2.167   7.132 -2.0466  1.7774  1.3606
  122OSM   C13S12920   3.252   1.982   7.233 -0.4107  0.2766 -0.6471
  122OSM   H13S12921   3.339   1.947   7.174  0.4170  0.6125  0.3497
  122OSM   H13T12922   3.183   1.896   7.247 -0.3174  0.0276 -1.6565
  122OSM   C14S12923   3.310   2.035   7.369  0.2485  0.4568  0.2932
  122OSM   H14S12924   3.235   2.086   7.432  0.2911  0.9524 -0.0474
  122OSM   H14T12925   3.388   2.114   7.370 -1.1815  1.9866 -1.7437
  122OSM   C15S12926   3.362   1.913   7.450 -0.9517  0.6563 -0.4524
  122OSM   H15S12927   3.445   1.868   7.391 -0.4781  0.3529  0.4269
  122OSM   H15T12928   3.282   1.841   7.478  1.2905 -1.7822  0.0066
  122OSM   C16S12929   3.434   1.967   7.574  0.5534  0.4567  0.5236
  122OSM   H16S12930   3.362   2.019   7.641  0.2138  1.2638 -0.4592
  122OSM   H16T12931   3.509   2.040   7.537  0.6235 -0.4114 -1.1521
  122OSM   C17S12932   3.502   1.856   7.653 -0.0701 -0.2754  0.3296
  122OSM   H17S12933   3.595   1.815   7.608 -0.3998 -1.9054  1.0693
  122OSM   H17T12934   3.443   1.762   7.653  0.2536 -0.4795  0.8162
  122OSM   C18S12935   3.540   1.899   7.792  0.4902  0.5853  0.2139
  122OSM   H18S12936   3.449   1.916   7.853 -1.6257 -0.7249 -2.3604
  122OSM   H18T12937   3.609   1.986   7.793  0.4577  0.6108  0.2527
  122OSM   H18U12938   3.593   1.814   7.838 -0.9598 -0.0494  0.7896
  122OSM    C1F12939   3.133   2.245   6.554  0.4177  0.6312  0.0636
  122OSM     OF12940   3.038   2.317   6.571 -0.5742  0.0272 -0.3514
  122OSM    C2F12941   3.262   2.253   6.642  0.0937 -0.2509  0.2980
  122OSM    H2F12942   3.346   2.304   6.590 -0.1365  0.5414  0.7020
  122OSM    H2G12943   3.282   2.149   6.677 -0.5482  0.3206  2.5156
  122OSM    C3F12944   3.224   2.331   6.768 -0.0074 -0.0764 -0.5600
  122OSM    H3F12945   3.151   2.272   6.827 -0.5455 -0.9471 -2.0393
  122OSM    H3G12946   3.177   2.421   6.721 -0.8964 -0.1086  0.2295
  122OSM    C4F12947   3.340   2.380   6.855 -0.1978  0.0346 -0.2837
  122OSM    H4F12948   3.417   2.414   6.782 -0.5346  0.5767 -0.3969
  122OSM    H4G12949   3.385   2.301   6.919 -1.3714  0.8542  1.6560
  122OSM    C5F12950   3.308   2.501   6.942  0.3479  0.0313 -0.7071
  122OSM    H5F12951   3.291   2.585   6.871 -1.9608 -1.2159 -1.7589
  122OSM    H5G12952   3.395   2.521   7.007 -0.0943  2.6438 -0.8205
  122OSM    C6F12953   3.183   2.480   7.030 -0.2317  0.0407 -0.5472
  122OSM    H6F12954   3.203   2.383   7.081  2.6798  0.3273 -0.9870
  122OSM    H6G12955   3.098   2.478   6.959 -0.2512  1.4159 -0.5770
  122OSM    C7F12956   3.160   2.598   7.126 -0.9930 -1.0441  0.4133
  122OSM    H7F12957   3.113   2.688   7.083  0.9097  0.3162  1.0677
  122OSM    H7G12958   3.261   2.627   7.162  0.5911 -4.8351 -0.4834
  122OSM    C8F12959   3.081   2.562   7.252  0.0399 -0.1829  0.0602
  122OSM    H8F12960   3.052   2.649   7.314  0.2944  0.1286 -0.2555
  122OSM    H8G12961   3.154   2.493   7.299  2.0639  0.4909 -1.8869
  122OSM    C9F12962   2.952   2.494   7.214  0.0405 -0.4924 -0.0720
  122OSM    H9F12963   2.930   2.523   7.111  1.0993  2.7912  0.5242
  122OSM   C10F12964   2.874   2.416   7.293  0.6920  0.2171  0.2178
  122OSM   H10F12965   2.787   2.371   7.241  2.1459 -0.2779 -1.9167
  122OSM   C11F12966   2.887   2.377   7.438 -0.1026  0.2663  0.1512
  122OSM   H11F12967   2.927   2.460   7.501  1.3952 -1.3419  1.4514
  122OSM   H11G12968   2.950   2.287   7.458  0.4871  0.9897  1.7619
  122OSM   C12F12969   2.748   2.337   7.501 -0.4898  0.2104  0.4960
  122OSM   H12F12970   2.696   2.264   7.435  3.6879 -1.4795 -1.2902
  122OSM   H12G12971   2.676   2.420   7.515  0.5444  1.4103 -1.0248
  122OSM   C13F12972   2.765   2.280   7.650 -0.3659 -0.1201 -0.2756
  122OSM   H13F12973   2.840   2.199   7.638  0.1526  0.1007  1.3349
  122OSM   H13G12974   2.668   2.246   7.692 -0.4327  3.3499  2.8842
  122OSM   C14F12975   2.827   2.379   7.749  0.8958  0.1316  1.1787
  122OSM   H14F12976   2.936   2.386   7.727  0.3288  4.1122 -1.5165
  122OSM   H14G12977   2.817   2.344   7.854  0.7182 -1.0455  0.7854
  122OSM   C15F12978   2.762   2.519   7.743 -0.4158 -0.5815 -0.0571
  122OSM   H15F12979   2.653   2.516   7.765  0.1151  0.5365  3.2372
  122OSM   H15G12980   2.763   2.560   7.640  1.8341 -0.1970  0.0723
  122OSM   C16F12981   2.826   2.621   7.846  0.4548  0.6162  0.5984
  122OSM   H16F12982   2.818   2.581   7.949 -1.3592 -1.3349 -0.2288
  122OSM   H16G12983   2.766   2.715   7.835 -1.4502 -0.8538 -4.6688
  122OSM   C17F12984   2.972   2.655   7.818  0.2726  0.1032  0.7957
  122OSM   H17F12985   3.034   2.562   7.819  0.7796  0.4280  0.1559
  122OSM   H17G12986   3.011   2.721   7.898  3.1749  0.2897 -0.6601
  122OSM   C18F12987   2.989   2.733   7.685 -0.0591  0.2424 -0.2550
  122OSM   H18F12988   2.953   2.836   7.702 -0.2288  0.0008  0.9232
  122OSM   H18G12989   2.932   2.685   7.603 -0.5451 -2.1522  1.3783
  122OSM   H18H12990   3.098   2.718   7.670  0.3858 -0.0944  2.6958
  123OSM      N12991   4.700   4.327   6.333 -0.1802 -0.3316 -0.2247
  123OSM    C1512992   4.591   4.228   6.327 -0.2323  0.0892 -0.8235
  123OSM   H15A12993   4.506   4.260   6.385  0.0623  0.1795 -0.4420
  123OSM   H15B12994   4.621   4.132   6.365 -0.8806 -0.7717 -2.4110
  123OSM   H15C12995   4.560   4.213   6.225  0.1952 -0.5097 -0.8703
  123OSM    C1412996   4.819   4.263   6.267  0.3455  0.3835 -0.2723
  123OSM   H14A12997   4.896   4.335   6.245  0.5831 -0.4625 -2.3694
  123OSM   H14B12998   4.791   4.219   6.173 -1.7367 -0.5109  0.6900
  123OSM   H14C12999   4.876   4.199   6.332  2.1306  1.7546 -0.3960
  123OSM    C1313000   4.658   4.445   6.256  0.8767 -0.6459  0.9888
  123OSM   H13A13001   4.729   4.521   6.285  1.2866 -0.8183  0.4615
  123OSM   H13B13002   4.562   4.486   6.285 -0.3527 -3.2426  0.9092
  123OSM   H13C13003   4.664   4.416   6.152  0.4001 -0.3351  0.8704
  123OSM    C1213004   4.730   4.364   6.477 -0.0928 -0.2938  0.0920
  123OSM   H12A13005   4.744   4.269   6.528  0.1551  0.3751  1.3041
  123OSM   H12B13006   4.644   4.421   6.509 -0.5056 -0.1733 -1.1779
  123OSM    C1113007   4.846   4.454   6.501 -0.4989 -0.2039  0.2316
  123OSM   H11A13008   4.936   4.440   6.438 -1.9527 -0.7048 -1.8462
  123OSM   H11B13009   4.884   4.447   6.605 -0.6207  0.3529  0.3167
  123OSM      P13010   4.889   4.708   6.454 -0.1156 -0.4430  0.1741
  123OSM    O1313011   4.957   4.684   6.327 -0.1642 -0.0139  0.3313
  123OSM    O1413012   4.811   4.836   6.462 -0.2321  0.5703 -0.7091
  123OSM    O1113013   4.980   4.709   6.580 -0.8122 -0.6870 -0.4515
  123OSM    O1213014   4.799   4.586   6.478 -0.1555  0.4373 -0.4545
  123OSM    C1S13015   4.930   4.709   6.714 -0.2774 -0.2547  0.7350
  123OSM    H1S13016   4.941   4.607   6.757 -0.5346  0.1290  1.7427
  123OSM    H1T13017   4.819   4.709   6.713 -0.3330  0.9817 -1.8336
  123OSM     NF13018   4.925   4.792   6.943 -1.3405 -0.5188  0.0828
  123OSM    HNF13019   4.834   4.832   6.954 -0.9733  0.1723  0.6739
  123OSM    C2S13020   4.993   4.815   6.817 -0.2206  0.2634  0.8542
  123OSM    H2S13021   5.103   4.802   6.815 -0.1924  0.5202  0.4655
  123OSM    C3S13022   4.990   4.959   6.760  0.4407  0.3958 -0.5282
  123OSM    H3S13023   4.889   4.998   6.736  0.1156 -0.7271 -1.0316
  123OSM     O313024   5.041   4.973   6.625  0.5660  0.0021 -0.0953
  123OSM    HO313025   5.042   4.884   6.590  0.6051  0.1998 -0.6080
  123OSM    C4S13026   5.058   5.051   6.854 -0.4922 -0.0537  0.0592
  123OSM    H4S13027   4.990   5.071   6.939  1.0562 -2.6019  2.0537
  123OSM    C5S13028   5.195   5.090   6.842  0.8154 -0.1408  0.4982
  123OSM    H5S13029   5.253   5.057   6.755 -0.4232  0.9454 -0.7924
  123OSM    C6S13030   5.261   5.182   6.935  0.2983  0.1433 -0.3093
  123OSM    H6S13031   5.245   5.284   6.895 -0.5687 -0.3926 -1.4075
  123OSM    H6T13032   5.371   5.166   6.937  0.5683  1.9499  0.7499
  123OSM    C7S13033   5.228   5.192   7.086  0.3599  0.2798 -0.0231
  123OSM    H7S13034   5.130   5.244   7.093  0.2940  0.0656  0.7459
  123OSM    H7T13035   5.299   5.255   7.143 -1.4248  1.0697  1.4319
  123OSM    C8S13036   5.225   5.057   7.153 -0.7532  0.1951 -0.1859
  123OSM    H8S13037   5.316   5.012   7.108 -1.5397 -0.6506 -0.9658
  123OSM    H8T13038   5.137   4.996   7.127 -2.3669  3.6050 -3.7089
  123OSM    C9S13039   5.228   5.078   7.303 -0.2768  0.1255  0.2807
  123OSM    H9S13040   5.155   5.157   7.330 -0.0263  0.3986  0.1644
  123OSM    H9T13041   5.324   5.126   7.331  0.1787  0.3860 -1.5803
  123OSM   C10S13042   5.184   4.951   7.389 -0.6824 -0.5056 -0.4893
  123OSM   H10S13043   5.269   4.881   7.376  0.3335  0.5970 -0.0005
  123OSM   H10T13044   5.096   4.916   7.331 -0.4618 -0.8141 -0.6400
  123OSM   C11S13045   5.175   5.006   7.527 -0.0985  0.5288  0.1104
  123OSM   H11S13046   5.082   5.065   7.534 -0.6879 -0.1700 -1.3626
  123OSM   H11T13047   5.256   5.080   7.547  0.0333  0.1010  1.2213
  123OSM   C12S13048   5.169   4.904   7.637  0.0288  0.8029  0.4626
  123OSM   H12S13049   5.250   4.827   7.635 -1.3269 -0.6807  0.5316
  123OSM   H12T13050   5.082   4.837   7.624  2.4990 -2.3358 -1.4456
  123OSM   C13S13051   5.164   4.970   7.775  0.0449  0.8479  0.0849
  123OSM   H13S13052   5.076   5.037   7.790 -0.1841  0.3890  0.8698
  123OSM   H13T13053   5.248   5.038   7.802 -0.2731  0.7449  1.4203
  123OSM   C14S13054   5.161   4.873   7.892 -0.1027 -0.5561  0.1745
  123OSM   H14S13055   5.258   4.820   7.897 -0.2772 -0.9574 -0.6342
  123OSM   H14T13056   5.078   4.799   7.883 -0.3390 -0.4310  1.1810
  123OSM   C15S13057   5.149   4.931   8.032 -0.5247 -0.4188 -0.9513
  123OSM   H15S13058   5.060   4.997   8.031 -0.4870 -0.2202  2.0419
  123OSM   H15T13059   5.240   4.989   8.057  0.3272 -1.8115 -0.7064
  123OSM   C16S13060   5.148   4.827   8.147 -1.0027 -0.4236  0.4332
  123OSM   H16S13061   5.251   4.790   8.160 -0.7791  0.3650  1.0187
  123OSM   H16T13062   5.084   4.738   8.126 -2.5891  0.5429  0.9603
  123OSM   C17S13063   5.081   4.876   8.276  0.4928 -1.0042 -0.3142
  123OSM   H17S13064   4.973   4.875   8.253  0.2933  1.3154  0.1995
  123OSM   H17T13065   5.110   4.983   8.292 -0.5254 -0.3810 -2.3198
  123OSM   C18S13066   5.105   4.790   8.397  0.6510  0.4695 -0.0193
  123OSM   H18S13067   5.042   4.700   8.386 -0.5369  1.3414 -0.6602
  123OSM   H18T13068   5.084   4.847   8.490  2.1932 -1.7027  1.7713
  123OSM   H18U13069   5.209   4.752   8.404  1.0720  1.8278  2.1750
  123OSM    C1F13070   4.968   4.708   7.038 -0.2538 -0.3108 -0.0793
  123OSM     OF13071   5.055   4.622   7.014 -0.3142 -0.4135  0.1583
  123OSM    C2F13072   4.906   4.728   7.171  0.2898 -0.5530  0.1801
  123OSM    H2F13073   4.796   4.713   7.160 -0.1198  0.8628  1.9384
  123OSM    H2G13074   4.913   4.833   7.205  2.4860 -0.3388 -0.7663
  123OSM    C3F13075   4.964   4.630   7.274 -0.1485 -0.1077 -0.2938
  123OSM    H3F13076   5.075   4.633   7.276 -0.1265 -1.0010  0.5641
  123OSM    H3G13077   4.933   4.529   7.239  0.9691 -0.6502  0.2473
  123OSM    C4F13078   4.908   4.650   7.408 -0.2358  0.8027 -0.0713
  123OSM    H4F13079   4.798   4.636   7.402 -0.1690 -0.5948  1.3629
  123OSM    H4G13080   4.931   4.759   7.418  0.9400  0.4957  0.7531
  123OSM    C5F13081   4.972   4.574   7.522  0.1218  0.7745  0.1684
  123OSM    H5F13082   5.076   4.598   7.551  0.7777  0.1753 -1.5560
  123OSM    H5G13083   4.976   4.468   7.488  0.2088  0.6479  0.5684
  123OSM    C6F13084   4.883   4.590   7.650 -0.0584  0.0658 -0.8019
  123OSM    H6F13085   4.776   4.568   7.630 -0.6198 -2.3810  3.6347
  123OSM    H6G13086   4.883   4.687   7.704 -2.0777 -0.2668 -0.1261
  123OSM    C7F13087   4.925   4.487   7.761  0.0735  0.3436  0.6717
  123OSM    H7F13088   5.022   4.515   7.806  1.5625  1.1694 -2.7987
  123OSM    H7G13089   4.950   4.385   7.726  0.9651  0.3403  1.2898
  123OSM    C8F13090   4.812   4.483   7.871  0.6202  0.0025 -0.0067
  123OSM    H8F13091   4.823   4.393   7.935  0.4324  0.1707  0.2622
  123OSM    H8G13092   4.717   4.461   7.817  1.6814  0.1162 -2.0335
  123OSM    C9F13093   4.790   4.603   7.957 -0.6178 -0.2711  0.5055
  123OSM    H9F13094   4.760   4.689   7.894 -1.0475 -0.9130 -0.1915
  123OSM   C10F13095   4.796   4.612   8.093  0.5848  0.7887 -0.0422
  123OSM   H10F13096   4.771   4.702   8.150 -0.1889  0.4958  0.0860
  123OSM   C11F13097   4.833   4.506   8.195  0.0891 -0.1045 -0.8687
  123OSM   H11F13098   4.875   4.552   8.287 -0.2761 -3.2431  1.0256
  123OSM   H11G13099   4.909   4.433   8.160  1.5447 -1.4128  4.0963
  123OSM   C12F13100   4.701   4.428   8.225 -0.0560 -0.0372 -0.0575
  123OSM   H12F13101   4.723   4.344   8.294 -1.2723 -1.4124 -1.2813
  123OSM   H12G13102   4.658   4.387   8.131  0.1771  1.7166 -0.9732
  123OSM   C13F13103   4.598   4.515   8.302  0.0266 -0.0950  0.0555
  123OSM   H13F13104   4.592   4.611   8.248 -0.1257 -1.0381 -1.6733
  123OSM   H13G13105   4.631   4.548   8.403 -2.1501  2.9880 -0.0974
  123OSM   C14F13106   4.453   4.444   8.306 -0.3095  0.1297 -0.8321
  123OSM   H14F13107   4.428   4.401   8.207  1.1914 -1.8041 -0.4239
  123OSM   H14G13108   4.381   4.522   8.339  1.8532  1.9561 -0.1618
  123OSM   C15F13109   4.440   4.335   8.410  0.7678  0.7504  0.1331
  123OSM   H15F13110   4.527   4.267   8.406  2.2888  2.5379  0.9800
  123OSM   H15G13111   4.358   4.267   8.380 -0.7808  1.7523  1.8466
  123OSM   C16F13112   4.416   4.391   8.554  0.0293  0.3719 -0.6736
  123OSM   H16F13113   4.346   4.477   8.552  0.5154  0.7612 -1.0980
  123OSM   H16G13114   4.506   4.434   8.603 -0.2275  0.6893 -0.4811
  123OSM   C17F13115   4.350   4.282   8.638  0.1113 -0.3837 -0.1481
  123OSM   H17F13116   4.252   4.260   8.591 -0.0354  0.7408 -0.3973
  123OSM   H17G13117   4.316   4.323   8.735  0.1913  0.8019 -0.6078
  123OSM   C18F13118   4.430   4.151   8.661  0.1151 -0.6393 -0.1594
  123OSM   H18F13119   4.389   4.063   8.607  1.7346 -0.8325 -1.1619
  123OSM   H18G13120   4.435   4.132   8.770  0.6872 -0.5364 -0.1628
  123OSM   H18H13121   4.536   4.167   8.630 -0.3637 -0.7284 -1.9825
  124OSM      N13122   5.864   2.860   5.943  0.0184  0.6717  0.0991
  124OSM    C1513123   5.845   2.982   6.029 -0.5137 -0.9309  0.7962
  124OSM   H15A13124   5.744   3.019   6.023 -0.6405 -1.3202  0.4131
  124OSM   H15B13125   5.914   3.063   6.010 -0.3055 -1.0154  1.1690
  124OSM   H15C13126   5.864   2.956   6.132  1.6653  1.8045  1.1750
  124OSM    C1413127   5.844   2.896   5.794  0.5814  0.1940  0.0405
  124OSM   H14A13128   5.743   2.929   5.774  0.1099 -1.8634 -1.2392
  124OSM   H14B13129   5.876   2.825   5.720  1.7864  0.7277  0.0235
  124OSM   H14C13130   5.904   2.981   5.765 -1.9146  1.6894 -1.0464
  124OSM    C1313131   5.998   2.809   5.969 -0.2470  0.1513  0.4129
  124OSM   H13A13132   6.038   2.729   5.908 -0.8713  0.1677 -0.0339
  124OSM   H13B13133   6.011   2.775   6.071 -1.0605  1.0566  0.8388
  124OSM   H13C13134   6.074   2.884   5.960 -0.0262 -0.0389  0.6570
  124OSM    C1213135   5.760   2.754   5.990 -0.1574  1.0082 -0.0848
  124OSM   H12A13136   5.779   2.667   5.928  0.2376  0.0866  1.2930
  124OSM   H12B13137   5.658   2.786   5.973 -1.0885 -0.1956  2.6428
  124OSM    C1113138   5.762   2.709   6.139 -0.1472  1.1907 -0.8741
  124OSM   H11A13139   5.664   2.663   6.164 -0.4693  2.3499  0.0866
  124OSM   H11B13140   5.775   2.801   6.200  2.0062  0.0337  0.5633
  124OSM      P13141   5.845   2.463   6.160 -0.3511 -0.6316  0.2564
  124OSM    O1313142   5.773   2.441   6.034  0.1157 -0.3172  0.1099
  124OSM    O1413143   5.969   2.383   6.178  0.2504 -0.4201  0.6763
  124OSM    O1113144   5.755   2.453   6.286 -0.0890 -0.5897 -0.3244
  124OSM    O1213145   5.872   2.619   6.170 -0.3683 -0.2740  0.1878
  124OSM    C1S13146   5.791   2.455   6.423 -0.0548 -0.6320 -0.2545
  124OSM    H1S13147   5.878   2.520   6.444  1.7653 -2.2600 -2.3229
  124OSM    H1T13148   5.817   2.351   6.452 -1.9690 -1.1071 -0.0778
  124OSM     NF13149   5.724   2.533   6.657  0.9512 -0.7829 -0.0657
  124OSM    HNF13150   5.740   2.456   6.719  0.2302  1.0865  2.6514
  124OSM    C2S13151   5.669   2.499   6.519  0.7589  0.6363 -0.3037
  124OSM    H2S13152   5.622   2.587   6.470  0.4174  0.1297 -0.9101
  124OSM    C3S13153   5.565   2.385   6.525 -0.6801 -0.6650 -0.7933
  124OSM    H3S13154   5.609   2.298   6.580  0.0899  0.2818  0.1237
  124OSM     O313155   5.526   2.341   6.392  0.3050  0.1569  0.0286
  124OSM    HO313156   5.598   2.371   6.335 -0.8187 -1.7543 -2.5661
  124OSM    C4S13157   5.440   2.421   6.611  0.7946 -0.1003  0.1842
  124OSM    H4S13158   5.452   2.402   6.718  0.2630 -0.5732  0.1619
  124OSM    C5S13159   5.317   2.467   6.570  0.0708 -0.5923 -0.3640
  124OSM    H5S13160   5.291   2.465   6.463 -1.7751  2.6394 -0.1116
  124OSM    C6S13161   5.191   2.485   6.648 -0.1478 -0.5128 -0.2490
  124OSM    H6S13162   5.118   2.401   6.641 -1.2543  0.4922 -1.2639
  124OSM    H6T13163   5.153   2.579   6.604  1.5261 -0.0643 -0.7995
  124OSM    C7S13164   5.216   2.508   6.798  0.5173 -0.5214  0.0692
  124OSM    H7S13165   5.282   2.594   6.823 -2.6946  2.4070 -0.7168
  124OSM    H7T13166   5.255   2.413   6.841  2.0331 -0.1496 -0.4253
  124OSM    C8S13167   5.088   2.539   6.882 -0.2909 -0.0880  0.2630
  124OSM    H8S13168   5.003   2.478   6.847  1.7645 -2.6405 -0.6224
  124OSM    H8T13169   5.060   2.642   6.850 -0.0665 -0.1519 -0.1471
  124OSM    C9S13170   5.112   2.526   7.033  0.1420 -0.4274  0.1620
  124OSM    H9S13171   5.123   2.418   7.057  0.7244  0.0446  2.2885
  124OSM    H9T13172   5.022   2.554   7.094  0.2223  0.4521 -0.1122
  124OSM   C10S13173   5.241   2.592   7.075  0.2522 -0.3286 -0.4532
  124OSM   H10S13174   5.247   2.684   7.014 -1.4434 -1.8157 -3.0262
  124OSM   H10T13175   5.329   2.526   7.060  0.0722 -0.4702 -0.8885
  124OSM   C11S13176   5.251   2.628   7.225  0.0079 -0.0705  0.4889
  124OSM   H11S13177   5.170   2.702   7.240 -1.9623 -2.1748  0.7646
  124OSM   H11T13178   5.345   2.678   7.257  1.7847 -3.7199  1.4423
  124OSM   C12S13179   5.218   2.518   7.329  0.1583 -0.0101 -0.1827
  124OSM   H12S13180   5.295   2.443   7.302 -0.5370 -0.4740 -0.9045
  124OSM   H12T13181   5.133   2.454   7.299 -1.5821  1.5054  1.2560
  124OSM   C13S13182   5.204   2.575   7.471 -0.5985  0.2371  0.4730
  124OSM   H13S13183   5.102   2.619   7.466 -0.6650 -0.0130 -0.7668
  124OSM   H13T13184   5.287   2.646   7.491 -0.6548 -0.1045  2.0455
  124OSM   C14S13185   5.216   2.464   7.568 -0.8699 -1.0895 -0.0301
  124OSM   H14S13186   5.323   2.436   7.573 -0.6879 -0.2297  1.3383
  124OSM   H14T13187   5.151   2.380   7.535 -1.3938  0.1377 -2.3012
  124OSM   C15S13188   5.166   2.508   7.708  0.2844  0.2935 -0.0395
  124OSM   H15S13189   5.055   2.506   7.709  0.2786  0.7427  0.7108
  124OSM   H15T13190   5.206   2.611   7.722  0.1909  0.7149 -2.4207
  124OSM   C16S13191   5.225   2.418   7.823  0.2434  0.6115  0.0921
  124OSM   H16S13192   5.335   2.423   7.809  0.3556 -1.4011 -0.0415
  124OSM   H16T13193   5.208   2.309   7.811 -0.2316  0.7333 -0.3732
  124OSM   C17S13194   5.186   2.457   7.962 -0.6127  0.0027  0.5574
  124OSM   H17S13195   5.076   2.450   7.969 -0.5103 -2.9552  0.1997
  124OSM   H17T13196   5.198   2.566   7.981 -1.3244  0.0892  0.5079
  124OSM   C18S13197   5.258   2.382   8.076  0.0067 -0.2537 -0.3850
  124OSM   H18S13198   5.221   2.428   8.170  2.9563 -1.7496  1.6687
  124OSM   H18T13199   5.369   2.389   8.066  0.1597 -1.3961  0.3376
  124OSM   H18U13200   5.232   2.274   8.074  0.4417 -0.3645 -0.2489
  124OSM    C1F13201   5.797   2.647   6.668  0.2337  0.6523  0.4486
  124OSM     OF13202   5.796   2.726   6.574  0.6251 -0.5198 -0.1708
  124OSM    C2F13203   5.888   2.655   6.785  0.8636 -0.2384 -0.0143
  124OSM    H2F13204   5.936   2.556   6.801  0.0419 -0.6782 -0.2247
  124OSM    H2G13205   5.835   2.689   6.877  2.3848 -0.4667  0.9889
  124OSM    C3F13206   5.994   2.763   6.759  0.2055  0.1374  0.2493
  124OSM    H3F13207   5.950   2.864   6.748  0.8780  0.3491 -0.6106
  124OSM    H3G13208   6.047   2.742   6.663 -1.1767  1.0838 -0.7640
  124OSM    C4F13209   6.096   2.778   6.873 -0.5794  0.2385  0.1143
  124OSM    H4F13210   6.173   2.845   6.828  1.2753 -0.5733  1.9176
  124OSM    H4G13211   6.139   2.676   6.886 -1.4208 -0.4720 -2.0701
  124OSM    C5F13212   6.034   2.829   7.001  0.3794  0.0796  0.0343
  124OSM    H5F13213   5.962   2.750   7.032  0.8510  0.3210  1.8591
  124OSM    H5G13214   5.981   2.926   6.989 -1.2918 -0.5047  2.0532
  124OSM    C6F13215   6.134   2.838   7.121  0.0540 -0.1122 -0.0017
  124OSM    H6F13216   6.219   2.903   7.090 -0.0253 -0.2917 -0.5912
  124OSM    H6G13217   6.166   2.737   7.154  1.2140 -0.0160 -0.7735
  124OSM    C7F13218   6.061   2.880   7.252 -0.3552  0.1937  0.5176
  124OSM    H7F13219   5.979   2.808   7.272 -0.7274  0.2548 -0.6892
  124OSM    H7G13220   6.004   2.971   7.224 -1.5649 -0.3299  1.2248
  124OSM    C8F13221   6.145   2.915   7.374  0.4705 -0.6730  0.1074
  124OSM    H8F13222   6.075   2.972   7.439  1.2415 -1.0753  1.3161
  124OSM    H8G13223   6.223   2.986   7.337 -0.6932  0.2568 -0.6417
  124OSM    C9F13224   6.198   2.796   7.446  0.2224  0.0951 -0.0155
  124OSM    H9F13225   6.268   2.734   7.389  0.0208  0.0830 -0.2476
  124OSM   C10F13226   6.184   2.771   7.581 -0.2442  0.2212  1.2305
  124OSM   H10F13227   6.236   2.679   7.611 -2.5688 -2.9804 -3.4922
  124OSM   C11F13228   6.102   2.849   7.684  0.8661 -0.5252  0.0835
  124OSM   H11F13229   6.035   2.925   7.640 -1.8709 -2.7848  0.0948
  124OSM   H11G13230   6.166   2.907   7.754 -0.3838  0.3793  0.5044
  124OSM   C12F13231   6.018   2.745   7.754 -0.3073  0.0186 -0.4886
  124OSM   H12F13232   5.953   2.690   7.683 -0.3136  0.1419 -0.5779
  124OSM   H12G13233   5.947   2.800   7.819  1.0431  2.6936 -1.1275
  124OSM   C13F13234   6.088   2.636   7.840  0.6913  0.3660  0.5552
  124OSM   H13F13235   6.133   2.557   7.776 -1.0556 -0.7123  0.5828
  124OSM   H13G13236   6.013   2.585   7.904 -0.9574  1.5088 -0.4066
  124OSM   C14F13237   6.181   2.713   7.942  0.2269 -0.1786 -0.4972
  124OSM   H14F13238   6.165   2.821   7.961  3.1009  0.4859 -1.3834
  124OSM   H14G13239   6.286   2.716   7.906  0.5082  0.0280  0.3191
  124OSM   C15F13240   6.201   2.644   8.080 -0.9288 -0.1635  0.0349
  124OSM   H15F13241   6.298   2.674   8.124 -0.1883 -1.7057 -0.4650
  124OSM   H15G13242   6.208   2.536   8.052  0.1697  0.6882 -3.5766
  124OSM   C16F13243   6.083   2.656   8.180  0.6137  0.2000 -0.4362
  124OSM   H16F13244   5.998   2.599   8.138  1.6851 -0.5214 -1.6923
  124OSM   H16G13245   6.060   2.765   8.181  3.0780  0.8090 -1.4199
  124OSM   C17F13246   6.104   2.606   8.324  0.3088 -0.1793 -0.1840
  124OSM   H17F13247   6.156   2.509   8.310  0.7192  0.2161 -1.5536
  124OSM   H17G13248   6.014   2.584   8.385 -0.0877 -2.5997 -1.5226
  124OSM   C18F13249   6.204   2.687   8.410 -0.5445 -0.5811  0.2016
  124OSM   H18F13250   6.207   2.662   8.518 -0.9972  0.5279  0.4827
  124OSM   H18G13251   6.173   2.791   8.389 -1.8520 -0.8645  0.6505
  124OSM   H18H13252   6.309   2.683   8.374 -0.9680  1.5514 -1.5028
  125OSM      N13253   0.903   6.333   6.412  1.0447  0.0352  0.4543
  125OSM    C1513254   0.944   6.206   6.473  0.1519 -0.2692 -0.0210
  125OSM   H15A13255   1.052   6.196   6.469  0.4895  1.7930  2.2456
  125OSM   H15B13256   0.902   6.121   6.420 -0.8921  0.8734 -1.0744
  125OSM   H15C13257   0.925   6.205   6.579 -2.4989  0.7197 -0.4131
  125OSM    C1413258   0.748   6.325   6.400 -0.0096 -0.7667  0.0974
  125OSM   H14A13259   0.711   6.324   6.501  1.8585  0.9793  0.8784
  125OSM   H14B13260   0.721   6.234   6.348  0.0196 -1.0422  0.5607
  125OSM   H14C13261   0.708   6.415   6.356 -1.3366 -0.3887  1.9608
  125OSM    C1313262   0.937   6.454   6.494 -0.7478  0.2766 -0.1488
  125OSM   H13A13263   0.887   6.543   6.459 -1.4601  0.0735  0.3343
  125OSM   H13B13264   1.042   6.479   6.488 -1.0496  2.0528  1.2411
  125OSM   H13C13265   0.901   6.441   6.594  0.8254 -0.6974  0.3331
  125OSM    C1213266   0.959   6.347   6.270 -0.9182 -0.4337  0.5674
  125OSM   H12A13267   0.925   6.437   6.221  0.3371  1.3041  2.6698
  125OSM   H12B13268   0.934   6.259   6.214 -1.5312  0.1665 -0.1208
  125OSM    C1113269   1.114   6.357   6.259 -0.0534 -0.6313  0.2343
  125OSM   H11A13270   1.151   6.446   6.314  0.2314  0.3244 -1.4141
  125OSM   H11B13271   1.137   6.371   6.151 -0.1383  0.0921  0.3011
  125OSM      P13272   1.308   6.174   6.254  0.0725 -0.0319 -0.2660
  125OSM    O1313273   1.329   6.045   6.321 -0.5757 -0.0031 -0.2703
  125OSM    O1413274   1.314   6.179   6.104 -0.1042 -0.4789 -0.4505
  125OSM    O1113275   1.406   6.280   6.319 -0.2752 -0.0599 -0.4623
  125OSM    O1213276   1.167   6.230   6.295  0.4812 -0.2041 -0.5181
  125OSM    C1S13277   1.382   6.345   6.445 -0.0168  0.2274 -0.3337
  125OSM    H1S13278   1.274   6.336   6.473 -0.0844  0.1445 -0.6169
  125OSM    H1T13279   1.414   6.451   6.443  0.1266  0.1812 -0.5081
  125OSM     NF13280   1.380   6.307   6.697  0.6702 -0.3631 -0.3285
  125OSM    HNF13281   1.415   6.377   6.758  0.1560  0.9202 -1.4493
  125OSM    C2S13282   1.454   6.282   6.572  0.2048  0.1810  0.1728
  125OSM    H2S13283   1.454   6.173   6.551 -2.2714  0.1229  0.2224
  125OSM    C3S13284   1.602   6.331   6.578 -0.5180 -0.3195 -0.3714
  125OSM    H3S13285   1.606   6.441   6.593  2.3279 -0.1428 -1.8232
  125OSM     O313286   1.679   6.317   6.459 -0.0968  0.2708 -0.8951
  125OSM    HO313287   1.610   6.298   6.395 -2.3762  0.2832  1.4084
  125OSM    C4S13288   1.679   6.254   6.687  0.3313 -0.4554  0.6301
  125OSM    H4S13289   1.676   6.145   6.677  1.4569 -0.5348  0.9593
  125OSM    C5S13290   1.730   6.317   6.802 -0.4042  0.1468  0.0631
  125OSM    H5S13291   1.713   6.423   6.824 -0.9758 -0.2137  1.4780
  125OSM    C6S13292   1.789   6.231   6.914  0.3281  0.1089 -0.0499
  125OSM    H6S13293   1.900   6.232   6.906  0.4074 -2.6818 -0.1388
  125OSM    H6T13294   1.758   6.125   6.914  0.3877  0.0886 -0.4533
  125OSM    C7S13295   1.743   6.307   7.040 -0.5886  0.3841  1.1563
  125OSM    H7S13296   1.749   6.418   7.037  0.0140  0.3320 -0.5539
  125OSM    H7T13297   1.815   6.279   7.119 -0.0865  1.2156  1.0056
  125OSM    C8S13298   1.605   6.278   7.091 -0.2134 -0.8492  0.3653
  125OSM    H8S13299   1.580   6.170   7.103 -0.0485 -0.7650  1.6724
  125OSM    H8T13300   1.540   6.322   7.013 -0.0887 -0.6898  0.3497
  125OSM    C9S13301   1.573   6.332   7.226  0.8770 -0.7755  0.4885
  125OSM    H9S13302   1.466   6.315   7.249  0.9105 -1.8253 -0.0548
  125OSM    H9T13303   1.581   6.443   7.226  0.7602 -0.7674 -0.0836
  125OSM   C10S13304   1.658   6.283   7.345  0.0750 -0.2413 -0.0045
  125OSM   H10S13305   1.766   6.305   7.328 -0.7548  2.3257 -2.7774
  125OSM   H10T13306   1.634   6.175   7.349 -0.1516 -0.1833  0.1637
  125OSM   C11S13307   1.612   6.344   7.483  0.3248 -0.7280  0.3940
  125OSM   H11S13308   1.501   6.353   7.491  0.4803  1.7228  0.6212
  125OSM   H11T13309   1.646   6.449   7.477 -0.7012 -0.3769  0.4417
  125OSM   C12S13310   1.673   6.281   7.612  0.4254  0.3741 -0.9622
  125OSM   H12S13311   1.783   6.275   7.598  0.7063 -0.8802  1.2015
  125OSM   H12T13312   1.632   6.178   7.623  0.5452  0.4476  0.3704
  125OSM   C13S13313   1.653   6.356   7.743 -0.0201  0.7415  0.6879
  125OSM   H13S13314   1.544   6.365   7.763 -0.3721  1.8355 -1.4473
  125OSM   H13T13315   1.684   6.462   7.748  0.0887  0.6868  1.2229
  125OSM   C14S13316   1.738   6.293   7.856  0.2778  0.1274  0.2449
  125OSM   H14S13317   1.847   6.307   7.838  0.7604 -1.3357  1.8280
  125OSM   H14T13318   1.730   6.183   7.860 -0.0427  0.1732  1.0625
  125OSM   C15S13319   1.697   6.345   7.991 -0.4317 -0.0766 -0.4380
  125OSM   H15S13320   1.608   6.284   8.018  1.1571 -2.4429 -0.2545
  125OSM   H15T13321   1.680   6.455   8.001  1.2700  0.2504 -0.8176
  125OSM   C16S13322   1.799   6.303   8.098 -0.1004  0.1359 -0.4174
  125OSM   H16S13323   1.886   6.368   8.074 -0.5928  1.0335  0.1462
  125OSM   H16T13324   1.820   6.195   8.089 -0.3518  0.1304 -0.9770
  125OSM   C17S13325   1.755   6.331   8.242  0.3486  0.0225 -0.5754
  125OSM   H17S13326   1.667   6.271   8.270  2.6833 -2.7441  1.4910
  125OSM   H17T13327   1.719   6.436   8.250  0.0576  0.0157 -1.6660
  125OSM   C18S13328   1.873   6.315   8.336 -0.2623  0.6390  0.2858
  125OSM   H18S13329   1.847   6.351   8.438 -0.6809 -0.5488  0.6112
  125OSM   H18T13330   1.963   6.360   8.290 -1.0371  1.3529 -0.5771
  125OSM   H18U13331   1.887   6.207   8.357 -0.0390  0.8864  1.4961
  125OSM    C1F13332   1.257   6.251   6.721  0.2741  0.3631  0.7540
  125OSM     OF13333   1.215   6.154   6.664 -0.7195  0.2574  0.2268
  125OSM    C2F13334   1.163   6.315   6.823 -0.8025 -0.2584  0.5340
  125OSM    H2F13335   1.084   6.362   6.760  1.6423 -0.0796 -2.6420
  125OSM    H2G13336   1.225   6.396   6.867 -2.0702  1.0625 -0.0165
  125OSM    C3F13337   1.114   6.210   6.921 -0.0343  0.5802  0.1174
  125OSM    H3F13338   1.051   6.142   6.859 -0.0294  1.8218 -1.3146
  125OSM    H3G13339   1.037   6.247   6.991 -0.1709  0.5213  0.0009
  125OSM    C4F13340   1.228   6.150   7.004  0.3932 -0.1482  0.5757
  125OSM    H4F13341   1.254   6.233   7.073  0.1534 -0.2525  0.7913
  125OSM    H4G13342   1.325   6.142   6.949  0.3911  3.6879 -0.2965
  125OSM    C5F13343   1.167   6.035   7.093 -0.1433 -0.5195  0.5982
  125OSM    H5F13344   1.172   5.942   7.033  1.6608 -0.7925  1.1128
  125OSM    H5G13345   1.062   6.050   7.127  0.1542  0.0529  1.2996
  125OSM    C6F13346   1.254   6.025   7.218 -0.1343  0.3501 -0.3493
  125OSM    H6F13347   1.352   6.070   7.190  1.6466 -1.9057  1.7996
  125OSM    H6G13348   1.269   5.918   7.244  0.3176  0.4952  0.0113
  125OSM    C7F13349   1.191   6.105   7.332 -0.3698  0.6832  0.8613
  125OSM    H7F13350   1.118   6.030   7.367  1.6999 -1.9058 -0.0678
  125OSM    H7G13351   1.145   6.197   7.289 -0.5068 -0.5407 -1.8584
  125OSM    C8F13352   1.285   6.138   7.454 -0.4279 -0.1740 -0.2742
  125OSM    H8F13353   1.355   6.220   7.429 -2.5131  1.4747 -1.0702
  125OSM    H8G13354   1.336   6.043   7.483 -0.9011 -0.1178  0.7839
  125OSM    C9F13355   1.196   6.186   7.566 -1.1147  0.4263  0.3333
  125OSM    H9F13356   1.104   6.241   7.543 -2.6972 -2.7675 -1.6417
  125OSM   C10F13357   1.223   6.154   7.696  0.5277  0.9854  0.4311
  125OSM   H10F13358   1.142   6.174   7.768 -0.2468  0.2304 -0.2182
  125OSM   C11F13359   1.335   6.079   7.758  0.2259  0.5278 -0.9018
  125OSM   H11F13360   1.425   6.086   7.694  0.0194 -2.7749 -1.7804
  125OSM   H11G13361   1.303   5.972   7.765  0.2197  0.6560  3.3326
  125OSM   C12F13362   1.374   6.126   7.893 -0.4815  0.0221 -0.1193
  125OSM   H12F13363   1.402   6.233   7.881 -0.4401  0.1796  1.2279
  125OSM   H12G13364   1.471   6.079   7.922  0.4805  1.5819 -0.6695
  125OSM   C13F13365   1.265   6.106   8.003  0.5470  0.5178 -0.3838
  125OSM   H13F13366   1.248   5.996   8.009 -1.5851  0.7011 -1.7754
  125OSM   H13G13367   1.172   6.151   7.963  0.4319  0.5334 -0.0990
  125OSM   C14F13368   1.293   6.177   8.131  0.5915  0.1177  0.4631
  125OSM   H14F13369   1.203   6.192   8.195 -0.2723 -1.4810 -0.3114
  125OSM   H14G13370   1.331   6.279   8.111  0.1159 -0.0854 -1.7021
  125OSM   C15F13371   1.402   6.097   8.209 -0.0995 -0.6959 -0.4587
  125OSM   H15F13372   1.449   6.162   8.286 -0.6188 -1.2865  0.3757
  125OSM   H15G13373   1.488   6.071   8.144 -0.5189 -1.5686 -0.6881
  125OSM   C16F13374   1.352   5.979   8.297 -0.9730 -0.3078 -0.3762
  125OSM   H16F13375   1.310   5.912   8.219  0.5892 -2.2636  0.3935
  125OSM   H16G13376   1.277   6.005   8.375  1.5185  1.4309  1.6290
  125OSM   C17F13377   1.474   5.906   8.362 -0.0573 -0.0486  0.7052
  125OSM   H17F13378   1.530   5.851   8.283  2.2355  3.2788 -0.2103
  125OSM   H17G13379   1.430   5.827   8.427  1.5484 -2.8022 -1.3074
  125OSM   C18F13380   1.574   5.981   8.437  0.2354 -0.1914 -0.3291
  125OSM   H18F13381   1.548   6.086   8.461  0.0784 -0.4788  0.8687
  125OSM   H18G13382   1.662   5.993   8.370  0.1308  1.2137 -0.2478
  125OSM   H18H13383   1.605   5.934   8.533 -1.3804 -0.3571  0.1513
  126OSM      N13384   0.740   4.552   6.462  0.1554  0.1108  0.9160
  126OSM    C1513385   0.617   4.467   6.437  0.0672 -1.0525  0.7481
  126OSM   H15A13386   0.557   4.435   6.521 -0.5955 -1.5235  0.1111
  126OSM   H15B13387   0.631   4.377   6.379 -1.1560 -1.5959  1.2651
  126OSM   H15C13388   0.538   4.526   6.393 -1.0543 -0.4590  3.3543
  126OSM    C1413389   0.840   4.519   6.355 -0.8516  0.2368  0.1794
  126OSM   H14A13390   0.868   4.415   6.361 -0.4539  0.2728 -0.8711
  126OSM   H14B13391   0.921   4.590   6.362 -1.2970  0.8172 -0.3128
  126OSM   H14C13392   0.792   4.536   6.259  0.2712  0.9209 -0.2823
  126OSM    C1313393   0.716   4.696   6.450 -0.3364  0.5100  0.5997
  126OSM   H13A13394   0.703   4.725   6.347 -3.3430 -0.9993  0.4362
  126OSM   H13B13395   0.797   4.751   6.494  1.6213  0.2689 -2.3847
  126OSM   H13C13396   0.625   4.721   6.502 -0.0181  0.8581  0.9933
  126OSM    C1213397   0.797   4.506   6.598 -0.1749 -0.2239 -0.3418
  126OSM   H12A13398   0.739   4.552   6.676  1.8869  0.5917  0.8090
  126OSM   H12B13399   0.901   4.537   6.602 -1.0710  3.3314 -1.2738
  126OSM    C1113400   0.805   4.354   6.625  0.0077  0.5129  0.4333
  126OSM   H11A13401   0.707   4.310   6.651  0.9302 -2.2048 -0.3741
  126OSM   H11B13402   0.870   4.345   6.715  0.0197  1.4638  0.5316
  126OSM      P13403   0.849   4.137   6.489  0.1088 -0.1628 -0.3201
  126OSM    O1313404   0.723   4.102   6.414  0.9084  0.2724 -0.2039
  126OSM    O1413405   0.974   4.087   6.425 -0.1241 -0.8416 -0.7009
  126OSM    O1113406   0.837   4.069   6.632 -0.0267  0.2409  0.5452
  126OSM    O1213407   0.868   4.292   6.518  0.2149  0.1241  0.0396
  126OSM    C1S13408   0.947   4.030   6.709  0.0405  0.6759 -0.2897
  126OSM    H1S13409   1.036   4.089   6.676  2.4183 -1.9006  1.0379
  126OSM    H1T13410   0.980   3.927   6.683  0.1703  0.8375 -0.7889
  126OSM     NF13411   1.041   4.016   6.937 -0.3865  0.7186 -0.4459
  126OSM    HNF13412   1.053   3.923   6.972  0.1098  0.7240 -0.5954
  126OSM    C2S13413   0.923   4.052   6.864 -0.3028 -0.6177 -0.1148
  126OSM    H2S13414   0.903   4.161   6.877  1.2933 -0.0822 -1.6611
  126OSM    C3S13415   0.789   3.973   6.912 -0.3142 -1.0315 -0.2078
  126OSM    H3S13416   0.793   3.869   6.873  0.8627 -1.5619  1.2392
  126OSM     O313417   0.681   4.042   6.848  0.3409 -0.3797 -0.2843
  126OSM    HO313418   0.722   4.101   6.784  1.4347  0.7268  1.3317
  126OSM    C4S13419   0.770   3.977   7.063  0.6774 -0.3589 -0.7070
  126OSM    H4S13420   0.841   3.915   7.119  0.8028  2.5226  2.6395
  126OSM    C5S13421   0.675   4.049   7.130  0.1340 -0.4642 -0.6666
  126OSM    H5S13422   0.589   4.097   7.083 -2.0052 -2.6677  0.7527
  126OSM    C6S13423   0.659   4.061   7.283  0.4595 -0.5734  0.6148
  126OSM    H6S13424   0.581   3.991   7.319 -1.1869  0.8797 -0.0038
  126OSM    H6T13425   0.639   4.164   7.317  3.0568 -0.4106  1.8655
  126OSM    C7S13426   0.788   4.036   7.364 -0.4559  0.6007 -0.9932
  126OSM    H7S13427   0.869   4.104   7.331  0.1565  0.6902  0.6442
  126OSM    H7T13428   0.808   3.928   7.351  2.1496  1.0789 -1.5436
  126OSM    C8S13429   0.759   4.063   7.518 -0.0432  0.6196  0.4906
  126OSM    H8S13430   0.700   4.155   7.540  0.7667  0.6760  2.5979
  126OSM    H8T13431   0.862   4.064   7.560  0.7871  0.6160 -1.4412
  126OSM    C9S13432   0.685   3.944   7.581 -0.0637 -1.0257  0.2444
  126OSM    H9S13433   0.754   3.858   7.568  1.3371  0.1845 -0.7260
  126OSM    H9T13434   0.588   3.918   7.533  0.4059  0.0553 -1.3568
  126OSM   C10S13435   0.660   3.963   7.737  0.2364  0.2467 -0.3194
  126OSM   H10S13436   0.586   4.043   7.756  0.4008  0.2909  0.1677
  126OSM   H10T13437   0.760   3.987   7.781  0.7719 -1.8681 -0.2836
  126OSM   C11S13438   0.624   3.817   7.785 -0.3951  0.9414 -0.4666
  126OSM   H11S13439   0.693   3.741   7.743  1.0521  1.5287  0.7713
  126OSM   H11T13440   0.527   3.792   7.736  0.3728  0.3154 -1.7231
  126OSM   C12S13441   0.619   3.794   7.939  0.3022  0.0294 -0.3651
  126OSM   H12S13442   0.543   3.865   7.977  0.5792  0.7169 -1.0801
  126OSM   H12T13443   0.719   3.817   7.982 -0.1281  3.1173 -0.8364
  126OSM   C13S13444   0.590   3.649   7.964 -0.6315  0.1335 -0.1648
  126OSM   H13S13445   0.641   3.586   7.888  1.0453 -0.5123  1.4036
  126OSM   H13T13446   0.483   3.633   7.939 -1.1244  0.8200  1.4222
  126OSM   C14S13447   0.623   3.603   8.106 -1.2801 -0.1004  0.5360
  126OSM   H14S13448   0.588   3.683   8.175 -2.9510  0.2230 -0.6252
  126OSM   H14T13449   0.734   3.598   8.114 -1.2289  1.2022  0.7598
  126OSM   C15S13450   0.547   3.479   8.153 -0.5192  0.1359  0.2292
  126OSM   H15S13451   0.576   3.396   8.085 -1.0660 -0.0021  0.1600
  126OSM   H15T13452   0.436   3.486   8.151 -0.6840 -1.1162  2.0562
  126OSM   C16S13453   0.588   3.427   8.300 -0.0917 -0.1218  0.1406
  126OSM   H16S13454   0.550   3.500   8.375 -1.7632 -0.8746  0.0698
  126OSM   H16T13455   0.697   3.403   8.305  0.1241  0.3601 -1.5381
  126OSM   C17S13456   0.517   3.292   8.344 -0.9537  0.0817 -0.4363
  126OSM   H17S13457   0.567   3.247   8.433 -1.9360 -1.7491 -0.7589
  126OSM   H17T13458   0.519   3.230   8.252  0.4539 -0.7685  0.1292
  126OSM   C18S13459   0.373   3.321   8.380  0.1849 -0.3088  0.0904
  126OSM   H18S13460   0.324   3.400   8.318  1.4919  1.1088  0.7762
  126OSM   H18T13461   0.369   3.364   8.482 -2.0622  0.6268 -0.3226
  126OSM   H18U13462   0.318   3.227   8.364  0.4442 -0.2637 -1.2490
  126OSM    C1F13463   1.148   4.091   6.930 -0.4202  0.4601  0.1138
  126OSM     OF13464   1.151   4.199   6.869 -0.0431 -0.3757  0.3616
  126OSM    C2F13465   1.270   4.042   6.999 -0.0657  0.2841 -0.0773
  126OSM    H2F13466   1.349   4.041   6.921  0.4472 -1.8683  0.3878
  126OSM    H2G13467   1.270   3.937   7.037  3.1707  0.3719  0.4406
  126OSM    C3F13468   1.314   4.132   7.119 -0.1343 -0.3107  0.0843
  126OSM    H3F13469   1.343   4.227   7.070  0.1732 -0.1627  0.5489
  126OSM    H3G13470   1.401   4.090   7.173 -0.0627  2.4625  2.3151
  126OSM    C4F13471   1.214   4.170   7.226 -0.0889  0.1181 -0.7044
  126OSM    H4F13472   1.148   4.089   7.263 -0.7557  1.3805  1.0277
  126OSM    H4G13473   1.146   4.255   7.200 -0.2975  1.2640  3.0841
  126OSM    C5F13474   1.285   4.200   7.365  1.1850 -0.0916  0.3544
  126OSM    H5F13475   1.329   4.302   7.359  0.5619  0.1168 -1.1162
  126OSM    H5G13476   1.368   4.127   7.371  0.3663 -1.0687 -0.0127
  126OSM    C6F13477   1.197   4.187   7.492 -0.2390  0.6453  0.6203
  126OSM    H6F13478   1.225   4.086   7.529 -1.5496  1.2197  3.4043
  126OSM    H6G13479   1.090   4.187   7.463 -0.1032 -2.0595 -0.1528
  126OSM    C7F13480   1.208   4.305   7.593 -0.2452  0.6771 -0.2379
  126OSM    H7F13481   1.164   4.401   7.560  0.0721  1.2687  0.9823
  126OSM    H7G13482   1.314   4.335   7.604 -0.2355 -0.0697  2.3029
  126OSM    C8F13483   1.163   4.285   7.738 -0.8299  0.3423  1.1285
  126OSM    H8F13484   1.189   4.381   7.786  1.2756  0.0771  0.6229
  126OSM    H8G13485   1.216   4.199   7.784  0.7360  0.9234  0.4851
  126OSM    C9F13486   1.014   4.277   7.732  0.2861 -0.2825 -0.3108
  126OSM    H9F13487   0.958   4.333   7.655 -1.7005 -0.9003  0.6127
  126OSM   C10F13488   0.943   4.188   7.800 -0.1078 -0.1495 -0.3478
  126OSM   H10F13489   0.833   4.192   7.793 -0.2408 -3.2436 -1.8211
  126OSM   C11F13490   0.989   4.090   7.902  0.2508  0.3164 -0.1947
  126OSM   H11F13491   1.085   4.135   7.935 -0.6627  2.4901 -0.3261
  126OSM   H11G13492   0.989   3.981   7.885 -0.5358  0.3862 -0.6437
  126OSM   C12F13493   0.903   4.093   8.025  0.1193 -0.0794 -0.3461
  126OSM   H12F13494   0.796   4.071   8.007 -0.5572  1.2207  1.7022
  126OSM   H12G13495   0.908   4.198   8.061  0.3016  1.0523 -3.4070
  126OSM   C13F13496   0.933   3.988   8.126  0.1722 -0.5465 -0.4284
  126OSM   H13F13497   0.918   3.895   8.067  0.8206  0.0925 -1.6323
  126OSM   H13G13498   0.853   3.989   8.203  1.0032 -1.3003  0.4738
  126OSM   C14F13499   1.076   3.994   8.186 -0.0587 -0.1017 -0.1158
  126OSM   H14F13500   1.146   3.987   8.100 -0.6802 -1.4251 -0.5435
  126OSM   H14G13501   1.093   3.911   8.259  1.4899  0.6319  0.4101
  126OSM   C15F13502   1.095   4.125   8.263  0.0388 -0.4921 -0.9903
  126OSM   H15F13503   1.008   4.138   8.331 -0.1154 -2.1783 -0.8116
  126OSM   H15G13504   1.099   4.202   8.183 -0.5170 -0.9629 -1.4841
  126OSM   C16F13505   1.235   4.132   8.339 -0.0952 -0.3235  0.1551
  126OSM   H16F13506   1.313   4.076   8.282 -0.3338 -0.3794 -0.1202
  126OSM   H16G13507   1.229   4.087   8.440 -0.3260  0.5365  0.5370
  126OSM   C17F13508   1.278   4.279   8.357  0.5434 -0.4483 -0.2204
  126OSM   H17F13509   1.218   4.311   8.445  0.6844  0.1675 -0.3419
  126OSM   H17G13510   1.253   4.337   8.266 -1.0046 -0.4687  0.1602
  126OSM   C18F13511   1.429   4.301   8.379 -0.2357 -0.3853 -0.5730
  126OSM   H18F13512   1.453   4.389   8.443 -1.3406 -0.6109  0.1720
  126OSM   H18G13513   1.479   4.337   8.287  3.0439  1.1001  1.5925
  126OSM   H18H13514   1.479   4.212   8.423 -0.9639 -2.1182 -3.0424
  127OSM      N13515   2.735   4.094   6.208  0.0662 -0.8717  0.2227
  127OSM    C1513516   2.591   4.148   6.200  0.2057  0.1474  0.4417
  127OSM   H15A13517   2.593   4.237   6.260 -0.6318 -0.4073  1.3263
  127OSM   H15B13518   2.516   4.087   6.249  1.3850 -1.2475  0.5957
  127OSM   H15C13519   2.557   4.158   6.097 -0.7376  0.4636  0.7754
  127OSM    C1413520   2.729   3.951   6.179  0.5278 -0.5691 -0.3211
  127OSM   H14A13521   2.676   3.901   6.259  0.6651 -1.6349 -0.8923
  127OSM   H14B13522   2.827   3.912   6.157  1.1961  1.5419 -1.3441
  127OSM   H14C13523   2.669   3.938   6.090 -1.3679  3.7033  0.0875
  127OSM    C1313524   2.824   4.165   6.112  0.2081 -0.2236 -1.4770
  127OSM   H13A13525   2.913   4.107   6.096  0.1401 -0.7422 -0.1341
  127OSM   H13B13526   2.839   4.267   6.146  0.5481 -0.4527 -0.9264
  127OSM   H13C13527   2.777   4.178   6.016  0.6303 -0.2041 -1.6824
  127OSM    C1213528   2.785   4.118   6.353  0.2802  0.6799  0.3171
  127OSM   H12A13529   2.887   4.084   6.349 -0.2662 -0.9408 -0.5197
  127OSM   H12B13530   2.718   4.055   6.410 -2.3672  2.2185 -0.9139
  127OSM    C1113531   2.777   4.260   6.406  0.4491 -0.0583  0.5544
  127OSM   H11A13532   2.806   4.260   6.513  4.6076  1.9417 -0.3760
  127OSM   H11B13533   2.673   4.298   6.394 -0.9953 -3.6326  0.4190
  127OSM      P13534   2.867   4.487   6.303 -0.0559  0.1879 -0.2320
  127OSM    O1313535   2.996   4.520   6.241 -0.6319 -0.2991  0.5197
  127OSM    O1413536   2.747   4.508   6.222 -0.4557  0.0553  0.2611
  127OSM    O1113537   2.848   4.555   6.437 -0.3697 -0.6664  0.0955
  127OSM    O1213538   2.882   4.337   6.345  0.2140  0.5178  0.4142
  127OSM    C1S13539   2.949   4.552   6.533 -0.1798  0.1044 -0.2477
  127OSM    H1S13540   3.049   4.538   6.489  0.4626  0.9731  0.8905
  127OSM    H1T13541   2.923   4.468   6.600  0.4709  0.4569  0.4532
  127OSM     NF13542   3.046   4.674   6.727  0.1843  0.4603  0.7410
  127OSM    HNF13543   3.019   4.667   6.823 -1.3827  0.0604  0.2979
  127OSM    C2S13544   2.940   4.675   6.625  0.2502 -0.4898  0.3347
  127OSM    H2S13545   2.961   4.763   6.560 -2.8451 -1.3908 -2.1219
  127OSM    C3S13546   2.783   4.705   6.669 -0.2422  0.0751 -0.4908
  127OSM    H3S13547   2.733   4.621   6.721  1.3697  0.3265  1.5886
  127OSM     O313548   2.695   4.727   6.557  0.3127  0.2568 -0.4881
  127OSM    HO313549   2.748   4.695   6.483 -0.1253 -2.0345  0.1062
  127OSM    C4S13550   2.771   4.836   6.756 -0.5001 -0.0874  0.0502
  127OSM    H4S13551   2.744   4.930   6.704 -0.3505 -1.3183 -2.4057
  127OSM    C5S13552   2.770   4.832   6.885  0.6900  0.4786  0.2200
  127OSM    H5S13553   2.784   4.740   6.944 -0.4952 -0.8971 -1.5319
  127OSM    C6S13554   2.768   4.955   6.976  0.0742  0.0192  0.8229
  127OSM    H6S13555   2.793   5.046   6.917  0.4487  0.2070  1.2706
  127OSM    H6T13556   2.849   4.951   7.052  1.4460  1.0855 -0.5216
  127OSM    C7S13557   2.634   4.974   7.046 -0.3580  0.3700 -0.0557
  127OSM    H7S13558   2.621   4.882   7.108 -1.0207 -1.1901 -2.3826
  127OSM    H7T13559   2.550   4.980   6.974  0.5759  0.0745 -1.2007
  127OSM    C8S13560   2.640   5.107   7.124  0.2330  0.1070 -0.0604
  127OSM    H8S13561   2.633   5.200   7.063 -1.1710 -0.1487 -0.3273
  127OSM    H8T13562   2.732   5.120   7.184  1.7888 -1.0054 -2.0902
  127OSM    C9S13563   2.533   5.124   7.236 -0.8599  0.6305  0.4023
  127OSM    H9S13564   2.439   5.146   7.180 -0.7696  0.7403  0.2930
  127OSM    H9T13565   2.570   5.208   7.298 -0.8442  0.2421  0.9216
  127OSM   C10S13566   2.502   5.006   7.323 -0.0073 -0.6598  0.2929
  127OSM   H10S13567   2.458   4.914   7.280  1.5149 -2.6559  2.6968
  127OSM   H10T13568   2.423   5.026   7.398  1.2491 -2.1452  2.1203
  127OSM   C11S13569   2.630   4.966   7.404  0.1307  0.3828  0.0958
  127OSM   H11S13570   2.687   5.060   7.425  1.1128 -0.4173  1.1603
  127OSM   H11T13571   2.692   4.902   7.338  0.2969 -0.0120  0.6229
  127OSM   C12S13572   2.614   4.870   7.523  0.1391  0.2472 -1.0696
  127OSM   H12S13573   2.714   4.839   7.559 -1.2685 -1.0267  2.0596
  127OSM   H12T13574   2.561   4.784   7.478  1.1085 -0.1709 -1.4298
  127OSM   C13S13575   2.541   4.923   7.640 -0.3708 -0.2269  0.2489
  127OSM   H13S13576   2.437   4.949   7.609 -0.3305 -0.7807 -0.3649
  127OSM   H13T13577   2.588   5.015   7.680  1.2672  0.2286 -2.4264
  127OSM   C14S13578   2.535   4.819   7.750 -0.0166 -0.4799 -0.7352
  127OSM   H14S13579   2.550   4.721   7.700 -0.1908 -0.5132 -0.7231
  127OSM   H14T13580   2.430   4.821   7.786 -0.0872 -2.6469 -0.6941
  127OSM   C15S13581   2.631   4.828   7.878 -0.1141 -0.9618  0.4919
  127OSM   H15S13582   2.623   4.937   7.899 -0.0116 -1.0609  1.0502
  127OSM   H15T13583   2.731   4.798   7.840 -0.5547 -2.2923  0.3433
  127OSM   C16S13584   2.591   4.739   7.989  0.2667  0.6661 -0.5603
  127OSM   H16S13585   2.612   4.634   7.960 -1.2092 -0.4945  2.1800
  127OSM   H16T13586   2.480   4.746   7.997  0.2228 -0.6534  0.3375
  127OSM   C17S13587   2.650   4.768   8.123 -0.1362  0.4752 -0.2513
  127OSM   H17S13588   2.623   4.873   8.146  0.4260  0.4284  0.6976
  127OSM   H17T13589   2.760   4.761   8.109 -0.3298 -0.5123 -1.4844
  127OSM   C18S13590   2.618   4.676   8.238 -0.2548 -0.6395  0.6332
  127OSM   H18S13591   2.694   4.689   8.317  2.0267  2.0697 -1.7856
  127OSM   H18T13592   2.628   4.572   8.200  1.2409 -0.0029 -0.8737
  127OSM   H18U13593   2.512   4.691   8.268 -0.7685  0.0411 -1.3213
  127OSM    C1F13594   3.173   4.672   6.693 -0.3336 -0.2518 -0.7976
  127OSM     OF13595   3.202   4.700   6.577 -0.2710 -0.0481  0.3914
  127OSM    C2F13596   3.268   4.626   6.800  0.2322  0.9602  0.2403
  127OSM    H2F13597   3.233   4.521   6.815 -2.9231  1.9900  0.8085
  127OSM    H2G13598   3.232   4.669   6.896  1.4931 -0.5713  1.4522
  127OSM    C3F13599   3.420   4.648   6.779 -0.4701  0.3853 -0.3436
  127OSM    H3F13600   3.442   4.757   6.780 -1.6668  0.7446  3.2896
  127OSM    H3G13601   3.454   4.588   6.692  0.4772  3.5871 -2.3447
  127OSM    C4F13602   3.497   4.601   6.908 -0.6772  0.4688  0.2344
  127OSM    H4F13603   3.602   4.576   6.882 -1.7046 -2.0697 -1.9430
  127OSM    H4G13604   3.461   4.501   6.940  0.4049  0.2626  0.8510
  127OSM    C5F13605   3.480   4.701   7.025 -0.2662  0.3061 -0.1142
  127OSM    H5F13606   3.375   4.722   7.057  0.1314 -0.2820  1.6803
  127OSM    H5G13607   3.515   4.804   7.004  0.6785 -0.3518 -2.0903
  127OSM    C6F13608   3.556   4.658   7.150  0.2067 -0.1625  0.4167
  127OSM    H6F13609   3.666   4.665   7.131 -0.1078 -1.9887 -3.0414
  127OSM    H6G13610   3.531   4.553   7.175  0.9844 -0.2780  0.7373
  127OSM    C7F13611   3.529   4.740   7.277 -0.2374 -0.1039 -0.4069
  127OSM    H7F13612   3.422   4.761   7.299  0.4256  0.6891  2.4394
  127OSM    H7G13613   3.567   4.844   7.266 -0.3317  0.2723  2.2973
  127OSM    C8F13614   3.596   4.677   7.406  0.2569 -0.4076 -0.5430
  127OSM    H8F13615   3.702   4.655   7.381  0.2013  0.2209 -1.3638
  127OSM    H8G13616   3.555   4.574   7.418 -2.4079  0.5302 -0.9137
  127OSM    C9F13617   3.558   4.747   7.527 -0.4510  0.0408 -0.6362
  127OSM    H9F13618   3.462   4.801   7.532 -1.1321 -1.2384  2.9043
  127OSM   C10F13619   3.617   4.726   7.649  0.5866  0.0242  0.2011
  127OSM   H10F13620   3.572   4.770   7.739  2.7185 -1.7732  2.2881
  127OSM   C11F13621   3.735   4.647   7.685 -0.2806  0.2733 -0.1196
  127OSM   H11F13622   3.822   4.693   7.632 -1.3009  1.8863 -0.4601
  127OSM   H11G13623   3.719   4.545   7.643  1.4819 -0.1351  0.0926
  127OSM   C12F13624   3.745   4.631   7.839  0.2462  0.5647  0.3590
  127OSM   H12F13625   3.827   4.558   7.854 -1.7512 -1.5506  1.6999
  127OSM   H12G13626   3.660   4.573   7.881  0.0175  1.4918  1.2370
  127OSM   C13F13627   3.762   4.763   7.920  0.2459  0.6570  0.2347
  127OSM   H13F13628   3.673   4.829   7.918 -0.0926  0.2329 -1.8903
  127OSM   H13G13629   3.832   4.821   7.855 -0.8197  0.8572 -0.7657
  127OSM   C14F13630   3.803   4.744   8.069 -0.1227  0.6349  0.5653
  127OSM   H14F13631   3.825   4.841   8.117  1.2569 -0.2685  1.8561
  127OSM   H14G13632   3.901   4.690   8.071 -0.3894  0.0486 -0.9185
  127OSM   C15F13633   3.688   4.673   8.147 -0.1907 -0.1816 -0.0714
  127OSM   H15F13634   3.665   4.578   8.094  0.4641  0.3513 -1.3635
  127OSM   H15G13635   3.603   4.736   8.181 -0.0080 -0.8772  1.8082
  127OSM   C16F13636   3.732   4.637   8.290 -0.0752 -0.3383  0.6024
  127OSM   H16F13637   3.763   4.728   8.345 -2.6659  1.6869 -1.0807
  127OSM   H16G13638   3.819   4.568   8.281  1.2355  1.4307 -0.9179
  127OSM   C17F13639   3.625   4.571   8.377  0.0565  0.5905 -0.4657
  127OSM   H17F13640   3.592   4.639   8.459 -2.6783  0.4536 -1.3766
  127OSM   H17G13641   3.676   4.481   8.417 -0.5902 -0.1187 -1.2215
  127OSM   C18F13642   3.498   4.523   8.307  0.0596  1.0977  0.4145
  127OSM   H18F13643   3.426   4.596   8.265 -1.1539 -0.6722 -0.7138
  127OSM   H18G13644   3.431   4.473   8.380 -1.0425 -1.5469 -2.2067
  127OSM   H18H13645   3.520   4.450   8.226 -1.8586  1.7435 -0.7723
  128OSM      N13646   5.522   1.785   5.911  0.0377  0.5386  0.1900
  128OSM    C1513647   5.434   1.824   5.789  0.5286  0.0138  0.9138
  128OSM   H15A13648   5.455   1.753   5.710 -0.4556  3.3668 -2.7075
  128OSM   H15B13649   5.432   1.929   5.764 -1.0812 -0.0311  0.7247
  128OSM   H15C13650   5.334   1.794   5.817  0.8826 -0.6665  1.4565
  128OSM    C1413651   5.513   1.633   5.932  0.1661  0.0288  0.0965
  128OSM   H14A13652   5.410   1.605   5.949 -0.1060  0.5354 -0.6491
  128OSM   H14B13653   5.570   1.603   6.019  0.5991 -3.3723 -1.2036
  128OSM   H14C13654   5.561   1.583   5.850 -0.8479 -0.4962 -0.1928
  128OSM    C1313655   5.659   1.832   5.874 -0.4048 -0.0301 -0.2221
  128OSM   H13A13656   5.657   1.940   5.868 -0.3640  0.0489  1.0147
  128OSM   H13B13657   5.704   1.789   5.785  2.1060  1.8836 -0.0094
  128OSM   H13C13658   5.732   1.812   5.952 -1.4122 -1.6434  0.3496
  128OSM    C1213659   5.465   1.859   6.026  0.3427  0.0417 -0.2221
  128OSM   H12A13660   5.362   1.831   6.045  0.6913  0.0766  2.0212
  128OSM   H12B13661   5.464   1.965   6.003  2.0610  1.2380  4.2320
  128OSM    C1113662   5.528   1.836   6.169  0.2283  0.1870  0.0787
  128OSM   H11A13663   5.517   1.726   6.176  1.4218  0.1388  1.8137
  128OSM   H11B13664   5.455   1.884   6.238 -1.8977  0.3886 -2.1556
  128OSM      P13665   5.690   2.030   6.233  0.4889  0.0680 -0.1287
  128OSM    O1313666   5.840   2.038   6.248  0.9262 -0.1827 -0.1066
  128OSM    O1413667   5.620   2.131   6.147 -0.1155 -0.4727 -0.1728
  128OSM    O1113668   5.620   2.039   6.376  0.6164 -0.3521  0.6007
  128OSM    O1213669   5.660   1.884   6.184  0.4278 -0.1270  0.2443
  128OSM    C1S13670   5.689   1.975   6.485  0.2897 -0.0731 -0.1401
  128OSM    H1S13671   5.785   2.027   6.502  0.3610  0.4872 -2.0597
  128OSM    H1T13672   5.701   1.866   6.469 -0.4651 -0.5127  1.9090
  128OSM     NF13673   5.668   1.917   6.723 -0.2173  0.0938 -0.0413
  128OSM    HNF13674   5.625   1.833   6.757 -2.4458  0.9579 -0.5712
  128OSM    C2S13675   5.601   1.984   6.614 -0.9550  0.7077 -0.2478
  128OSM    H2S13676   5.588   2.092   6.637 -1.5709  0.6856 -0.4587
  128OSM    C3S13677   5.468   1.929   6.592  0.0117 -0.4769  0.2368
  128OSM    H3S13678   5.475   1.819   6.576 -0.0734 -0.7910  2.1214
  128OSM     O313679   5.396   1.981   6.484 -0.0537  0.3520 -0.1489
  128OSM    HO313680   5.476   2.017   6.446  0.9629  1.0649  2.4580
  128OSM    C4S13681   5.385   1.952   6.716  0.2894  0.2636  0.3529
  128OSM    H4S13682   5.381   1.859   6.773  1.1986  0.5756  0.9496
  128OSM    C5S13683   5.319   2.060   6.774 -0.3205 -0.1204 -0.1882
  128OSM    H5S13684   5.323   2.159   6.728 -0.4046  0.9133  1.9297
  128OSM    C6S13685   5.251   2.046   6.911  0.0076 -0.4708  0.1298
  128OSM    H6S13686   5.207   1.946   6.930  0.0186  0.2032  4.9103
  128OSM    H6T13687   5.161   2.108   6.927 -1.7592 -2.8336 -0.1139
  128OSM    C7S13688   5.340   2.081   7.027  0.1024  0.4231 -0.0279
  128OSM    H7S13689   5.383   2.182   7.013 -0.6885  0.4598 -2.8693
  128OSM    H7T13690   5.424   2.009   7.039  2.0698  2.5965 -0.1999
  128OSM    C8S13691   5.257   2.081   7.160  0.1394 -0.3816 -0.5755
  128OSM    H8S13692   5.184   1.999   7.172  0.4616 -0.8509 -1.7284
  128OSM    H8T13693   5.196   2.174   7.151  0.2896 -0.3552 -1.3808
  128OSM    C9S13694   5.330   2.085   7.294  0.2142 -0.3071 -0.4161
  128OSM    H9S13695   5.375   2.187   7.298  0.9418 -0.6362  0.0309
  128OSM    H9T13696   5.401   2.000   7.308  0.6258  0.3226  1.5602
  128OSM   C10S13697   5.236   2.084   7.415 -0.3008  0.8630  0.0459
  128OSM   H10S13698   5.167   1.998   7.406  2.2720 -1.2160 -1.1030
  128OSM   H10T13699   5.174   2.176   7.408  0.7163  1.5898  0.3767
  128OSM   C11S13700   5.314   2.094   7.545  0.2880  0.9723 -0.4039
  128OSM   H11S13701   5.343   2.200   7.556  0.4464  1.0494 -1.4601
  128OSM   H11T13702   5.401   2.025   7.537 -0.7648 -0.4082 -0.3417
  128OSM   C12S13703   5.242   2.051   7.676 -0.1058 -0.5729 -0.0106
  128OSM   H12S13704   5.212   1.944   7.668  0.1855 -0.8271  1.8125
  128OSM   H12T13705   5.148   2.106   7.701 -0.5560 -1.4690  0.3045
  128OSM   C13S13706   5.332   2.052   7.802 -0.4585  0.8185 -0.5088
  128OSM   H13S13707   5.369   2.155   7.823 -1.1789  0.8034  0.9881
  128OSM   H13T13708   5.426   1.998   7.777 -1.1867 -2.1510  2.4377
  128OSM   C14S13709   5.257   1.974   7.911 -0.1294  0.4408  0.4266
  128OSM   H14S13710   5.219   1.873   7.885 -0.0366  0.5010  0.0530
  128OSM   H14T13711   5.167   2.031   7.940  0.9916  2.7090 -0.3183
  128OSM   C15S13712   5.348   1.968   8.034  0.0802 -0.3861  0.4939
  128OSM   H15S13713   5.351   2.070   8.077 -0.3930 -0.5632  0.9642
  128OSM   H15T13714   5.449   1.938   7.998  0.3356  1.2963 -0.2763
  128OSM   C16S13715   5.301   1.876   8.147 -0.6917 -0.4831  0.1975
  128OSM   H16S13716   5.299   1.770   8.113 -2.5258 -0.2944 -0.3944
  128OSM   H16T13717   5.206   1.931   8.160  0.0296  0.6081  1.0518
  128OSM   C17S13718   5.399   1.897   8.264  0.2253 -0.4108  0.0475
  128OSM   H17S13719   5.391   2.002   8.300  0.3014  0.0087 -1.1216
  128OSM   H17T13720   5.498   1.859   8.231  0.8910  0.7342  0.6664
  128OSM   C18S13721   5.360   1.806   8.378 -0.1815  0.4937  0.5870
  128OSM   H18S13722   5.362   1.700   8.345  0.3682  0.8400 -0.5638
  128OSM   H18T13723   5.257   1.820   8.415 -1.0662 -1.4822 -0.9349
  128OSM   H18U13724   5.424   1.829   8.466 -0.9921 -0.5209  1.4635
  128OSM    C1F13725   5.779   1.961   6.776 -0.9739  0.1785  0.5246
  128OSM     OF13726   5.837   2.062   6.745 -0.1790 -0.1098  0.7507
  128OSM    C2F13727   5.846   1.871   6.874  0.6352  0.8342 -0.2615
  128OSM    H2F13728   5.891   1.790   6.812 -0.2312  1.0366 -1.1880
  128OSM    H2G13729   5.770   1.824   6.939  1.5069  0.2247  0.3476
  128OSM    C3F13730   5.959   1.935   6.963  0.3937  0.5448  0.3988
  128OSM    H3F13731   5.905   2.020   7.011 -1.8464 -1.4394  1.5829
  128OSM    H3G13732   6.039   1.968   6.893  0.3750 -0.8731 -0.3219
  128OSM    C4F13733   6.024   1.848   7.076  0.4855  0.1613 -0.4241
  128OSM    H4F13734   6.105   1.785   7.034  0.0067 -1.7438  1.3733
  128OSM    H4G13735   5.952   1.779   7.125  1.0509  0.5124  0.9507
  128OSM    C5F13736   6.088   1.932   7.183  0.1499  0.2979 -0.2162
  128OSM    H5F13737   6.016   1.996   7.239 -0.0170  0.4330 -0.5826
  128OSM    H5G13738   6.157   2.003   7.133 -0.5695  1.0470 -0.1556
  128OSM    C6F13739   6.176   1.851   7.286  0.1771 -0.4421  0.6321
  128OSM    H6F13740   6.257   1.789   7.241  0.3634  0.1991  0.0783
  128OSM    H6G13741   6.111   1.776   7.337  0.4705 -1.4514 -0.4455
  128OSM    C7F13742   6.229   1.944   7.395  0.0456  0.1071  0.6335
  128OSM    H7F13743   6.294   2.021   7.346  1.2866 -1.4409 -0.2500
  128OSM    H7G13744   6.305   1.882   7.447 -0.6877  1.3694  3.3651
  128OSM    C8F13745   6.126   1.992   7.507  0.9011  0.4986  0.6945
  128OSM    H8F13746   6.063   2.061   7.447  1.9839 -0.3091 -1.4592
  128OSM    H8G13747   6.174   2.042   7.594  1.2621  0.7867  0.3378
  128OSM    C9F13748   6.048   1.873   7.558  0.2174  0.6158 -0.2142
  128OSM    H9F13749   5.964   1.844   7.492 -0.3341  1.0340  0.2963
  128OSM   C10F13750   6.069   1.810   7.672 -0.2393 -0.6984  0.2416
  128OSM   H10F13751   5.996   1.739   7.715  0.3056 -1.3876  0.0559
  128OSM   C11F13752   6.188   1.842   7.764 -0.0162 -0.4924  0.9775
  128OSM   H11F13753   6.276   1.886   7.711  0.4545 -0.6971  1.5829
  128OSM   H11G13754   6.229   1.751   7.811  3.1016  0.1104 -0.2784
  128OSM   C12F13755   6.162   1.945   7.878  0.6312 -0.0758 -0.6285
  128OSM   H12F13756   6.100   1.893   7.954 -1.0659  0.6661 -1.4549
  128OSM   H12G13757   6.105   2.034   7.843  0.8349  0.9599  1.5229
  128OSM   C13F13758   6.296   1.995   7.929  0.6237  0.2143  0.1725
  128OSM   H13F13759   6.359   2.028   7.844  1.2762 -2.0436 -0.2763
  128OSM   H13G13760   6.342   1.908   7.980  1.0590  0.9462  1.0523
  128OSM   C14F13761   6.274   2.106   8.027 -0.0618  0.0729 -0.6659
  128OSM   H14F13762   6.189   2.165   7.986  0.1110 -0.5440 -1.9721
  128OSM   H14G13763   6.364   2.171   8.037 -0.5024  0.6245 -0.1863
  128OSM   C15F13764   6.240   2.049   8.165 -0.7606 -0.3459 -0.4796
  128OSM   H15F13765   6.328   1.992   8.202 -1.2178  1.1678  3.3651
  128OSM   H15G13766   6.149   1.988   8.180 -1.1930  0.5872  0.8971
  128OSM   C16F13767   6.245   2.163   8.268  0.1571  0.7489  0.4560
  128OSM   H16F13768   6.181   2.242   8.224 -1.0963 -1.6932 -2.4424
  128OSM   H16G13769   6.344   2.213   8.263 -0.0297  1.0048 -2.8303
  128OSM   C17F13770   6.195   2.120   8.412 -0.0391 -0.0602  0.5165
  128OSM   H17F13771   6.261   2.035   8.439  1.7343  1.1576  0.1843
  128OSM   H17G13772   6.089   2.089   8.401  0.0330 -1.0858  2.2356
  128OSM   C18F13773   6.209   2.230   8.516 -0.2222 -0.6467  0.1962
  128OSM   H18F13774   6.316   2.255   8.532 -0.1473 -0.4588 -0.5624
  128OSM   H18G13775   6.175   2.187   8.612  2.9449 -2.6071  0.5795
  128OSM   H18H13776   6.165   2.327   8.484  3.3853  1.2837  0.4777
  129OSM      N13777   2.881   3.172   6.413 -0.0043 -1.1692  0.7653
  129OSM    C1513778   3.006   3.131   6.486 -0.7420 -0.4587  0.2902
  129OSM   H15A13779   2.973   3.096   6.583 -1.0551 -0.7377  0.0844
  129OSM   H15B13780   3.075   3.211   6.509 -0.2265  0.2248 -3.1210
  129OSM   H15C13781   3.055   3.042   6.449  1.6162 -0.7822  3.6658
  129OSM    C1413782   2.930   3.236   6.291  0.0563  0.0891  0.2837
  129OSM   H14A13783   2.971   3.158   6.229 -2.2408  0.0112 -1.2498
  129OSM   H14B13784   2.992   3.320   6.319 -2.0296  1.7877  0.0615
  129OSM   H14C13785   2.849   3.280   6.235 -1.0376 -1.2843  0.7388
  129OSM    C1313786   2.786   3.064   6.379  0.0970 -0.2066  0.0588
  129OSM   H13A13787   2.839   2.981   6.335  0.8054 -0.4643  1.3509
  129OSM   H13B13788   2.715   3.094   6.304  2.2144  1.2945 -1.4708
  129OSM   H13C13789   2.733   3.027   6.466 -2.1426  1.2084 -0.6140
  129OSM    C1213790   2.803   3.280   6.495  0.1343 -0.1448 -0.9788
  129OSM   H12A13791   2.771   3.226   6.583 -0.7050  1.9346  0.0699
  129OSM   H12B13792   2.713   3.303   6.440 -0.9440  1.2142  1.2014
  129OSM    C1113793   2.882   3.410   6.536  0.0872  0.1408 -0.3364
  129OSM   H11A13794   2.979   3.379   6.581 -0.5982 -0.4578  0.7491
  129OSM   H11B13795   2.824   3.456   6.618 -1.9958 -2.8398  0.0092
  129OSM      P13796   2.811   3.611   6.369 -0.3236 -0.2895 -0.5281
  129OSM    O1313797   2.889   3.699   6.276 -0.5814  0.3954 -0.4562
  129OSM    O1413798   2.700   3.534   6.308  0.2772  0.3245 -0.4674
  129OSM    O1113799   2.767   3.691   6.496  0.2042  0.4776  0.0959
  129OSM    O1213800   2.910   3.503   6.427  0.6478 -0.4277 -0.4685
  129OSM    C1S13801   2.635   3.672   6.551  0.0993  0.7292 -0.5393
  129OSM    H1S13802   2.606   3.565   6.545  1.5145  0.1799  1.4710
  129OSM    H1T13803   2.558   3.734   6.499  0.1307 -0.8450 -2.5912
  129OSM     NF13804   2.528   3.675   6.762 -0.2231  0.1747  0.2571
  129OSM    HNF13805   2.459   3.746   6.776 -0.0860  0.1098  1.3039
  129OSM    C2S13806   2.643   3.721   6.691  1.0079  0.2210 -0.6427
  129OSM    H2S13807   2.729   3.670   6.739  0.6355  1.3272  1.3532
  129OSM    C3S13808   2.670   3.868   6.701 -0.2972 -0.4778 -0.7964
  129OSM    H3S13809   2.581   3.926   6.670  0.6302 -0.0888 -2.9024
  129OSM     O313810   2.770   3.926   6.621 -0.1670 -0.3307  0.0403
  129OSM    HO313811   2.809   3.857   6.567 -2.4450 -1.0905 -0.7507
  129OSM    C4S13812   2.694   3.902   6.842  0.2785 -0.3410 -0.5060
  129OSM    H4S13813   2.767   3.829   6.879  2.9309  0.6628 -3.2548
  129OSM    C5S13814   2.642   3.991   6.927  0.0842 -0.0485 -0.4055
  129OSM    H5S13815   2.558   4.049   6.884 -1.4806 -2.2935 -0.5275
  129OSM    C6S13816   2.676   4.009   7.074  0.3560 -0.2360  0.1576
  129OSM    H6S13817   2.631   3.927   7.133  0.9612 -2.1563 -1.9057
  129OSM    H6T13818   2.623   4.099   7.114 -2.0689 -2.1481  1.4998
  129OSM    C7S13819   2.824   4.010   7.114  0.0173 -0.1833 -0.3202
  129OSM    H7S13820   2.868   4.085   7.044  1.5732  1.6388  2.4129
  129OSM    H7T13821   2.870   3.910   7.098  0.1713  0.1678 -2.3456
  129OSM    C8S13822   2.856   4.058   7.259 -0.2086 -0.0881 -0.6173
  129OSM    H8S13823   2.815   4.156   7.291  0.5289 -0.7661  2.8509
  129OSM    H8T13824   2.965   4.076   7.270 -0.4040  1.3818 -0.9023
  129OSM    C9S13825   2.826   3.955   7.370  1.0093 -0.2976  0.0954
  129OSM    H9S13826   2.848   3.855   7.326 -0.5395  0.4708 -2.7204
  129OSM    H9T13827   2.717   3.944   7.385  1.4653 -2.8977  2.2257
  129OSM   C10S13828   2.908   3.968   7.496  0.3555  1.0014 -0.8784
  129OSM   H10S13829   2.941   4.074   7.494 -0.6649  1.3501 -0.2741
  129OSM   H10T13830   3.002   3.909   7.496 -0.6656 -0.7356  0.7800
  129OSM   C11S13831   2.820   3.924   7.612 -0.6846  0.1055 -0.1845
  129OSM   H11S13832   2.779   3.821   7.600 -0.1153 -0.1694  0.1702
  129OSM   H11T13833   2.733   3.993   7.611 -1.4649 -0.8266 -1.9826
  129OSM   C12S13834   2.896   3.923   7.746 -0.2096  0.2271  0.7155
  129OSM   H12S13835   2.937   4.020   7.781  0.9174 -0.6794  2.0206
  129OSM   H12T13836   2.972   3.844   7.729 -0.4497  0.1973 -0.3028
  129OSM   C13S13837   2.802   3.879   7.860  0.4651  1.0151 -0.5114
  129OSM   H13S13838   2.752   3.780   7.847 -2.8014  2.3825  0.5660
  129OSM   H13T13839   2.727   3.959   7.875 -0.4103 -0.0054  0.7522
  129OSM   C14S13840   2.863   3.866   8.001 -0.2922  0.1733 -0.4675
  129OSM   H14S13841   2.970   3.835   7.997  0.7301  3.3266 -0.9507
  129OSM   H14T13842   2.802   3.792   8.057  1.1867  0.4556  1.6186
  129OSM   C15S13843   2.857   3.999   8.078  0.1963  0.3283 -0.1845
  129OSM   H15S13844   2.749   4.021   8.091 -0.0235 -1.0908  0.6060
  129OSM   H15T13845   2.894   4.083   8.016 -0.2373  0.0710 -0.8000
  129OSM   C16S13846   2.919   3.975   8.214  0.6630  0.4213  0.3834
  129OSM   H16S13847   2.902   4.067   8.274  3.1331 -0.1928  2.1840
  129OSM   H16T13848   3.028   3.953   8.219  0.3291 -1.1746  1.1276
  129OSM   C17S13849   2.844   3.858   8.290 -0.5571 -0.0095  0.6046
  129OSM   H17S13850   2.892   3.759   8.271  0.2183  0.1590  1.5915
  129OSM   H17T13851   2.740   3.856   8.251 -0.3515 -0.3657  0.0600
  129OSM   C18S13852   2.834   3.878   8.439 -0.0136 -0.9120  0.5471
  129OSM   H18S13853   2.774   3.972   8.446  0.7552 -0.3871  0.2707
  129OSM   H18T13854   2.932   3.905   8.485 -0.1233 -0.6270  0.6170
  129OSM   H18U13855   2.792   3.789   8.489 -1.0449 -0.1775  1.0190
  129OSM    C1F13856   2.508   3.551   6.793  0.2922  0.4201  0.1205
  129OSM     OF13857   2.590   3.465   6.772  0.4088  0.2246 -0.3538
  129OSM    C2F13858   2.372   3.508   6.837  0.3711 -0.1670  0.4359
  129OSM    H2F13859   2.330   3.460   6.746  1.9318  2.4890 -1.8350
  129OSM    H2G13860   2.307   3.597   6.854 -1.3484 -1.4985  1.1848
  129OSM    C3F13861   2.369   3.415   6.955  0.5682  0.4112 -0.6808
  129OSM    H3F13862   2.444   3.333   6.949  0.3065  0.1437 -0.3969
  129OSM    H3G13863   2.266   3.373   6.967  0.4814  1.0026  0.9576
  129OSM    C4F13864   2.398   3.483   7.092 -0.1261 -0.3716 -0.0033
  129OSM    H4F13865   2.358   3.416   7.171 -2.0776  1.0520  0.2899
  129OSM    H4G13866   2.340   3.578   7.101  3.1945  1.8555 -0.2607
  129OSM    C5F13867   2.542   3.515   7.126  0.3666  0.6633  0.4998
  129OSM    H5F13868   2.572   3.607   7.072  3.7097  0.1124  1.1606
  129OSM    H5G13869   2.604   3.433   7.083 -0.2909  0.5781 -0.3150
  129OSM    C6F13870   2.580   3.517   7.280 -0.1870  0.2209 -0.2831
  129OSM    H6F13871   2.497   3.566   7.335 -0.9251 -0.0712 -1.1138
  129OSM    H6G13872   2.675   3.573   7.291 -1.1935  1.5714  2.5971
  129OSM    C7F13873   2.606   3.378   7.338 -0.2464 -0.1212 -0.2927
  129OSM    H7F13874   2.678   3.314   7.282 -0.8877 -0.1577 -1.1053
  129OSM    H7G13875   2.519   3.309   7.332  0.1852 -0.6917 -0.0720
  129OSM    C8F13876   2.634   3.376   7.487  0.2143 -0.2208 -0.1269
  129OSM    H8F13877   2.682   3.280   7.515 -0.1058 -0.4737 -0.4153
  129OSM    H8G13878   2.533   3.379   7.534  0.1082  0.1425 -0.3757
  129OSM    C9F13879   2.721   3.487   7.544 -0.3774 -0.1443 -0.4133
  129OSM    H9F13880   2.740   3.572   7.478  0.0338 -0.8863 -1.2761
  129OSM   C10F13881   2.781   3.505   7.662 -0.4009 -0.4683 -0.3652
  129OSM   H10F13882   2.841   3.596   7.676  0.0552 -0.5712 -1.5274
  129OSM   C11F13883   2.776   3.420   7.784  0.1987  0.1134 -0.0820
  129OSM   H11F13884   2.881   3.390   7.800  1.2682  0.9456 -4.2607
  129OSM   H11G13885   2.724   3.323   7.767  0.3504 -0.2014  1.1644
  129OSM   C12F13886   2.732   3.480   7.920 -0.9874  1.4275  0.4252
  129OSM   H12F13887   2.628   3.519   7.919 -1.5142  0.7817  5.0384
  129OSM   H12G13888   2.784   3.575   7.943  0.9671 -0.0728  2.6698
  129OSM   C13F13889   2.748   3.389   8.038  0.0428  0.9735 -0.6926
  129OSM   H13F13890   2.853   3.353   8.043 -0.6491 -1.5025 -2.0766
  129OSM   H13G13891   2.677   3.303   8.034 -0.9485  1.7171  0.4073
  129OSM   C14F13892   2.715   3.452   8.172 -0.3081  0.0956  0.1791
  129OSM   H14F13893   2.611   3.490   8.163 -0.1308  1.1631  2.1498
  129OSM   H14G13894   2.771   3.548   8.177  1.6790 -0.9741 -0.2292
  129OSM   C15F13895   2.726   3.370   8.300  0.4840 -0.3184  0.5891
  129OSM   H15F13896   2.827   3.328   8.321 -0.0380 -0.8012  2.4142
  129OSM   H15G13897   2.655   3.285   8.291  0.1539  0.0975 -0.8319
  129OSM   C16F13898   2.667   3.452   8.421  0.1208  0.0267  0.6519
  129OSM   H16F13899   2.565   3.479   8.387  0.2349 -0.2164  0.1214
  129OSM   H16G13900   2.716   3.550   8.441 -1.4274  1.4694 -2.0810
  129OSM   C17F13901   2.660   3.366   8.546  0.0943  0.1678  0.5086
  129OSM   H17F13902   2.761   3.355   8.592  0.2901  4.5406  1.4879
  129OSM   H17G13903   2.629   3.263   8.516  2.0543 -0.2419 -0.3185
  129OSM   C18F13904   2.572   3.424   8.651  1.2762  0.0027 -0.1147
  129OSM   H18F13905   2.588   3.532   8.671  0.1261  0.5031 -1.7194
  129OSM   H18G13906   2.573   3.362   8.743  1.9545  1.0247  0.5864
  129OSM   H18H13907   2.470   3.421   8.607  0.7777 -2.4451  0.9985
  130OSM      N13908   6.535   0.127   5.790  0.0221  0.2807 -0.0369
  130OSM    C1513909   6.433   0.204   5.699  0.2268  0.0182 -0.7005
  130OSM   H15A13910   6.418   0.307   5.728  1.4062  0.0153 -0.0226
  130OSM   H15B13911   6.335   0.159   5.708  0.1941  0.2685  0.3733
  130OSM   H15C13912   6.463   0.200   5.596  0.0648  0.4142 -0.7639
  130OSM    C1413913   6.542  -0.012   5.736 -0.0792 -0.1298 -0.4377
  130OSM   H14A13914   6.445  -0.051   5.711 -0.0643  1.1596 -2.7776
  130OSM   H14B13915   6.596  -0.085   5.795  0.1665 -0.8869 -1.5643
  130OSM   H14C13916   6.602  -0.014   5.647 -0.1043 -1.8905 -0.4487
  130OSM    C1313917   6.668   0.205   5.793 -0.1156  0.2678  0.3622
  130OSM   H13A13918   6.735   0.147   5.856  0.3820 -0.7804 -1.0880
  130OSM   H13B13919   6.658   0.305   5.834 -2.7031  1.2111 -2.2338
  130OSM   H13C13920   6.705   0.216   5.693  1.8438  0.7197  1.0843
  130OSM    C1213921   6.470   0.120   5.930 -0.3583  0.2361 -0.2172
  130OSM   H12A13922   6.535   0.055   5.988 -3.7828 -2.4641  0.9636
  130OSM   H12B13923   6.374   0.070   5.922 -0.7033  1.0918 -1.6248
  130OSM    C1113924   6.435   0.250   6.012 -0.0698  0.3783  0.1779
  130OSM   H11A13925   6.425   0.225   6.120  1.4871 -1.4075 -0.0391
  130OSM   H11B13926   6.329   0.269   5.987  0.1477 -0.9501 -1.9528
  130OSM      P13927   6.641   0.401   6.085 -0.2182 -0.2835  0.1904
  130OSM    O1313928   6.747   0.300   6.071  0.2506  0.7357 -0.4469
  130OSM    O1413929   6.670   0.540   6.055  0.0538  0.1388 -0.4127
  130OSM    O1113930   6.578   0.387   6.230 -0.2719 -0.0187 -0.3944
  130OSM    O1213931   6.516   0.366   5.992  0.4110  0.1897  0.3380
  130OSM    C1S13932   6.603   0.272   6.312  0.0737  0.3321 -0.5070
  130OSM    H1S13933   6.712   0.257   6.327 -0.0432  1.5384  2.0491
  130OSM    H1T13934   6.562   0.171   6.288  0.8716  0.5992 -3.3987
  130OSM     NF13935   6.593   0.201   6.548  0.3008  0.6645  0.2041
  130OSM    HNF13936   6.535   0.120   6.558 -0.0174  1.1366  2.7508
  130OSM    C2S13937   6.546   0.304   6.454 -0.1517  0.2988 -0.3232
  130OSM    H2S13938   6.577   0.403   6.495 -2.9050  1.0819  0.0844
  130OSM    C3S13939   6.386   0.312   6.442 -0.1067 -0.6461 -0.4481
  130OSM    H3S13940   6.349   0.221   6.389 -4.1851 -0.1145  1.1437
  130OSM     O313941   6.349   0.413   6.353 -0.2787 -0.3470  0.5567
  130OSM    HO313942   6.427   0.412   6.297 -0.0366 -2.8744  0.8219
  130OSM    C4S13943   6.317   0.318   6.575 -0.0759  0.0357 -0.4448
  130OSM    H4S13944   6.297   0.229   6.636  2.3466  1.6102  2.9581
  130OSM    C5S13945   6.273   0.427   6.651 -1.0000  0.2404 -0.8473
  130OSM    H5S13946   6.283   0.531   6.614 -1.3281  0.3593 -0.6071
  130OSM    C6S13947   6.205   0.426   6.786  0.1581 -0.2698 -0.8070
  130OSM    H6S13948   6.147   0.332   6.801 -0.0578 -0.2822 -1.6515
  130OSM    H6T13949   6.125   0.503   6.784  1.1412  0.7885 -3.2260
  130OSM    C7S13950   6.315   0.444   6.902  0.4282  0.3651 -0.1586
  130OSM    H7S13951   6.254   0.465   6.992 -1.1453  1.7846 -1.4878
  130OSM    H7T13952   6.365   0.539   6.873 -0.7714  1.1098  0.1170
  130OSM    C8S13953   6.400   0.318   6.922 -0.3993  0.5278 -0.9462
  130OSM    H8S13954   6.403   0.268   6.823 -2.2623  0.9451 -1.2388
  130OSM    H8T13955   6.348   0.254   6.996  1.2126 -1.0351 -1.1139
  130OSM    C9S13956   6.542   0.365   6.971 -0.5894  0.1432  0.3434
  130OSM    H9S13957   6.594   0.441   6.909 -0.1994  2.0306  2.8608
  130OSM    H9T13958   6.605   0.274   6.980  0.9235  1.2794  1.6478
  130OSM   C10S13959   6.547   0.421   7.118 -0.5159  0.3333 -0.2956
  130OSM   H10S13960   6.501   0.521   7.132  2.5221  1.9070 -0.5968
  130OSM   H10T13961   6.653   0.427   7.151 -0.7815  0.9824  0.4669
  130OSM   C11S13962   6.489   0.326   7.212 -0.3345  0.1500 -0.1393
  130OSM   H11S13963   6.525   0.222   7.196  0.0285 -0.1303  2.1430
  130OSM   H11T13964   6.378   0.320   7.205 -0.2441 -1.4162 -0.7766
  130OSM   C12S13965   6.512   0.363   7.365  0.1603 -0.5178  0.3634
  130OSM   H12S13966   6.463   0.461   7.384  0.0027 -0.4711 -0.2559
  130OSM   H12T13967   6.619   0.385   7.383 -0.5871  3.4619  0.7923
  130OSM   C13S13968   6.473   0.253   7.458 -0.6363  0.0362 -0.1480
  130OSM   H13S13969   6.496   0.149   7.427 -2.1619 -0.4877  0.4097
  130OSM   H13T13970   6.364   0.246   7.476 -0.9290  4.0830  0.7214
  130OSM   C14S13971   6.544   0.268   7.595  0.2879 -0.2543  0.1440
  130OSM   H14S13972   6.653   0.289   7.584 -0.0319  0.2064 -3.0215
  130OSM   H14T13973   6.519   0.178   7.654 -0.2367  1.4984  2.7479
  130OSM   C15S13974   6.496   0.392   7.665 -0.6765  0.1699 -0.7330
  130OSM   H15S13975   6.396   0.365   7.705 -0.1334 -0.3916  0.2809
  130OSM   H15T13976   6.483   0.480   7.599 -0.3847  1.0274  0.3138
  130OSM   C16S13977   6.581   0.429   7.788 -0.6932 -0.5228  0.2635
  130OSM   H16S13978   6.537   0.525   7.823  0.8198 -0.0763  1.0491
  130OSM   H16T13979   6.683   0.460   7.755 -0.7121 -0.1535  0.5320
  130OSM   C17S13980   6.588   0.336   7.914  0.7905  0.2296  0.2847
  130OSM   H17S13981   6.652   0.251   7.882  2.3522  3.0485 -5.4852
  130OSM   H17T13982   6.483   0.315   7.945  0.5240  0.4873 -0.4058
  130OSM   C18S13983   6.671   0.388   8.035  0.0633 -0.1305 -0.3636
  130OSM   H18S13984   6.615   0.453   8.105  2.5836  0.2869  1.4149
  130OSM   H18T13985   6.767   0.430   7.999  0.8884 -0.5556  1.2652
  130OSM   H18U13986   6.700   0.303   8.101  3.1160 -1.0590 -2.6203
  130OSM    C1F13987   6.718   0.186   6.595  0.7699  0.7933  0.0054
  130OSM     OF13988   6.804   0.273   6.595 -0.4075 -0.3132  0.2438
  130OSM    C2F13989   6.757   0.044   6.638 -0.6749  0.0523  0.5037
  130OSM    H2F13990   6.847   0.051   6.702 -0.6194  0.8409  0.3499
  130OSM    H2G13991   6.793  -0.004   6.545 -1.5369  0.0804  0.1503
  130OSM    C3F13992   6.648  -0.043   6.714  0.8912  0.1772 -0.6330
  130OSM    H3F13993   6.679  -0.149   6.706  0.3214  0.0815 -1.7322
  130OSM    H3G13994   6.547  -0.035   6.669 -0.1264 -1.1309  1.2763
  130OSM    C4F13995   6.635   0.002   6.860  0.1061  0.0676 -0.3200
  130OSM    H4F13996   6.559   0.083   6.864  2.4716  2.4471 -0.7041
  130OSM    H4G13997   6.731   0.041   6.900 -0.4261 -0.1708  1.2722
  130OSM    C5F13998   6.583  -0.107   6.954 -0.1011  0.3045  0.2641
  130OSM    H5F13999   6.674  -0.166   6.978 -1.4548 -1.9221  0.1137
  130OSM    H5G14000   6.518  -0.170   6.891  2.1717 -1.2115 -0.7121
  130OSM    C6F14001   6.534  -0.056   7.093 -0.9387 -0.3741  0.4034
  130OSM    H6F14002   6.454   0.014   7.062  0.8764  0.9903 -1.5111
  130OSM    H6G14003   6.606   0.005   7.151 -1.8120 -0.2190  1.3496
  130OSM    C7F14004   6.483  -0.171   7.176  0.0863  0.2689 -0.0635
  130OSM    H7F14005   6.559  -0.252   7.172 -1.8797 -1.6090 -1.3810
  130OSM    H7G14006   6.400  -0.208   7.113  1.3471  0.2674 -1.8000
  130OSM    C8F14007   6.448  -0.130   7.318  0.4265  0.4868 -0.3488
  130OSM    H8F14008   6.365  -0.056   7.312 -0.2888 -0.1173  1.5505
  130OSM    H8G14009   6.537  -0.080   7.362  1.2393 -2.4773  1.6355
  130OSM    C9F14010   6.397  -0.244   7.404  0.1489 -0.5946 -0.1336
  130OSM    H9F14011   6.332  -0.318   7.355 -2.4529  0.8872  0.8974
  130OSM   C10F14012   6.408  -0.263   7.540 -0.0171  0.3180  0.0258
  130OSM   H10F14013   6.367  -0.357   7.578  0.3446 -1.1105 -2.7931
  130OSM   C11F14014   6.484  -0.168   7.637  0.2472 -0.3724 -0.0414
  130OSM   H11F14015   6.412  -0.132   7.714  0.6352  1.5229 -0.5219
  130OSM   H11G14016   6.521  -0.074   7.592 -0.7155 -0.3643 -0.8622
  130OSM   C12F14017   6.601  -0.232   7.708  0.2620  0.6436 -0.1948
  130OSM   H12F14018   6.670  -0.280   7.635 -1.4226 -2.6776  0.1967
  130OSM   H12G14019   6.561  -0.323   7.759  0.3847 -0.0966 -1.3702
  130OSM   C13F14020   6.653  -0.148   7.826  0.2867  0.1890 -0.2439
  130OSM   H13F14021   6.568  -0.111   7.888  1.4702  0.5403  1.2237
  130OSM   H13G14022   6.707  -0.061   7.782 -0.7493  0.4048 -1.1305
  130OSM   C14F14023   6.753  -0.217   7.917 -0.4501  0.2423 -0.7281
  130OSM   H14F14024   6.835  -0.267   7.862  0.7454 -1.0889  2.0590
  130OSM   H14G14025   6.696  -0.298   7.966  0.0303  0.3335 -0.0066
  130OSM   C15F14026   6.803  -0.125   8.021 -0.6650 -0.0186 -0.6164
  130OSM   H15F14027   6.721  -0.069   8.072  0.3123  1.6102 -0.7447
  130OSM   H15G14028   6.870  -0.053   7.969 -1.0931  1.1906  0.4401
  130OSM   C16F14029   6.900  -0.194   8.119  0.1920 -0.0630  0.0596
  130OSM   H16F14030   6.974  -0.231   8.045 -1.5994  0.9474 -2.3820
  130OSM   H16G14031   6.839  -0.276   8.161 -1.0065 -0.4908 -2.3291
  130OSM   C17F14032   6.956  -0.112   8.239 -0.7142  0.2195 -0.4921
  130OSM   H17F14033   6.877  -0.055   8.292 -1.1163 -0.2395 -0.5945
  130OSM   H17G14034   7.028  -0.045   8.187 -0.2809 -0.1859 -0.4249
  130OSM   C18F14035   7.039  -0.195   8.333 -0.5023  0.0045 -0.7140
  130OSM   H18F14036   6.968  -0.269   8.376  0.2704 -0.8825 -0.9227
  130OSM   H18G14037   7.071  -0.137   8.423  1.9508  1.5579 -2.4640
  130OSM   H18H14038   7.124  -0.248   8.284  2.1986 -0.0560  3.4610
  131OSM      N14039   1.977   5.528   5.997 -0.0992 -0.1123  0.2485
  131OSM    C1514040   1.993   5.649   5.911  0.2591  0.2375 -0.6498
  131OSM   H15A14041   1.933   5.651   5.821 -0.6824  1.1572 -0.0249
  131OSM   H15B14042   2.095   5.670   5.884  0.5216  1.7093  1.3176
  131OSM   H15C14043   1.968   5.740   5.962  0.0955  0.4833 -1.1600
  131OSM    C1414044   1.827   5.498   6.004 -0.7896  0.5214 -0.2013
  131OSM   H14A14045   1.769   5.573   6.056  0.0360  1.4760 -0.6136
  131OSM   H14B14046   1.811   5.399   6.043  1.8421  0.4016  0.7242
  131OSM   H14C14047   1.782   5.491   5.905  2.1139 -1.7830 -1.4919
  131OSM    C1314048   2.038   5.415   5.925 -0.2640 -0.4211 -0.0705
  131OSM   H13A14049   2.142   5.440   5.911 -0.5251  1.1249  0.5186
  131OSM   H13B14050   1.981   5.395   5.836  1.8730 -1.2978 -1.3011
  131OSM   H13C14051   2.036   5.327   5.987  1.4491  0.6860  1.6837
  131OSM    C1214052   2.027   5.547   6.139  0.6302 -0.4073 -1.1903
  131OSM   H12A14053   1.973   5.633   6.177  0.7387 -0.2111 -1.4758
  131OSM   H12B14054   2.131   5.573   6.143  0.0493  2.0160  0.4395
  131OSM    C1114055   2.013   5.425   6.239  0.7735 -0.1042  0.2555
  131OSM   H11A14056   1.907   5.420   6.269  1.2983 -2.0062  1.9802
  131OSM   H11B14057   2.071   5.451   6.330  1.1581 -0.3043  0.0701
  131OSM      P14058   2.222   5.267   6.195  0.3417  0.3273 -0.4355
  131OSM    O1314059   2.244   5.119   6.165  0.2593 -0.5610  0.8553
  131OSM    O1414060   2.289   5.364   6.110  0.4080  0.3283 -0.1286
  131OSM    O1114061   2.270   5.280   6.344 -0.5310 -0.4680 -0.2277
  131OSM    O1214062   2.063   5.299   6.191  0.0688  0.7498 -0.1066
  131OSM    C1S14063   2.216   5.182   6.436 -0.1896 -0.2142 -0.9926
  131OSM    H1S14064   2.273   5.089   6.415 -0.2239 -0.5236  0.2315
  131OSM    H1T14065   2.108   5.156   6.436 -0.3722  0.4712  0.4772
  131OSM     NF14066   2.180   5.135   6.679  0.4814  0.1851  0.8042
  131OSM    HNF14067   2.106   5.169   6.736 -1.1812  1.2876 -1.8296
  131OSM    C2S14068   2.242   5.229   6.588 -0.0840  0.0966 -0.0581
  131OSM    H2S14069   2.352   5.224   6.603  0.1246  1.2289 -1.0284
  131OSM    C3S14070   2.205   5.379   6.607  0.4180 -0.0710 -0.4344
  131OSM    H3S14071   2.095   5.398   6.608  0.6625  1.4614  0.1703
  131OSM     O314072   2.261   5.470   6.509 -0.4396 -0.9103  0.0164
  131OSM    HO314073   2.313   5.415   6.449  1.5333 -1.0387  1.7100
  131OSM    C4S14074   2.249   5.414   6.746 -0.4930 -0.1667  0.2119
  131OSM    H4S14075   2.178   5.365   6.814 -2.5433  0.1733 -1.5855
  131OSM    C5S14076   2.352   5.492   6.785 -0.1704 -0.6477  0.2852
  131OSM    H5S14077   2.398   5.557   6.709 -1.9166  1.6304  1.0807
  131OSM    C6S14078   2.395   5.523   6.927  0.3532 -0.9803 -0.0567
  131OSM    H6S14079   2.335   5.615   6.945 -1.1673 -1.6284 -1.6464
  131OSM    H6T14080   2.502   5.550   6.943 -0.2543  1.3270  0.6295
  131OSM    C7S14081   2.352   5.410   7.028  0.4144 -0.0963 -0.8113
  131OSM    H7S14082   2.408   5.316   7.008 -0.6829 -1.1308  0.7731
  131OSM    H7T14083   2.244   5.386   7.020  0.2915 -0.1573  0.7459
  131OSM    C8S14084   2.405   5.455   7.164  0.2587 -0.1770  0.4979
  131OSM    H8S14085   2.516   5.465   7.161  0.3876 -0.8172 -3.6731
  131OSM    H8T14086   2.378   5.375   7.236  0.1500 -1.1605 -0.6092
  131OSM    C9S14087   2.333   5.583   7.211 -0.4108  0.3862 -0.1873
  131OSM    H9S14088   2.245   5.606   7.147 -0.5056 -1.4491 -0.7548
  131OSM    H9T14089   2.401   5.668   7.188  1.6399 -1.3248 -0.6542
  131OSM   C10S14090   2.275   5.566   7.347  0.0795  0.3720 -0.3563
  131OSM   H10S14091   2.362   5.553   7.415  1.0973 -1.6947 -1.9457
  131OSM   H10T14092   2.219   5.470   7.353 -1.3909  1.2653  0.9205
  131OSM   C11S14093   2.192   5.680   7.409 -0.2655 -0.5440 -0.0408
  131OSM   H11S14094   2.087   5.660   7.378 -0.1204 -0.0660 -0.8714
  131OSM   H11T14095   2.235   5.770   7.360 -1.4837  0.3768  0.5217
  131OSM   C12S14096   2.217   5.712   7.559 -0.1341 -0.0247  0.0371
  131OSM   H12S14097   2.180   5.809   7.598 -0.2957 -0.2963  0.5657
  131OSM   H12T14098   2.328   5.713   7.569  0.1394  2.6419 -2.1741
  131OSM   C13S14099   2.157   5.595   7.646 -0.1435  0.1040  0.6458
  131OSM   H13S14100   2.219   5.503   7.636 -0.5741  0.0558 -2.6435
  131OSM   H13T14101   2.056   5.580   7.603  0.5009 -0.9619 -0.5694
  131OSM   C14S14102   2.136   5.647   7.788 -0.5392  0.6187  0.0936
  131OSM   H14S14103   2.093   5.561   7.844 -0.6101  0.3564 -0.3601
  131OSM   H14T14104   2.065   5.732   7.785 -1.0283  0.1810 -1.2915
  131OSM   C15S14105   2.270   5.682   7.860  0.1869  0.0686  0.0478
  131OSM   H15S14106   2.315   5.770   7.809  1.5833 -0.3107  0.5691
  131OSM   H15T14107   2.338   5.595   7.848  0.5320  0.1668  1.1650
  131OSM   C16S14108   2.258   5.711   8.009 -0.1287 -0.0157 -0.2179
  131OSM   H16S14109   2.187   5.790   8.040 -2.4573 -2.0638 -0.0519
  131OSM   H16T14110   2.355   5.751   8.047 -0.2795  0.8411 -0.7172
  131OSM   C17S14111   2.233   5.590   8.102 -0.3226  0.5106  0.0059
  131OSM   H17S14112   2.245   5.499   8.040  0.1612  1.7160 -1.7696
  131OSM   H17T14113   2.128   5.595   8.139 -0.3177 -2.3612  0.5996
  131OSM   C18S14114   2.327   5.578   8.225 -0.2597  0.6797 -0.0017
  131OSM   H18S14115   2.416   5.514   8.205 -1.6570 -0.9260 -1.3456
  131OSM   H18T14116   2.273   5.510   8.294  0.4517 -2.2948 -2.1787
  131OSM   H18U14117   2.343   5.675   8.276 -1.2764 -0.2037  2.1227
  131OSM    C1F14118   2.211   5.005   6.678  0.7035 -0.5299  0.6709
  131OSM     OF14119   2.314   4.962   6.622  0.2039 -0.2473  0.0810
  131OSM    C2F14120   2.112   4.923   6.752  0.1363 -0.4725  0.4490
  131OSM    H2F14121   2.048   4.869   6.679 -1.1532  3.0052 -1.2043
  131OSM    H2G14122   2.041   4.984   6.811  0.8865  0.7254  0.1546
  131OSM    C3F14123   2.180   4.817   6.841 -0.1814  0.1571  0.2923
  131OSM    H3F14124   2.234   4.746   6.774 -2.4960 -3.1603  1.6986
  131OSM    H3G14125   2.105   4.758   6.898 -1.8545  1.9388  0.0478
  131OSM    C4F14126   2.276   4.873   6.941 -0.7799 -0.0390 -0.0888
  131OSM    H4F14127   2.371   4.897   6.888  0.8652 -2.8544  1.3543
  131OSM    H4G14128   2.316   4.792   7.006 -0.1919  2.2246  2.5592
  131OSM    C5F14129   2.231   4.985   7.033 -0.3460  0.3066  0.4307
  131OSM    H5F14130   2.238   5.076   6.969  2.2296 -0.4880 -0.5689
  131OSM    H5G14131   2.301   4.988   7.119  0.5034  0.0202 -0.2334
  131OSM    C6F14132   2.102   4.949   7.110  0.2712 -0.1924  0.0547
  131OSM    H6F14133   2.017   4.917   7.047  0.4591  0.9644 -0.8070
  131OSM    H6G14134   2.069   5.043   7.159 -1.7524  0.1424 -1.7951
  131OSM    C7F14135   2.121   4.838   7.213  0.0229  0.4959  0.8771
  131OSM    H7F14136   2.192   4.870   7.293  0.7058 -0.7822  0.8182
  131OSM    H7G14137   2.168   4.751   7.161 -1.3667 -0.7866  1.6964
  131OSM    C8F14138   1.982   4.808   7.286 -0.1791  0.1178  0.3854
  131OSM    H8F14139   1.909   4.787   7.205  0.8867  1.2958 -0.9475
  131OSM    H8G14140   1.950   4.899   7.341 -1.1646 -1.0721  1.8298
  131OSM    C9F14141   2.006   4.690   7.376  0.5056 -0.0424  0.2331
  131OSM    H9F14142   2.000   4.592   7.328 -0.4437  0.6499 -1.1023
  131OSM   C10F14143   2.028   4.693   7.507  0.3440 -0.1028 -0.0929
  131OSM   H10F14144   2.058   4.599   7.555  1.1038 -0.4217 -1.1483
  131OSM   C11F14145   2.042   4.821   7.593 -0.5202 -0.7259  0.3694
  131OSM   H11F14146   1.950   4.851   7.648 -0.1844 -1.2391  1.2407
  131OSM   H11G14147   2.081   4.905   7.532 -1.6479  0.3368  1.0557
  131OSM   C12F14148   2.154   4.799   7.697 -0.6683  0.4173  0.4506
  131OSM   H12F14149   2.176   4.899   7.740  0.7526  0.6403 -0.7169
  131OSM   H12G14150   2.250   4.756   7.662  0.9033  3.0614  1.2034
  131OSM   C13F14151   2.112   4.711   7.824  0.7377  0.7425  0.1541
  131OSM   H13F14152   2.098   4.606   7.792  0.5840  0.8353 -0.0844
  131OSM   H13G14153   2.013   4.743   7.862  1.5069  1.8612  1.3521
  131OSM   C14F14154   2.226   4.707   7.921 -0.2867  0.4651  0.4042
  131OSM   H14F14155   2.255   4.813   7.931  1.5725 -0.1316  1.9144
  131OSM   H14G14156   2.308   4.647   7.876 -0.3210 -0.2326  1.2455
  131OSM   C15F14157   2.200   4.633   8.055 -0.5400  0.3369 -0.6312
  131OSM   H15F14158   2.294   4.636   8.114 -0.9216  1.1006 -0.0381
  131OSM   H15G14159   2.176   4.526   8.040  3.2595 -0.7645 -0.0203
  131OSM   C16F14160   2.089   4.705   8.136  0.1167  0.4231  0.0164
  131OSM   H16F14161   2.000   4.709   8.070  0.8367  0.8015 -0.9582
  131OSM   H16G14162   2.126   4.810   8.143  1.1565  0.0755 -0.0221
  131OSM   C17F14163   2.050   4.654   8.278 -0.1553  0.1457  0.0498
  131OSM   H17F14164   1.980   4.568   8.276 -1.1480  0.9270 -1.9891
  131OSM   H17G14165   1.996   4.733   8.335  1.4460  1.2276  0.1171
  131OSM   C18F14166   2.165   4.609   8.370  0.9614 -0.1443  0.4883
  131OSM   H18F14167   2.121   4.561   8.460 -0.6977  1.5248  0.6319
  131OSM   H18G14168   2.230   4.690   8.409  1.5863 -0.9564  1.1569
  131OSM   H18H14169   2.238   4.540   8.324 -1.2869 -2.6649  0.4850
  132OSM      N14170   5.267   4.955   6.256 -0.5343  0.5582 -0.2386
  132OSM    C1514171   5.169   4.891   6.166  0.4790  0.5375 -0.6797
  132OSM   H15A14172   5.170   4.913   6.060 -0.4801  0.0525 -0.7968
  132OSM   H15B14173   5.068   4.916   6.195  0.2312 -0.2667 -0.8071
  132OSM   H15C14174   5.186   4.784   6.169  0.0682  0.4997  0.8228
  132OSM    C1414175   5.413   4.942   6.218  0.6540  0.2108  0.8712
  132OSM   H14A14176   5.478   5.015   6.265  3.3996 -0.0915 -2.1607
  132OSM   H14B14177   5.420   4.952   6.111  2.5273  2.2088  1.1111
  132OSM   H14C14178   5.444   4.844   6.249 -0.2137 -0.3459  0.0254
  132OSM    C1314179   5.229   5.104   6.237  0.0535  0.7387  0.1147
  132OSM   H13A14180   5.292   5.166   6.299 -0.6724  1.3332  0.2743
  132OSM   H13B14181   5.130   5.127   6.271 -0.4616 -1.8885  0.6129
  132OSM   H13C14182   5.228   5.140   6.135 -1.5440 -0.3877 -0.3010
  132OSM    C1214183   5.240   4.910   6.399 -0.3548 -0.8960  0.2807
  132OSM   H12A14184   5.133   4.904   6.412 -0.3917 -0.9875 -0.0579
  132OSM   H12B14185   5.270   4.990   6.465 -0.0438 -0.6166 -0.1876
  132OSM    C1114186   5.304   4.786   6.453  0.0512  0.3139 -0.5199
  132OSM   H11A14187   5.267   4.774   6.557  2.8203  0.7299  0.5755
  132OSM   H11B14188   5.414   4.795   6.458 -0.0384  1.6087 -0.3704
  132OSM      P14189   5.344   4.547   6.369  0.2263 -0.0744  0.2882
  132OSM    O1314190   5.266   4.436   6.313  0.1605  0.6375  0.0257
  132OSM    O1414191   5.472   4.576   6.299 -0.0423  0.0175  0.2248
  132OSM    O1114192   5.370   4.508   6.526 -0.1685  0.2164  0.0542
  132OSM    O1214193   5.253   4.669   6.378 -0.1470 -0.5515  0.3914
  132OSM    C1S14194   5.252   4.491   6.613 -0.4657 -0.5243 -0.2886
  132OSM    H1S14195   5.203   4.396   6.582 -1.4420 -0.7743  1.8365
  132OSM    H1T14196   5.176   4.570   6.597  0.1226 -0.3899 -2.8308
  132OSM     NF14197   5.172   4.450   6.839  0.4780  0.0307  0.2913
  132OSM    HNF14198   5.130   4.521   6.896  0.7674 -1.8749  3.0765
  132OSM    C2S14199   5.293   4.479   6.764 -0.0000 -0.1334 -0.3521
  132OSM    H2S14200   5.362   4.393   6.774  1.5161  1.2941  2.5665
  132OSM    C3S14201   5.373   4.599   6.812  0.0759 -0.5717  0.2039
  132OSM    H3S14202   5.324   4.696   6.789 -1.1453 -1.2125  0.0338
  132OSM     O314203   5.505   4.609   6.751  0.8610 -0.2480 -0.3222
  132OSM    HO314204   5.496   4.561   6.669  2.7375 -0.5665 -0.3865
  132OSM    C4S14205   5.387   4.596   6.959 -0.0744 -0.5557 -0.2371
  132OSM    H4S14206   5.307   4.656   7.005 -0.4190 -1.6245  0.5651
  132OSM    C5S14207   5.483   4.550   7.032 -0.2100 -0.3588  0.1928
  132OSM    H5S14208   5.572   4.509   6.983  0.6954  0.6346  0.9377
  132OSM    C6S14209   5.502   4.572   7.176 -0.1263  0.5613 -0.2543
  132OSM    H6S14210   5.581   4.646   7.202 -0.1802 -0.1778  2.2878
  132OSM    H6T14211   5.525   4.472   7.219  1.1706  0.6003 -0.8224
  132OSM    C7S14212   5.375   4.615   7.259  0.0964 -0.2323  0.3143
  132OSM    H7S14213   5.310   4.525   7.261  0.3522 -0.5476 -2.4541
  132OSM    H7T14214   5.315   4.698   7.214  0.7602  0.0348 -0.0942
  132OSM    C8S14215   5.404   4.645   7.405  0.7376  0.5009  0.4201
  132OSM    H8S14216   5.312   4.689   7.450 -0.3247 -1.1052 -0.0958
  132OSM    H8T14217   5.483   4.721   7.420  2.8799 -1.8091  1.4294
  132OSM    C9S14218   5.414   4.527   7.499  0.2207 -0.4765  0.0178
  132OSM    H9S14219   5.491   4.450   7.478  1.6453  0.1051  2.6538
  132OSM    H9T14220   5.318   4.474   7.480 -0.6963  0.5948  1.4418
  132OSM   C10S14221   5.409   4.565   7.647  0.4696 -0.1330 -0.0577
  132OSM   H10S14222   5.338   4.649   7.662  1.0202  0.2120  0.6587
  132OSM   H10T14223   5.507   4.611   7.671 -0.0166  0.9313 -0.0660
  132OSM   C11S14224   5.397   4.448   7.741 -0.0715 -0.8244  0.5513
  132OSM   H11S14225   5.468   4.365   7.723 -1.2496 -1.6812 -0.3462
  132OSM   H11T14226   5.308   4.390   7.708 -0.1822  0.4701 -1.6677
  132OSM   C12S14227   5.392   4.485   7.890 -0.2142 -0.4701 -0.0990
  132OSM   H12S14228   5.287   4.511   7.914  0.0991  0.8792 -0.0836
  132OSM   H12T14229   5.452   4.576   7.909 -0.3486 -0.6665  1.3800
  132OSM   C13S14230   5.433   4.372   7.982 -0.2973  0.5353 -0.7200
  132OSM   H13S14231   5.523   4.317   7.945 -2.0238  0.0803 -4.7255
  132OSM   H13T14232   5.351   4.297   7.988  1.6091 -1.5643  2.2514
  132OSM   C14S14233   5.447   4.413   8.132  0.0716  0.3854 -0.0721
  132OSM   H14S14234   5.530   4.486   8.143  0.6031  0.0986 -1.9242
  132OSM   H14T14235   5.480   4.322   8.186  2.0470  0.1671 -1.5392
  132OSM   C15S14236   5.321   4.474   8.195  0.3425 -0.4760  0.3601
  132OSM   H15S14237   5.236   4.412   8.161  1.1522 -0.7409 -1.2808
  132OSM   H15T14238   5.303   4.576   8.153  1.2844  0.0984  1.2946
  132OSM   C16S14239   5.335   4.484   8.344 -0.2746  0.0917  0.0762
  132OSM   H16S14240   5.256   4.554   8.382 -0.3901  0.1246 -0.2254
  132OSM   H16T14241   5.435   4.524   8.370 -0.6071  0.8870  0.1560
  132OSM   C17S14242   5.306   4.360   8.431  0.2115 -0.3371 -0.2887
  132OSM   H17S14243   5.331   4.379   8.537 -0.1272  1.0108 -0.4319
  132OSM   H17T14244   5.377   4.280   8.399  1.5105  0.2285  1.0596
  132OSM   C18S14245   5.160   4.313   8.416  0.6856  0.1239  0.2486
  132OSM   H18S14246   5.159   4.268   8.315  1.9277  0.0248  0.2601
  132OSM   H18T14247   5.083   4.393   8.425  2.2605  1.6340  1.0183
  132OSM   H18U14248   5.139   4.233   8.490  0.8507  1.8260  2.2314
  132OSM    C1F14249   5.122   4.331   6.839 -0.2940 -0.3523  0.1141
  132OSM     OF14250   5.195   4.239   6.800  0.0581  0.2085 -0.2391
  132OSM    C2F14251   4.980   4.312   6.891 -0.3817 -0.1640  0.2941
  132OSM    H2F14252   4.909   4.308   6.806 -2.5443 -0.0646  2.0104
  132OSM    H2G14253   4.954   4.400   6.952  1.2796  0.0277  0.7674
  132OSM    C3F14254   4.979   4.186   6.972  0.4646  0.4551  0.5462
  132OSM    H3F14255   5.077   4.184   7.025  0.7207  0.3615  0.0737
  132OSM    H3G14256   4.984   4.093   6.911 -1.7412  0.0378  0.9155
  132OSM    C4F14257   4.861   4.152   7.059 -0.4919  0.3278  0.4106
  132OSM    H4F14258   4.841   4.044   7.044  0.5964  0.0836  0.6004
  132OSM    H4G14259   4.768   4.201   7.023 -1.4252  0.2618  2.5721
  132OSM    C5F14260   4.884   4.172   7.213  0.1738 -0.3698  0.2418
  132OSM    H5F14261   4.900   4.281   7.228  0.5909 -0.4899  0.6663
  132OSM    H5G14262   4.975   4.114   7.238  0.8502  0.9362  0.9386
  132OSM    C6F14263   4.775   4.107   7.292 -0.2462 -0.0769 -0.1812
  132OSM    H6F14264   4.814   4.010   7.329  0.0811  0.4524  0.9153
  132OSM    H6G14265   4.685   4.081   7.233 -1.2016  0.8290  0.8275
  132OSM    C7F14266   4.713   4.189   7.408  0.5601 -0.3955 -0.2531
  132OSM    H7F14267   4.658   4.280   7.374  1.5060  0.7634  1.1618
  132OSM    H7G14268   4.802   4.240   7.451  1.7329  2.6459 -5.4553
  132OSM    C8F14269   4.623   4.101   7.499  0.5871  0.1445 -0.5424
  132OSM    H8F14270   4.565   4.034   7.432 -0.9852  2.7402 -1.9259
  132OSM    H8G14271   4.556   4.168   7.556  1.4809  0.7462 -0.1695
  132OSM    C9F14272   4.697   4.009   7.594 -0.3556  0.6102  0.0434
  132OSM    H9F14273   4.779   3.952   7.547 -0.1145  1.6949 -0.8937
  132OSM   C10F14274   4.703   4.017   7.727  0.1365  0.4143 -0.2184
  132OSM   H10F14275   4.749   3.932   7.781  0.4383 -0.3558 -1.6278
  132OSM   C11F14276   4.633   4.113   7.817  0.8429 -0.2762 -0.1656
  132OSM   H11F14277   4.617   4.212   7.769 -2.1399 -0.3063  0.6076
  132OSM   H11G14278   4.697   4.154   7.898  1.2349  0.6031 -0.9070
  132OSM   C12F14279   4.503   4.067   7.871 -0.1676 -0.4245  0.5517
  132OSM   H12F14280   4.423   4.058   7.795  1.4161  0.3857 -1.3062
  132OSM   H12G14281   4.460   4.145   7.937  1.0293 -0.4547  1.3935
  132OSM   C13F14282   4.520   3.927   7.931  0.1094 -0.2709  1.5182
  132OSM   H13F14283   4.612   3.919   7.993 -0.2442 -1.6074  1.9152
  132OSM   H13G14284   4.529   3.855   7.846 -0.1764  2.7123 -1.2125
  132OSM   C14F14285   4.413   3.881   8.033 -0.6805 -0.1274 -0.0746
  132OSM   H14F14286   4.423   3.776   8.068  1.6233  0.3738  0.9099
  132OSM   H14G14287   4.316   3.896   7.980  0.6945  1.5522 -2.2532
  132OSM   C15F14288   4.411   3.969   8.156 -0.2290 -0.3451  0.5065
  132OSM   H15F14289   4.349   4.061   8.149 -2.5290 -1.6803  2.0071
  132OSM   H15G14290   4.515   3.993   8.185 -0.1330  2.9355 -2.0198
  132OSM   C16F14291   4.349   3.906   8.282  0.0565 -0.9597 -0.0375
  132OSM   H16F14292   4.370   3.990   8.351  0.1688  1.4519 -2.8041
  132OSM   H16G14293   4.407   3.813   8.304  1.0891 -0.0565  1.1727
  132OSM   C17F14294   4.206   3.873   8.266 -0.2051  0.5134  0.1655
  132OSM   H17F14295   4.193   3.834   8.163 -4.1155  0.1033  0.6667
  132OSM   H17G14296   4.145   3.963   8.287 -1.2488 -0.1110 -0.1222
  132OSM   C18F14297   4.169   3.761   8.359 -0.8358 -0.0362  0.3413
  132OSM   H18F14298   4.062   3.731   8.356 -0.9086  0.0921  1.4757
  132OSM   H18G14299   4.195   3.791   8.463 -0.8110  1.3359 -0.0401
  132OSM   H18H14300   4.228   3.672   8.329 -0.9662 -0.1903  0.5382
  133SAPE     N14301   0.338   0.071  11.154 -0.3385  0.7226  0.5619
  133SAPE   HN114302   0.330   0.051  11.256  0.0812  0.4202  0.5401
  133SAPE   HN214303   0.252   0.124  11.129 -0.3077  0.3586 -0.3799
  133SAPE   HN314304   0.323  -0.020  11.105 -0.2548  0.3560  1.2034
  133SAPE   C1214305   0.467   0.134  11.105 -0.2561 -0.3389  0.7035
  133SAPE  H12A14306   0.546   0.062  11.136 -0.1407 -0.3734  0.3352
  133SAPE  H12B14307   0.480   0.228  11.162  0.1499 -0.7023  1.2249
  133SAPE   C1114308   0.478   0.151  10.950  0.5171 -0.4864 -0.3051
  133SAPE  H11A14309   0.407   0.233  10.926 -0.1069 -0.8380  0.2885
  133SAPE  H11B14310   0.436   0.065  10.893 -0.5842 -1.5015  1.8977
  133SAPE     P14311   0.712   0.077  10.866 -0.1794  0.2570 -0.1525
  133SAPE   O1314312   0.843   0.144  10.840  0.0973  0.1633 -0.1071
  133SAPE   O1414313   0.711  -0.022  10.973  0.0633  0.0651  0.1538
  133SAPE   O1214314   0.609   0.182  10.899  0.4699 -0.5339 -0.2835
  133SAPE   O1114315   0.662   0.002  10.739  0.3553 -0.0327 -0.3296
  133SAPE    C114316   0.627   0.067  10.617  0.0944  0.1488 -0.0147
  133SAPE    HA14317   0.521   0.050  10.589 -0.4105  4.1457 -1.1318
  133SAPE    HB14318   0.648   0.176  10.612  0.9582 -0.0762 -2.2659
  133SAPE    C214319   0.722   0.014  10.506  0.6677 -0.1288 -0.1770
  133SAPE    HS14320   0.782   0.099  10.466  0.1751  0.5178  0.4318
  133SAPE   O2114321   0.659  -0.062  10.409 -0.2574  0.2020  0.1284
  133SAPE   C2114322   0.595   0.020  10.328  0.6302 -1.1188  0.3792
  133SAPE   O2214323   0.579   0.141  10.347  0.1587  0.2726 -0.6848
  133SAPE   C2214324   0.549  -0.062  10.204  0.1657  0.1633 -0.8368
  133SAPE   H2R14325   0.470  -0.132  10.239 -1.2526  1.9270 -0.3539
  133SAPE   H2S14326   0.510   0.012  10.130  0.3718  1.9151  0.7179
  133SAPE    C314327   0.837  -0.075  10.567 -0.9915 -0.1928  0.1447
  133SAPE    HX14328   0.787  -0.167  10.604 -1.0240  0.3573  1.5273
  133SAPE    HY14329   0.892  -0.012  10.641 -0.3561  0.9229 -1.2472
  133SAPE   O3114330   0.935  -0.119  10.468 -0.1409 -0.2963  0.0217
  133SAPE   C3114331   0.978  -0.249  10.470  0.5364  0.4012 -0.5569
  133SAPE   O3214332   0.952  -0.327  10.565  0.3327 -0.3512  0.2241
  133SAPE   C3214333   1.056  -0.285  10.348 -0.1712 -0.2355  0.5936
  133SAPE   H2X14334   1.161  -0.309  10.375 -0.2523  0.3397  1.4573
  133SAPE   H2Y14335   1.062  -0.191  10.289  1.6535 -1.3700 -1.1066
  133SAPE   C2314336   0.658  -0.153  10.159  0.1560 -0.4212  0.7356
  133SAPE   H3R14337   0.602  -0.226  10.096 -1.3189 -0.9488  2.5704
  133SAPE   H3S14338   0.708  -0.222  10.231  3.3256  0.7914 -0.1435
  133SAPE   C2414339   0.769  -0.084  10.076 -0.7257 -0.1021  0.5615
  133SAPE   H4R14340   0.832  -0.173  10.054 -1.0419 -0.5857  1.5421
  133SAPE   H4S14341   0.830  -0.020  10.143 -0.0816  3.0378 -2.7166
  133SAPE   C2514342   0.723  -0.016   9.952  0.1365 -0.2095  0.4959
  133SAPE   H5R14343   0.670   0.080   9.966 -3.9116 -1.9488 -1.3590
  133SAPE   C2614344   0.722  -0.070   9.823 -0.0721 -0.5171 -0.6474
  133SAPE   H6R14345   0.672  -0.019   9.740 -1.9181 -1.8890 -0.4396
  133SAPE   C2714346   0.774  -0.208   9.783  0.5045 -0.4708  0.0845
  133SAPE   H7R14347   0.687  -0.269   9.749 -0.5059  0.8730  0.1848
  133SAPE   H7S14348   0.806  -0.263   9.874 -2.9307  0.3528  1.9270
  133SAPE   C2814349   0.872  -0.206   9.676  0.4428  0.8641 -0.4370
  133SAPE   H8R14350   0.972  -0.210   9.722  0.6610  2.4190 -0.6899
  133SAPE   C2914351   0.864  -0.214   9.547  0.7532 -0.5204  0.5103
  133SAPE   H9R14352   0.954  -0.201   9.485 -0.5474  0.4184 -1.2902
  133SAPE  C21014353   0.736  -0.227   9.460 -0.6709 -0.0267 -0.8058
  133SAPE  H10R14354   0.712  -0.130   9.411 -0.9434  2.0463  3.0273
  133SAPE  H10S14355   0.654  -0.266   9.524 -0.3111 -1.2305 -1.0621
  133SAPE  C21114356   0.773  -0.328   9.352 -0.0722  0.3132 -0.4222
  133SAPE  H11R14357   0.755  -0.431   9.386 -1.4172  1.3804  2.3713
  133SAPE  C21214358   0.808  -0.311   9.225  0.2681  0.1156 -0.2934
  133SAPE  H12R14359   0.826  -0.394   9.156 -0.2637 -0.0149 -0.2837
  133SAPE  C21314360   0.819  -0.174   9.145  0.3249  0.3576  0.4516
  133SAPE  H13R14361   0.924  -0.155   9.113  0.9969  1.0021  2.8477
  133SAPE  H13S14362   0.810  -0.089   9.215  0.4555 -0.6106  1.6744
  133SAPE  C21414363   0.717  -0.158   9.037 -0.5240 -0.5557 -0.2110
  133SAPE  H14R14364   0.615  -0.128   9.067 -0.3875  1.2582 -1.3575
  133SAPE  C21514365   0.733  -0.165   8.909  0.1673 -0.0380  0.5237
  133SAPE  H15R14366   0.653  -0.140   8.838  0.8885  0.0133 -0.2940
  133SAPE  C21614367   0.860  -0.185   8.835  0.1585 -0.4355 -0.3815
  133SAPE  H16R14368   0.934  -0.242   8.896  0.2622  1.4753  1.3973
  133SAPE  H16S14369   0.908  -0.088   8.811  2.0608 -1.4093 -0.7260
  133SAPE  C21714370   0.832  -0.242   8.692 -0.6942 -0.1150  0.5157
  133SAPE  H17R14371   0.751  -0.191   8.635 -0.7986 -1.3602 -0.4885
  133SAPE  H17S14372   0.803  -0.349   8.697 -2.0205 -0.0186 -2.8678
  133SAPE  C21814373   0.959  -0.232   8.607  0.1078 -0.3818  0.7042
  133SAPE  H18R14374   1.039  -0.276   8.670  1.0242 -0.3243 -0.3992
  133SAPE  H18S14375   0.993  -0.127   8.592  0.2231 -0.2258  1.9291
  133SAPE  C21914376   0.941  -0.305   8.471 -0.5681 -0.7606  0.0148
  133SAPE  H19R14377   0.894  -0.404   8.488  0.5670 -1.0347  1.9706
  133SAPE  H19S14378   1.046  -0.330   8.443 -0.0244  2.3542 -1.1015
  133SAPE  C22014379   0.870  -0.223   8.364 -0.2925 -0.8531 -1.0525
  133SAPE  H20R14380   0.921  -0.125   8.349 -1.9368  0.1359 -0.4641
  133SAPE  H20S14381   0.763  -0.215   8.390  0.3971 -0.8181  2.2389
  133SAPE  H20T14382   0.872  -0.275   8.266  0.5742  0.0804 -1.5506
  133SAPE   C3314383   0.993  -0.384  10.243 -0.7120  0.8123 -0.1562
  133SAPE   H3X14384   0.895  -0.336  10.221 -1.0031 -0.0156 -0.7153
  133SAPE   H3Y14385   0.975  -0.487  10.281 -0.7608  1.4089  1.4743
  133SAPE   C3414386   1.078  -0.391  10.116  0.4755  0.2128  0.0330
  133SAPE   H4X14387   1.180  -0.406  10.158 -0.5254 -1.5697  1.9991
  133SAPE   H4Y14388   1.066  -0.298  10.056 -1.3542 -0.1190 -0.1606
  133SAPE   C3514389   1.036  -0.506  10.018  0.5142 -0.0844  0.2950
  133SAPE   H5X14390   0.932  -0.473   9.997  0.8111  2.6338  2.5026
  133SAPE   H5Y14391   1.037  -0.606  10.067  0.0448 -0.4477 -0.4189
  133SAPE   C3614392   1.134  -0.522   9.900  0.1932 -0.1899 -1.0617
  133SAPE   H6X14393   1.211  -0.597   9.931  2.2580  1.4279 -1.9930
  133SAPE   H6Y14394   1.187  -0.424   9.893 -1.6906  1.1713  1.7815
  133SAPE   C3714395   1.070  -0.563   9.770  0.7985  0.0151  0.7786
  133SAPE   H7X14396   1.014  -0.471   9.743 -1.2696 -1.3990  0.0471
  133SAPE   H7Y14397   0.986  -0.632   9.791 -0.2050  1.0296  0.2318
  133SAPE   C3814398   1.174  -0.598   9.671  0.2203  1.0203  0.0071
  133SAPE   H8X14399   1.248  -0.674   9.703  2.5250  2.2282 -2.0784
  133SAPE   H8Y14400   1.235  -0.507   9.650  1.8076  0.5780  2.3482
  133SAPE   C3914401   1.101  -0.642   9.542 -0.4115  0.2228  0.2870
  133SAPE   H9X14402   0.996  -0.606   9.541  0.4414  3.0835 -2.0552
  133SAPE   H9Y14403   1.103  -0.753   9.545 -1.1284  0.1553 -0.8032
  133SAPE  C31014404   1.168  -0.594   9.412  0.3510 -0.2972  0.5168
  133SAPE  H10X14405   1.133  -0.652   9.323 -1.0688  2.1309 -0.6100
  133SAPE  H10Y14406   1.278  -0.602   9.420  0.4901 -1.1030 -1.6558
  133SAPE  C31114407   1.137  -0.449   9.392 -0.0849  0.0367  0.1588
  133SAPE  H11X14408   1.193  -0.374   9.453 -1.5468  1.6690 -0.4322
  133SAPE  H11Y14409   1.027  -0.437   9.406 -0.1693  0.2037 -0.6421
  133SAPE  C31214410   1.175  -0.386   9.253  0.0521 -0.0550 -0.7354
  133SAPE  H12X14411   1.150  -0.278   9.262  0.8292 -0.0280  2.6685
  133SAPE  H12Y14412   1.115  -0.432   9.172  0.8147 -2.3272 -0.0827
  133SAPE  C31314413   1.322  -0.387   9.211 -0.0495  0.0218 -0.2696
  133SAPE  H13X14414   1.360  -0.491   9.197 -1.8740 -0.3146 -3.7110
  133SAPE  H13Y14415   1.370  -0.338   9.298 -3.5320  0.7414  1.4031
  133SAPE  C31414416   1.331  -0.308   9.085 -0.0239 -0.4961  0.8881
  133SAPE  H14X14417   1.328  -0.201   9.112 -1.8765 -0.1715 -0.4307
  133SAPE  H14Y14418   1.247  -0.328   9.016  1.0472 -1.7711 -0.1264
  133SAPE  C31514419   1.459  -0.334   8.997 -0.4399  0.2301 -0.4917
  133SAPE  H15X14420   1.451  -0.397   8.906  4.0192  0.8419 -1.5283
  133SAPE  H15Y14421   1.529  -0.394   9.058  0.3813  1.2458 -0.4184
  133SAPE  C31614422   1.529  -0.206   8.955 -0.5152  0.3062 -0.6529
  133SAPE  H16X14423   1.577  -0.157   9.042 -3.0121  2.3655 -0.2986
  133SAPE  H16Y14424   1.461  -0.130   8.910  0.1501  1.1102 -0.3213
  133SAPE  C31714425   1.642  -0.243   8.847  0.7239 -0.5845  0.1923
  133SAPE  H17X14426   1.591  -0.310   8.775 -0.7979 -0.3851  1.0617
  133SAPE  H17Y14427   1.719  -0.288   8.913 -0.5281  0.5369  2.5214
  133SAPE  C31814428   1.693  -0.130   8.762  0.0476  0.6292 -0.0580
  133SAPE  H18X14429   1.755  -0.063   8.827 -1.8358  0.2505  2.2546
  133SAPE  H18Y14430   1.603  -0.079   8.724  0.0412  2.0681  1.7404
  133SAPE  H18Z14431   1.749  -0.164   8.672 -0.5046  2.5207 -1.1806
  134SAPE     N14432   5.124   0.855  10.361  0.6479  0.1870 -0.1175
  134SAPE   HN114433   5.176   0.904  10.285 -0.1497  1.1325 -0.0679
  134SAPE   HN214434   5.185   0.784  10.406 -0.6290 -2.0512 -1.6901
  134SAPE   HN314435   5.037   0.802  10.338  0.2399  0.0834  1.5947
  134SAPE   C1214436   5.087   0.951  10.465  0.0809  0.1856  0.8574
  134SAPE  H12A14437   5.022   1.030  10.422 -0.1310  0.2035  1.2127
  134SAPE  H12B14438   5.181   0.999  10.501  0.7314 -0.8807  0.6328
  134SAPE   C1114439   5.014   0.881  10.573 -0.0762 -0.1528 -0.2833
  134SAPE  H11A14440   4.986   0.963  10.642 -0.7061  2.3230 -3.2112
  134SAPE  H11B14441   5.085   0.811  10.621  1.3803 -0.2938 -2.5036
  134SAPE     P14442   4.762   0.816  10.579 -0.1947 -0.4163  0.6096
  134SAPE   O1314443   4.689   0.692  10.547 -0.1868  0.6415 -0.8559
  134SAPE   O1414444   4.787   0.848  10.722  0.3652  0.2817  0.6840
  134SAPE   O1214445   4.909   0.808  10.513  0.2313  0.3091 -0.3298
  134SAPE   O1114446   4.695   0.946  10.514  0.3085  0.3166 -0.9581
  134SAPE    C114447   4.629   0.930  10.386  0.1899 -0.7423 -0.2575
  134SAPE    HA14448   4.583   0.832  10.361  0.8744 -1.6372  1.7447
  134SAPE    HB14449   4.541   0.998  10.385  1.1348  0.5159 -0.0056
  134SAPE    C214450   4.721   0.981  10.272  0.7046  0.3848  0.0590
  134SAPE    HS14451   4.802   0.905  10.279  1.1899  0.7627 -1.1591
  134SAPE   O2114452   4.770   1.112  10.291 -1.1785 -0.2721 -0.1394
  134SAPE   C2114453   4.883   1.141  10.216 -0.1995  1.0267 -0.0587
  134SAPE   O2214454   4.949   1.050  10.162 -0.5518 -0.2704 -0.4693
  134SAPE   C2214455   4.912   1.287  10.216 -0.1445  0.3020 -0.1836
  134SAPE   H2R14456   4.816   1.341  10.218 -0.3396  0.1933 -2.6543
  134SAPE   H2S14457   4.984   1.315  10.296  0.7356  0.0045 -0.8468
  134SAPE    C314458   4.647   0.968  10.136 -0.1726 -0.2389 -0.2504
  134SAPE    HX14459   4.574   1.051  10.124  1.1349  1.0775  0.5619
  134SAPE    HY14460   4.581   0.879  10.149 -0.2329  0.0774  2.2778
  134SAPE   O3114461   4.732   0.978  10.019 -0.1237  0.4820 -0.2504
  134SAPE   C3114462   4.781   0.855   9.987  0.3911 -0.4853  1.1330
  134SAPE   O3214463   4.754   0.751  10.045 -0.2916 -0.0137  0.0905
  134SAPE   C3214464   4.885   0.876   9.878 -0.1245 -0.2400  0.2365
  134SAPE   H2X14465   4.968   0.936   9.921 -0.5770 -0.3378  1.2733
  134SAPE   H2Y14466   4.844   0.941   9.798  0.6603  1.4612  1.1531
  134SAPE   C2314467   5.003   1.327  10.094 -0.1586 -0.1138  0.0693
  134SAPE   H3R14468   5.069   1.244  10.060  0.3247  0.9195 -1.6051
  134SAPE   H3S14469   5.065   1.416  10.117 -2.3747  1.6943 -0.5144
  134SAPE   C2414470   4.925   1.383   9.980  0.4102  0.6270  0.2223
  134SAPE   H4R14471   5.000   1.446   9.929 -0.5530 -0.4757 -2.7805
  134SAPE   H4S14472   4.844   1.450  10.015 -0.6614  0.3061 -1.5128
  134SAPE   C2514473   4.869   1.268   9.890 -0.2111  0.7744  0.1016
  134SAPE   H5R14474   4.780   1.211   9.920 -0.3539  0.5901 -0.6535
  134SAPE   C2614475   4.929   1.230   9.772  0.3188  0.0077  0.1129
  134SAPE   H6R14476   4.874   1.151   9.719 -1.8494 -0.1683  2.4022
  134SAPE   C2714477   5.043   1.305   9.715 -0.3274 -0.7117  0.0711
  134SAPE   H7R14478   5.104   1.236   9.653  2.3080 -0.5880  2.3349
  134SAPE   H7S14479   5.111   1.342   9.794 -0.5302  1.9284 -0.8837
  134SAPE   C2814480   5.004   1.422   9.629  0.4831  0.3809  0.2594
  134SAPE   H8R14481   4.966   1.507   9.687  0.2604 -0.6441  1.6545
  134SAPE   C2914482   4.996   1.441   9.499  0.3591 -0.2595  0.8806
  134SAPE   H9R14483   4.970   1.542   9.464  0.7899  0.1713  1.7731
  134SAPE  C21014484   5.045   1.332   9.395  0.6473  0.3383  0.0371
  134SAPE  H10R14485   5.024   1.231   9.437  2.1347 -0.4030 -0.9365
  134SAPE  H10S14486   5.156   1.335   9.399  0.6933  1.4235 -1.2416
  134SAPE  C21114487   4.986   1.352   9.253 -1.0317  0.0131 -0.2470
  134SAPE  H11R14488   4.880   1.323   9.250 -0.5396 -1.9722  0.1089
  134SAPE  C21214489   5.051   1.394   9.145  0.0670 -0.1923 -0.1245
  134SAPE  H12R14490   4.999   1.409   9.049 -0.8524  3.2855  0.7863
  134SAPE  C21314491   5.203   1.419   9.147  1.0669 -0.0171 -0.4136
  134SAPE  H13R14492   5.222   1.489   9.231  3.1836 -0.5748 -0.3725
  134SAPE  H13S14493   5.230   1.474   9.054 -1.4437  2.4537  0.1500
  134SAPE  C21414494   5.295   1.308   9.166  0.2009  0.3935 -0.2425
  134SAPE  H14R14495   5.321   1.291   9.271 -1.1228 -0.8281 -0.0920
  134SAPE  C21514496   5.344   1.217   9.081 -0.0921 -0.7337 -0.3808
  134SAPE  H15R14497   5.405   1.133   9.119 -0.4485 -2.0277 -2.5039
  134SAPE  C21614498   5.328   1.205   8.931 -0.2731 -0.2000  0.6324
  134SAPE  H16R14499   5.422   1.198   8.872 -0.1539 -0.8674  0.8876
  134SAPE  H16S14500   5.274   1.295   8.896 -0.5760  0.8891  3.5982
  134SAPE  C21714501   5.266   1.067   8.894 -0.6744 -0.4948  0.1534
  134SAPE  H17R14502   5.166   1.086   8.938  0.5025  0.3201  2.7087
  134SAPE  H17S14503   5.305   0.984   8.956 -0.6507 -0.8002 -0.2707
  134SAPE  C21814504   5.247   1.034   8.745  0.2993  0.9847  0.3777
  134SAPE  H18R14505   5.210   1.127   8.695 -0.1548  0.6109  0.0122
  134SAPE  H18S14506   5.166   0.959   8.747 -2.4065  3.6444 -1.0055
  134SAPE  C21914507   5.372   0.987   8.677 -0.2212 -0.3005 -0.0867
  134SAPE  H19R14508   5.407   0.907   8.746 -1.0948 -0.6120  0.0141
  134SAPE  H19S14509   5.447   1.068   8.689 -0.7539  0.6536 -2.5570
  134SAPE  C22014510   5.364   0.940   8.533  0.5116 -1.0246  0.0578
  134SAPE  H20R14511   5.459   0.891   8.504  1.3040 -0.1872  1.1628
  134SAPE  H20S14512   5.350   1.021   8.458 -0.1779 -2.5562 -1.5244
  134SAPE  H20T14513   5.280   0.869   8.516 -1.1871  1.3584 -2.3937
  134SAPE   C3314514   4.945   0.749   9.816  0.0499  1.0030  0.3972
  134SAPE   H3X14515   4.958   0.659   9.880  1.2080  0.8598 -0.0119
  134SAPE   H3Y14516   5.047   0.778   9.781  0.6305  0.0859  1.2769
  134SAPE   C3414517   4.872   0.711   9.693 -0.3796 -0.3984  0.2175
  134SAPE   H4X14518   4.918   0.625   9.640  2.1344  0.1999  1.2753
  134SAPE   H4Y14519   4.871   0.801   9.628 -1.2837 -0.8723 -0.4430
  134SAPE   C3514520   4.725   0.654   9.724 -0.1469 -0.0679  0.2313
  134SAPE   H5X14521   4.665   0.736   9.767 -1.2083 -1.3859  1.3807
  134SAPE   H5Y14522   4.730   0.567   9.793  1.0038 -1.1565 -1.1552
  134SAPE   C3614523   4.655   0.600   9.595 -0.3511  0.0487 -0.2385
  134SAPE   H6X14524   4.552   0.562   9.613  0.5260 -1.7125  1.2489
  134SAPE   H6Y14525   4.718   0.514   9.566  0.2531 -0.2213  1.7523
  134SAPE   C3714526   4.637   0.706   9.483  0.1452 -0.3505 -0.1289
  134SAPE   H7X14527   4.624   0.809   9.523  4.1548  0.1346  0.3263
  134SAPE   H7Y14528   4.543   0.671   9.436  0.9278 -3.6616  0.5284
  134SAPE   C3814529   4.736   0.708   9.372 -0.0665 -0.4835 -0.6763
  134SAPE   H8X14530   4.722   0.635   9.290 -0.0654 -0.4928 -0.6690
  134SAPE   H8Y14531   4.831   0.676   9.420 -0.5409 -0.9767 -0.0492
  134SAPE   C3914532   4.764   0.848   9.314  0.5320 -0.1424  0.1188
  134SAPE   H9X14533   4.787   0.903   9.408 -1.7311 -0.8943  1.1652
  134SAPE   H9Y14534   4.669   0.891   9.276  0.5492 -0.5581 -0.4105
  134SAPE  C31014535   4.866   0.869   9.206  0.3035  0.1198  0.9154
  134SAPE  H10X14536   4.861   0.966   9.153  0.8379 -1.2174 -1.7174
  134SAPE  H10Y14537   4.843   0.793   9.128 -0.0100  1.6602 -0.5425
  134SAPE  C31114538   5.011   0.833   9.246 -0.2888 -0.2466  0.0627
  134SAPE  H11X14539   5.081   0.859   9.163  2.0560  0.0785  2.0246
  134SAPE  H11Y14540   5.028   0.726   9.267  0.8120  0.0921  0.9879
  134SAPE  C31214541   5.057   0.911   9.368  0.5080  0.1980  0.4523
  134SAPE  H12X14542   4.994   0.877   9.454 -2.5554  1.1034 -1.2902
  134SAPE  H12Y14543   5.029   1.017   9.352 -0.2336 -0.2787 -1.7424
  134SAPE  C31314544   5.208   0.883   9.398 -0.9645 -0.1326  0.2205
  134SAPE  H13X14545   5.266   0.923   9.312  1.2139 -0.1619  1.6060
  134SAPE  H13Y14546   5.220   0.773   9.396 -2.0568 -0.2569 -0.7984
  134SAPE  C31414547   5.264   0.952   9.521  0.2369  0.1488  0.3267
  134SAPE  H14X14548   5.207   0.913   9.607  0.0416 -0.6139 -0.1409
  134SAPE  H14Y14549   5.243   1.061   9.524  4.0656  1.2140 -2.3627
  134SAPE  C31514550   5.414   0.922   9.548 -0.0167  0.0603 -0.4555
  134SAPE  H15X14551   5.447   0.982   9.635 -1.1652 -0.4353  0.3488
  134SAPE  H15Y14552   5.472   0.951   9.458 -0.5459 -0.1532 -0.8700
  134SAPE  C31614553   5.449   0.780   9.590 -0.0552  0.6871 -0.0814
  134SAPE  H16X14554   5.560   0.773   9.589  0.1291  1.8933  2.6159
  134SAPE  H16Y14555   5.400   0.715   9.515 -3.1377  0.4246  1.9924
  134SAPE  C31714556   5.398   0.743   9.733  0.0067  0.7740 -0.2158
  134SAPE  H17X14557   5.287   0.752   9.733 -0.2689 -1.8119  1.0239
  134SAPE  H17Y14558   5.431   0.812   9.813 -2.6754  1.5822  0.2985
  134SAPE  C31814559   5.430   0.601   9.793  0.1249  0.2273 -0.1804
  134SAPE  H18X14560   5.390   0.511   9.740 -0.4537 -0.0041  0.6313
  134SAPE  H18Y14561   5.410   0.585   9.901  1.9892  0.1235  0.1847
  134SAPE  H18Z14562   5.541   0.590   9.789  0.1611  0.6490 -0.4579
  135SAPE     N14563   4.227   6.477  10.678  0.4398 -0.3980 -0.3432
  135SAPE   HN114564   4.307   6.410  10.681 -1.7978 -3.2550 -0.5218
  135SAPE   HN214565   4.185   6.485  10.583 -0.3714  2.3530  0.1620
  135SAPE   HN314566   4.254   6.570  10.717  1.2174 -1.7095  2.5569
  135SAPE   C1214567   4.120   6.418  10.770 -0.9372  0.3035  0.3443
  135SAPE  H12A14568   4.072   6.497  10.832  0.9892  2.3430 -0.5664
  135SAPE  H12B14569   4.173   6.344  10.833 -0.0128  0.3056 -0.4126
  135SAPE   C1114570   4.013   6.340  10.687 -0.3333 -0.5324 -0.2857
  135SAPE  H11A14571   3.982   6.413  10.610 -1.9549 -1.2054 -0.3112
  135SAPE  H11B14572   3.922   6.313  10.744 -1.2460  2.4405 -0.1495
  135SAPE     P14573   4.050   6.085  10.656 -0.2894 -0.2216 -0.5249
  135SAPE   O1314574   4.118   6.055  10.786 -0.5208 -0.6793 -0.0731
  135SAPE   O1414575   3.902   6.056  10.644  0.0473 -0.3025 -0.2274
  135SAPE   O1214576   4.077   6.239  10.624 -0.1049  0.1683 -0.1001
  135SAPE   O1114577   4.126   6.020  10.534 -0.6572  0.2987 -0.5535
  135SAPE    C114578   4.109   6.037  10.397 -0.3573  0.3965  0.4341
  135SAPE    HA14579   4.153   5.951  10.342 -2.0710 -0.2911  0.0401
  135SAPE    HB14580   4.001   6.032  10.370  0.1129 -1.3288 -1.4286
  135SAPE    C214581   4.155   6.167  10.339  0.2686 -0.2805 -0.6470
  135SAPE    HS14582   4.083   6.236  10.388  0.6955  0.1849 -0.6694
  135SAPE   O2114583   4.140   6.163  10.196 -0.2578 -0.2456  0.1605
  135SAPE   C2114584   4.113   6.278  10.136  1.2656  0.3974 -0.8382
  135SAPE   O2214585   4.079   6.378  10.192 -0.4763  0.2810  0.1481
  135SAPE   C2214586   4.124   6.259   9.994 -0.2596 -0.8704  0.4706
  135SAPE   H2R14587   4.195   6.330   9.947  0.5202 -3.4934 -2.6649
  135SAPE   H2S14588   4.150   6.158   9.956  0.5418  0.2139 -2.0603
  135SAPE    C314589   4.300   6.202  10.390  0.0602  0.5741  0.3556
  135SAPE    HX14590   4.351   6.104  10.404 -0.7192  0.3762  2.0500
  135SAPE    HY14591   4.275   6.240  10.491 -0.6120 -0.4219  0.5804
  135SAPE   O3114592   4.379   6.290  10.309 -0.1102  0.3110 -0.3574
  135SAPE   C3114593   4.350   6.422  10.327  0.3192 -0.0941  0.0365
  135SAPE   O3214594   4.262   6.462  10.401 -0.3781 -0.4983  0.0398
  135SAPE   C3214595   4.466   6.501  10.269 -0.8950 -0.0414  0.0376
  135SAPE   H2X14596   4.487   6.457  10.169 -4.5217 -1.5319 -0.2509
  135SAPE   H2Y14597   4.548   6.485  10.341  0.3660  4.5040 -0.0769
  135SAPE   C2314598   3.989   6.275   9.911 -0.3194  0.2775 -0.9850
  135SAPE   H3R14599   3.951   6.376   9.936  0.0010  0.0930  0.3394
  135SAPE   H3S14600   3.911   6.216   9.963  1.2959 -0.0838  1.1966
  135SAPE   C2414601   3.997   6.260   9.758 -0.4012 -0.0477  0.1691
  135SAPE   H4R14602   4.072   6.180   9.741 -0.7474 -0.7896  1.9006
  135SAPE   H4S14603   4.047   6.350   9.715 -2.7922  1.9508  1.3213
  135SAPE   C2514604   3.864   6.231   9.690 -0.8834  0.5766 -0.2210
  135SAPE   H5R14605   3.809   6.143   9.728  1.1297  0.1179  1.8724
  135SAPE   C2614606   3.817   6.288   9.576  0.4993 -0.5847 -0.3814
  135SAPE   H6R14607   3.725   6.250   9.530  1.3582 -1.3539 -1.5237
  135SAPE   C2714608   3.894   6.395   9.499 -0.3162  0.0707  0.3188
  135SAPE   H7R14609   4.004   6.399   9.515 -0.4195  3.8110  1.0731
  135SAPE   H7S14610   3.848   6.494   9.518  1.8640  1.0692  0.6746
  135SAPE   C2814611   3.878   6.355   9.352 -0.2660  0.2052 -0.0682
  135SAPE   H8R14612   3.915   6.256   9.322  0.0765  0.7670 -1.5527
  135SAPE   C2914613   3.824   6.429   9.258 -0.8509 -0.7677  0.2939
  135SAPE   H9R14614   3.803   6.387   9.158 -3.0624  4.1622 -1.6240
  135SAPE  C21014615   3.764   6.575   9.265  0.0018  0.5315  0.3431
  135SAPE  H10R14616   3.849   6.646   9.253  0.5702 -0.1401  0.3132
  135SAPE  H10S14617   3.714   6.596   9.362 -1.0635  1.3566 -0.3669
  135SAPE  C21114618   3.659   6.593   9.163  0.3194 -0.4477  0.4229
  135SAPE  H11R14619   3.564   6.540   9.182 -0.9829  1.3334 -0.9003
  135SAPE  C21214620   3.669   6.668   9.051 -0.2155 -0.5943  0.0418
  135SAPE  H12R14621   3.578   6.676   8.991  0.8204  2.9241 -1.3268
  135SAPE  C21314622   3.785   6.747   9.003 -0.2518 -0.5444 -0.1288
  135SAPE  H13R14623   3.878   6.687   9.010 -0.7310 -1.5481 -1.9844
  135SAPE  H13S14624   3.795   6.842   9.061  0.2565 -0.4461 -0.3788
  135SAPE  C21414625   3.786   6.798   8.867  0.2591 -0.2629  0.0440
  135SAPE  H14R14626   3.878   6.771   8.812  0.9897 -0.3257  1.2776
  135SAPE  C21514627   3.697   6.886   8.806 -0.0752  0.6364 -0.6584
  135SAPE  H15R14628   3.695   6.901   8.697 -0.3306  2.2312 -0.4591
  135SAPE  C21614629   3.571   6.940   8.871  0.2435  0.2044 -0.2385
  135SAPE  H16R14630   3.578   6.926   8.981 -0.8839 -0.6308 -0.2569
  135SAPE  H16S14631   3.481   6.886   8.835  1.2802 -1.8239  0.1234
  135SAPE  C21714632   3.530   7.090   8.862  0.9741 -0.1118  0.1798
  135SAPE  H17R14633   3.616   7.154   8.889  0.4749  0.2937  0.8317
  135SAPE  H17S14634   3.445   7.111   8.930  0.0719 -0.5092 -0.7959
  135SAPE  C21814635   3.470   7.132   8.727  1.2467  0.4181  0.2048
  135SAPE  H18R14636   3.420   7.229   8.743 -0.2737  0.3115 -3.1179
  135SAPE  H18S14637   3.393   7.058   8.696  1.9646 -0.3033  0.0936
  135SAPE  C21914638   3.575   7.147   8.618 -0.4593 -0.5027  0.0108
  135SAPE  H19R14639   3.636   7.060   8.587  0.9124 -0.0810  1.3661
  135SAPE  H19S14640   3.647   7.222   8.658 -1.2913  1.3128 -1.7004
  135SAPE  C22014641   3.516   7.205   8.496 -0.4601  0.3217  0.5677
  135SAPE  H20R14642   3.491   7.313   8.489  1.3421  0.6821 -1.2680
  135SAPE  H20S14643   3.416   7.162   8.473 -0.2614  0.3475 -0.3848
  135SAPE  H20T14644   3.588   7.190   8.413  1.4610  1.3948  1.9683
  135SAPE   C3314645   4.431   6.655  10.247  0.2264  0.1106 -0.2908
  135SAPE   H3X14646   4.529   6.699  10.219  1.2629 -2.0001 -0.2135
  135SAPE   H3Y14647   4.393   6.697  10.342 -0.0217 -0.3872 -0.1680
  135SAPE   C3414648   4.330   6.683  10.135  0.0224  0.2506 -0.3093
  135SAPE   H4X14649   4.335   6.792  10.116 -0.3897  0.1747 -0.9099
  135SAPE   H4Y14650   4.226   6.671  10.173 -0.6601  2.3494 -1.3666
  135SAPE   C3514651   4.337   6.607  10.005 -0.7552  0.2273 -0.6164
  135SAPE   H5X14652   4.315   6.501  10.031 -1.3522  0.9585  2.2254
  135SAPE   H5Y14653   4.437   6.601   9.957 -0.1211 -1.2230  0.7862
  135SAPE   C3614654   4.231   6.660   9.907 -0.7772  0.6630  0.1080
  135SAPE   H6X14655   4.225   6.771   9.906  0.8315  0.7646 -0.4746
  135SAPE   H6Y14656   4.134   6.610   9.927 -0.5990 -0.4142 -1.5193
  135SAPE   C3714657   4.274   6.624   9.764 -0.2148 -0.7699  0.2204
  135SAPE   H7X14658   4.291   6.514   9.759  2.7777 -0.3855  0.2750
  135SAPE   H7Y14659   4.376   6.660   9.740 -0.1270 -0.6624  0.7440
  135SAPE   C3814660   4.176   6.676   9.652 -0.1440 -0.1173 -0.3439
  135SAPE   H8X14661   4.140   6.780   9.665 -2.7950 -1.0272  0.3197
  135SAPE   H8Y14662   4.085   6.615   9.636  0.0335  0.3919 -4.1133
  135SAPE   C3914663   4.249   6.680   9.517  0.1410  0.6130  0.7151
  135SAPE   H9X14664   4.316   6.591   9.509  0.2070  0.8294 -2.5196
  135SAPE   H9Y14665   4.301   6.778   9.513  0.0839  0.6262  0.2026
  135SAPE  C31014666   4.161   6.662   9.401  0.3740 -0.1271 -0.2729
  135SAPE  H10X14667   4.087   6.745   9.390 -0.2558 -0.7067 -0.5328
  135SAPE  H10Y14668   4.093   6.574   9.404 -0.9274  0.8689  0.8858
  135SAPE  C31114669   4.251   6.655   9.276  0.4170 -0.3293  0.0744
  135SAPE  H11X14670   4.310   6.563   9.292 -0.1070 -0.6830  0.0161
  135SAPE  H11Y14671   4.315   6.746   9.278  0.2525 -0.0897 -2.6829
  135SAPE  C31214672   4.187   6.643   9.136  0.6013  0.0028 -0.4468
  135SAPE  H12X14673   4.099   6.711   9.134  0.3125 -0.3777 -2.2045
  135SAPE  H12Y14674   4.140   6.542   9.128 -2.5428  1.3029  0.1032
  135SAPE  C31314675   4.288   6.667   9.022 -0.4265  0.4317  0.4755
  135SAPE  H13X14676   4.357   6.579   9.016 -0.3144  0.5263  0.3673
  135SAPE  H13Y14677   4.360   6.752   9.024  1.3729 -1.0158  0.4523
  135SAPE  C31414678   4.217   6.666   8.890 -0.2723  0.3159 -1.3898
  135SAPE  H14X14679   4.118   6.626   8.920  0.0344  0.7449  0.2901
  135SAPE  H14Y14680   4.271   6.598   8.820  1.4823 -0.5513  0.6982
  135SAPE  C31514681   4.214   6.809   8.834 -0.0456 -0.2678 -0.2359
  135SAPE  H15X14682   4.316   6.853   8.822 -0.9737  1.6304 -1.7500
  135SAPE  H15Y14683   4.157   6.868   8.909  1.0766  0.3172  0.1848
  135SAPE  C31614684   4.154   6.818   8.695 -0.0722 -0.1293  0.1169
  135SAPE  H16X14685   4.050   6.779   8.701 -0.0768 -0.3237 -0.8737
  135SAPE  H16Y14686   4.207   6.753   8.621 -1.1127  1.2356 -1.9291
  135SAPE  C31714687   4.167   6.959   8.636  0.3381 -0.3853  0.3878
  135SAPE  H17X14688   4.150   6.949   8.526  1.2850 -2.4767  0.3675
  135SAPE  H17Y14689   4.273   6.991   8.645  0.2623 -0.2419  0.7468
  135SAPE  C31814690   4.070   7.061   8.703  0.3605  0.1908  0.7144
  135SAPE  H18X14691   4.101   7.073   8.809 -0.6303 -0.0910  1.0424
  135SAPE  H18Y14692   3.965   7.025   8.700 -0.0449  1.3428  0.3438
  135SAPE  H18Z14693   4.062   7.158   8.648 -0.3921 -0.3888 -0.2241
  136SAPE     N14694   0.163   0.600  10.878  0.2981 -0.0220  0.6858
  136SAPE   HN114695   0.264   0.619  10.891  1.4153 -2.9213 -2.3608
  136SAPE   HN214696   0.123   0.689  10.844  1.7412  1.4109  2.5033
  136SAPE   HN314697   0.118   0.582  10.971 -3.1476 -0.2618 -0.8675
  136SAPE   C1214698   0.148   0.481  10.789 -0.6791 -0.6676  0.5451
  136SAPE  H12A14699   0.170   0.389  10.847  0.5055 -0.8902 -0.2140
  136SAPE  H12B14700   0.219   0.488  10.704 -3.0298  1.0652 -1.3974
  136SAPE   C1114701   0.010   0.469  10.730 -0.0952 -0.1176 -0.4127
  136SAPE  H11A14702  -0.001   0.387  10.656  0.2953  2.1340 -3.1619
  136SAPE  H11B14703  -0.021   0.550  10.661  0.6286  0.1608 -0.4192
  136SAPE     P14704  -0.141   0.329  10.897 -0.0829 -0.2128 -0.3914
  136SAPE   O1314705  -0.037   0.251  10.968 -0.3192  0.7681 -0.3438
  136SAPE   O1414706  -0.259   0.364  10.983  0.6286 -0.2921  0.4721
  136SAPE   O1214707  -0.083   0.456  10.836 -0.3026 -0.4993 -0.4218
  136SAPE   O1114708  -0.185   0.255  10.769 -1.1281  0.8566 -0.5686
  136SAPE    C114709  -0.305   0.291  10.703  0.3102 -0.6127 -0.5379
  136SAPE    HA14710  -0.387   0.331  10.766  0.1489  2.0805 -2.2751
  136SAPE    HB14711  -0.294   0.370  10.626 -2.1512 -0.6195 -0.9907
  136SAPE    C214712  -0.374   0.179  10.623 -0.0264  0.3595 -0.2028
  136SAPE    HS14713  -0.388   0.100  10.700 -0.4243 -0.5799 -1.2180
  136SAPE   O2114714  -0.285   0.128  10.521  0.2211  0.6018 -0.2278
  136SAPE   C2114715  -0.287  -0.005  10.504 -0.1048  0.7179 -0.7158
  136SAPE   O2214716  -0.356  -0.086  10.567 -0.4938  0.2088  0.2848
  136SAPE   C2214717  -0.197  -0.043  10.394  0.2663 -0.2707  1.0555
  136SAPE   H2R14718  -0.148   0.046  10.350 -1.5534  0.1106 -0.3293
  136SAPE   H2S14719  -0.114  -0.096  10.446  2.4760  0.4423 -1.4881
  136SAPE    C314720  -0.512   0.222  10.567  0.4885 -0.1499  0.1525
  136SAPE    HX14721  -0.504   0.293  10.482  0.3221 -0.5849 -0.2357
  136SAPE    HY14722  -0.566   0.267  10.653  0.8610  0.6479 -0.0206
  136SAPE   O3114723  -0.590   0.101  10.523  0.1537 -0.0238 -0.8461
  136SAPE   C3114724  -0.619   0.092  10.396 -0.4407 -0.1235  0.6904
  136SAPE   O3214725  -0.606   0.180  10.312 -0.1931  0.1313 -0.4976
  136SAPE   C3214726  -0.673  -0.051  10.360 -0.1587 -0.9969  0.1342
  136SAPE   H2X14727  -0.730  -0.089  10.448 -2.5261 -0.8996 -1.2852
  136SAPE   H2Y14728  -0.586  -0.111  10.328 -0.5125 -1.6434  0.3606
  136SAPE   C2314729  -0.269  -0.114  10.271 -0.2293  0.1739 -0.4227
  136SAPE   H3R14730  -0.340  -0.190  10.310  0.6593  0.2813  1.5172
  136SAPE   H3S14731  -0.193  -0.174  10.218  0.0769 -1.1094  1.3740
  136SAPE   C2414732  -0.339  -0.007  10.179 -0.3347  0.2254  0.3221
  136SAPE   H4R14733  -0.254   0.056  10.144 -0.0882  0.5612  1.4919
  136SAPE   H4S14734  -0.397   0.060  10.246 -0.5753  0.3378  0.0049
  136SAPE   C2514735  -0.429  -0.055  10.072  0.0178 -0.0553 -0.2020
  136SAPE   H5R14736  -0.536  -0.046  10.093  0.2168  1.0352  0.4213
  136SAPE   C2614737  -0.381  -0.102   9.955 -0.1597  0.4077 -0.0416
  136SAPE   H6R14738  -0.451  -0.131   9.875  0.0450  2.5935 -1.0949
  136SAPE   C2714739  -0.239  -0.120   9.906 -0.4101  0.5104  0.3768
  136SAPE   H7R14740  -0.166  -0.068   9.971  0.0496 -0.1351  0.3819
  136SAPE   H7S14741  -0.226  -0.069   9.808 -0.2342  0.2103  0.2449
  136SAPE   C2814742  -0.201  -0.269   9.908  0.2580  0.0177 -0.6742
  136SAPE   H8R14743  -0.203  -0.322  10.004 -1.6072 -0.8556 -1.1579
  136SAPE   C2914744  -0.182  -0.351   9.800  0.7109  0.2382 -0.5081
  136SAPE   H9R14745  -0.138  -0.450   9.819  0.7055  0.3471  0.0926
  136SAPE  C21014746  -0.201  -0.315   9.650 -0.9590  0.1440 -0.8904
  136SAPE  H10R14747  -0.284  -0.242   9.648 -1.0833  0.0007 -0.9315
  136SAPE  H10S14748  -0.244  -0.409   9.609 -1.5329 -0.2608  0.5505
  136SAPE  C21114749  -0.076  -0.257   9.568 -0.6792 -0.1507  0.0545
  136SAPE  H11R14750   0.011  -0.228   9.627  1.2495 -0.0156 -2.6742
  136SAPE  C21214751  -0.060  -0.251   9.438  1.0342  0.5190  0.4467
  136SAPE  H12R14752   0.028  -0.198   9.400  1.6727 -1.1610 -0.5268
  136SAPE  C21314753  -0.163  -0.301   9.336  0.6135 -0.3450 -0.0236
  136SAPE  H13R14754  -0.192  -0.231   9.255 -0.8019 -0.0059  0.7404
  136SAPE  H13S14755  -0.258  -0.331   9.387  0.6530  2.7059  2.0796
  136SAPE  C21414756  -0.107  -0.425   9.272  0.3216  0.2706  0.3754
  136SAPE  H14R14757  -0.135  -0.510   9.334  0.0672 -1.3554 -1.8491
  136SAPE  C21514758  -0.034  -0.444   9.157 -0.0681 -0.5789  0.6237
  136SAPE  H15R14759  -0.003  -0.546   9.130 -1.5857 -0.7303 -0.7415
  136SAPE  C21614760  -0.004  -0.339   9.053  0.3432 -0.6390 -1.2532
  136SAPE  H16R14761   0.104  -0.345   9.028  0.4973  2.5398 -1.7820
  136SAPE  H16S14762  -0.018  -0.232   9.081  0.7170 -0.8940 -0.0419
  136SAPE  C21714763  -0.086  -0.362   8.934  0.1032  0.6529 -0.2719
  136SAPE  H17R14764  -0.191  -0.386   8.962  0.7069  0.1267  1.6463
  136SAPE  H17S14765  -0.041  -0.450   8.883 -2.8454 -1.4435  0.4757
  136SAPE  C21814766  -0.069  -0.237   8.842 -0.3382 -0.1833 -0.4305
  136SAPE  H18R14767   0.040  -0.233   8.821 -0.3733 -0.7450 -0.7484
  136SAPE  H18S14768  -0.101  -0.142   8.891  0.2801 -1.5779  2.8822
  136SAPE  C21914769  -0.133  -0.262   8.707  0.1292  0.7577 -0.2874
  136SAPE  H19R14770  -0.115  -0.364   8.666 -1.5880  0.1929  0.2705
  136SAPE  H19S14771  -0.093  -0.190   8.633  2.0745 -0.8663 -0.9239
  136SAPE  C22014772  -0.285  -0.231   8.704  0.4504 -0.2838 -0.1558
  136SAPE  H20R14773  -0.298  -0.127   8.741  0.9214 -0.5057  0.6442
  136SAPE  H20S14774  -0.344  -0.303   8.765  0.4311  0.3829  0.6282
  136SAPE  H20T14775  -0.322  -0.228   8.599 -1.1460  3.8956  0.3561
  136SAPE   C3314776  -0.773  -0.054  10.237 -0.4096 -0.3931  0.5028
  136SAPE   H3X14777  -0.731   0.018  10.163  1.1434 -0.0703  1.6467
  136SAPE   H3Y14778  -0.871  -0.016  10.274  0.2836  1.7307  0.3450
  136SAPE   C3414779  -0.775  -0.196  10.179  0.1586 -0.5889 -0.2477
  136SAPE   H4X14780  -0.758  -0.275  10.255  0.5309 -0.2161  0.0659
  136SAPE   H4Y14781  -0.688  -0.204  10.110  1.4080  3.0487  0.6828
  136SAPE   C3514782  -0.908  -0.227  10.105 -0.5672 -0.4773 -0.7267
  136SAPE   H5X14783  -0.990  -0.209  10.178  0.1925  1.0054 -0.1724
  136SAPE   H5Y14784  -0.911  -0.334  10.077  0.9231 -1.1531  1.3959
  136SAPE   C3614785  -0.943  -0.136   9.984 -0.0284  0.1573  0.4683
  136SAPE   H6X14786  -0.925  -0.027   9.997  1.4696 -0.0237  0.1667
  136SAPE   H6Y14787  -1.047  -0.145   9.946  0.4122  0.0734 -0.7634
  136SAPE   C3714788  -0.853  -0.170   9.860 -0.2273  0.8348 -0.7471
  136SAPE   H7X14789  -0.860  -0.277   9.833  1.7486  0.7217 -0.9457
  136SAPE   H7Y14790  -0.750  -0.157   9.900  0.1698 -1.0557 -1.0712
  136SAPE   C3814791  -0.875  -0.087   9.736  0.5461 -0.2377  0.1898
  136SAPE   H8X14792  -0.777  -0.056   9.692  0.1561  4.1877  1.8723
  136SAPE   H8Y14793  -0.923   0.004   9.777 -1.6121 -1.9661  1.6836
  136SAPE   C3914794  -0.960  -0.135   9.618 -0.2075 -0.5505  0.0029
  136SAPE   H9X14795  -1.054  -0.190   9.642 -1.7314  0.8519 -2.3383
  136SAPE   H9Y14796  -0.896  -0.206   9.561 -1.4314 -0.9612 -0.9015
  136SAPE  C31014797  -1.018  -0.028   9.525 -0.0291 -0.7256 -0.2527
  136SAPE  H10X14798  -1.094   0.042   9.565  1.1152  1.2844 -1.3909
  136SAPE  H10Y14799  -1.064  -0.083   9.440 -0.9471 -0.9985  0.4087
  136SAPE  C31114800  -0.909   0.064   9.466 -0.1506  0.1254  0.2912
  136SAPE  H11X14801  -0.850   0.112   9.548  2.5591 -1.1515 -0.7970
  136SAPE  H11Y14802  -0.950   0.141   9.397 -0.8311  1.6294  2.2577
  136SAPE  C31214803  -0.809  -0.002   9.365  0.0346 -0.1980 -0.3711
  136SAPE  H12X14804  -0.728  -0.053   9.422 -0.2928  0.9722  1.2230
  136SAPE  H12Y14805  -0.750   0.072   9.306  0.1303  2.1330  2.3812
  136SAPE  C31314806  -0.881  -0.098   9.267  0.6219 -0.4358  0.6641
  136SAPE  H13X14807  -0.926  -0.188   9.315  0.4934 -0.7359  0.0044
  136SAPE  H13Y14808  -0.802  -0.142   9.202  0.8492  0.6313  0.1991
  136SAPE  C31414809  -0.987  -0.030   9.173 -0.4492 -0.2366 -0.2865
  136SAPE  H14X14810  -0.929   0.051   9.123  1.1872 -2.1282 -1.5801
  136SAPE  H14Y14811  -1.070   0.025   9.223  1.0711  0.7648  1.2607
  136SAPE  C31514812  -1.045  -0.119   9.061 -1.0322  1.0088  0.8239
  136SAPE  H15X14813  -1.111  -0.197   9.104 -2.2369  0.5626 -1.6430
  136SAPE  H15Y14814  -0.962  -0.167   9.004 -1.6477  1.0268 -0.1033
  136SAPE  C31614815  -1.127  -0.042   8.961 -0.9345 -0.1668 -0.3713
  136SAPE  H16X14816  -1.068   0.050   8.942  2.0969 -1.9376 -0.1476
  136SAPE  H16Y14817  -1.217   0.001   9.010 -0.6799 -1.2310  1.1201
  136SAPE  C31714818  -1.174  -0.110   8.831  0.1357  0.4280  0.3875
  136SAPE  H17X14819  -1.253  -0.045   8.787  1.6389  2.6340  0.7695
  136SAPE  H17Y14820  -1.216  -0.208   8.862 -0.6587  0.2482 -1.1718
  136SAPE  C31814821  -1.068  -0.145   8.729  0.7239 -0.7004  0.3210
  136SAPE  H18X14822  -1.004  -0.229   8.765 -0.0300 -2.0577 -1.3911
  136SAPE  H18Y14823  -1.001  -0.060   8.705 -0.0356 -0.4514 -1.0239
  136SAPE  H18Z14824  -1.124  -0.178   8.639 -1.0200 -0.2916  1.2157
  137SAPE     N14825   6.299   3.422  10.828  0.3864  0.2029 -0.2254
  137SAPE   HN114826   6.399   3.444  10.813  0.0088  0.7285 -2.4157
  137SAPE   HN214827   6.294   3.332  10.880 -0.0985 -0.3965 -1.2668
  137SAPE   HN314828   6.255   3.416  10.733  0.2764  1.7601 -0.2982
  137SAPE   C1214829   6.226   3.527  10.913  0.0433  0.2377 -0.7315
  137SAPE  H12A14830   6.243   3.627  10.867  1.5863  0.4995  0.3365
  137SAPE  H12B14831   6.273   3.528  11.014  2.6827 -2.3372 -1.7886
  137SAPE   C1114832   6.076   3.495  10.917  0.3131 -0.0032 -0.0056
  137SAPE  H11A14833   6.027   3.549  11.001 -1.1450  0.4750 -1.1110
  137SAPE  H11B14834   6.056   3.389  10.947 -2.0861  0.6920  1.1475
  137SAPE     P14835   5.947   3.435  10.696  0.4743  0.2292  0.5667
  137SAPE   O1314836   6.064   3.357  10.641  0.1840 -0.3545 -0.2881
  137SAPE   O1414837   5.835   3.360  10.762 -0.3419  0.3127 -0.1627
  137SAPE   O1214838   6.015   3.534  10.798  0.0962 -0.2995 -0.0275
  137SAPE   O1114839   5.896   3.521  10.578  0.6003 -0.2692 -0.6367
  137SAPE    C114840   5.865   3.663  10.595 -0.2522  0.4913  0.2354
  137SAPE    HA14841   5.771   3.685  10.541  0.4600  2.2842 -0.3295
  137SAPE    HB14842   5.868   3.695  10.702 -0.6731 -0.0440  0.4146
  137SAPE    C214843   5.981   3.747  10.528 -0.9139  0.9840 -0.1949
  137SAPE    HS14844   5.950   3.854  10.525  1.3976  1.7106 -0.6739
  137SAPE   O2114845   6.009   3.692  10.400 -0.2794 -0.9869  0.5898
  137SAPE   C2114846   5.908   3.710  10.314 -0.0598 -0.0951 -0.0485
  137SAPE   O2214847   5.815   3.786  10.332 -0.1515  0.2875 -0.5269
  137SAPE   C2214848   5.930   3.614  10.200 -0.4410  0.4854  0.2661
  137SAPE   H2R14849   6.021   3.645  10.144 -1.0143 -2.1976 -2.4365
  137SAPE   H2S14850   5.951   3.511  10.238 -1.0183 -1.1002 -3.2599
  137SAPE    C314851   6.119   3.738  10.606  0.1943  0.3267  0.2697
  137SAPE    HX14852   6.142   3.634  10.639  2.0858  0.1444 -1.4215
  137SAPE    HY14853   6.118   3.801  10.698 -0.8439 -0.2605  0.6738
  137SAPE   O3114854   6.224   3.792  10.532  0.4418 -0.7309  1.0814
  137SAPE   C3114855   6.349   3.746  10.550  0.3524  0.5754  0.0502
  137SAPE   O3214856   6.378   3.663  10.635  0.0168 -0.5253 -0.9392
  137SAPE   C3214857   6.439   3.821  10.456 -0.8302  0.5251  0.3440
  137SAPE   H2X14858   6.466   3.918  10.504  0.0766  0.5845 -0.2469
  137SAPE   H2Y14859   6.375   3.839  10.367 -0.1002 -0.9390 -0.5217
  137SAPE   C2314860   5.831   3.612  10.079  0.5881  0.1250 -0.1634
  137SAPE   H3R14861   5.726   3.592  10.112  0.1118  1.2761 -0.9086
  137SAPE   H3S14862   5.863   3.527  10.016 -1.8832 -1.0555  0.0539
  137SAPE   C2414863   5.825   3.744   9.992  0.2038  0.2893 -0.0824
  137SAPE   H4R14864   5.799   3.830  10.056  0.1938 -0.0383  0.3618
  137SAPE   H4S14865   5.740   3.738   9.921  0.9007  2.9102 -1.2396
  137SAPE   C2514866   5.947   3.782   9.920 -0.3561 -0.8121 -0.2445
  137SAPE   H5R14867   6.014   3.844   9.981  0.0917 -1.1654 -0.3707
  137SAPE   C2614868   5.979   3.750   9.791 -0.1647  0.4897  0.6533
  137SAPE   H6R14869   6.077   3.786   9.756 -0.2932  1.1627  0.9775
  137SAPE   C2714870   5.892   3.679   9.696  0.1911  0.2696  0.1175
  137SAPE   H7R14871   5.815   3.617   9.746  1.0294 -0.7733  0.1535
  137SAPE   H7S14872   5.960   3.607   9.646  1.1645  0.9532  0.4107
  137SAPE   C2814873   5.813   3.759   9.594 -0.1149  0.3675  0.0251
  137SAPE   H8R14874   5.714   3.795   9.628  0.0997 -0.2736  1.3978
  137SAPE   C2914875   5.861   3.787   9.470 -0.8531  0.0445  0.9086
  137SAPE   H9R14876   5.788   3.828   9.398  0.6729  1.1101 -0.0887
  137SAPE  C21014877   5.989   3.753   9.399 -0.0879  0.1193  0.3269
  137SAPE  H10R14878   6.076   3.754   9.468 -0.4643 -0.6825  0.8166
  137SAPE  H10S14879   6.015   3.836   9.329  0.7134  0.3761  0.9135
  137SAPE  C21114880   5.983   3.619   9.321 -0.0191 -0.0988  0.1164
  137SAPE  H11R14881   6.023   3.532   9.375  0.1402 -0.2881 -0.3088
  137SAPE  C21214882   5.937   3.610   9.194 -0.1869 -1.0295 -0.1191
  137SAPE  H12R14883   5.945   3.519   9.132  1.7063  1.1773 -3.4209
  137SAPE  C21314884   5.892   3.727   9.111 -0.3883  0.3418  0.0389
  137SAPE  H13R14885   5.971   3.803   9.096 -0.7355  0.1552 -3.7712
  137SAPE  H13S14886   5.805   3.777   9.159 -1.5205 -0.5459 -1.0059
  137SAPE  C21414887   5.837   3.684   8.969 -0.8061 -0.0419 -0.0607
  137SAPE  H14R14888   5.746   3.623   8.977 -0.3037 -1.1756 -2.1668
  137SAPE  C21514889   5.885   3.717   8.848  0.1438  0.2418  0.0223
  137SAPE  H15R14890   5.847   3.666   8.758 -0.0115 -1.4747  1.0066
  137SAPE  C21614891   6.008   3.799   8.812  0.2036  0.1805 -0.4840
  137SAPE  H16R14892   6.081   3.774   8.892 -0.0720  1.8748  0.3456
  137SAPE  H16S14893   5.995   3.903   8.852 -0.4489 -0.2219  0.3891
  137SAPE  C21714894   6.063   3.789   8.669  0.5651 -0.8013  0.6534
  137SAPE  H17R14895   5.998   3.844   8.597 -0.3725 -0.7796  1.4864
  137SAPE  H17S14896   6.070   3.681   8.646  4.9415 -0.7051  0.7803
  137SAPE  C21814897   6.202   3.848   8.650 -0.2447 -0.0706 -0.0945
  137SAPE  H18R14898   6.270   3.814   8.731  1.2487  2.1764 -0.3370
  137SAPE  H18S14899   6.201   3.956   8.672  1.8966 -0.5380  2.9724
  137SAPE  C21914900   6.255   3.828   8.502 -0.1212  0.0817  0.1449
  137SAPE  H19R14901   6.250   3.722   8.469 -1.6769 -0.0185  0.6364
  137SAPE  H19S14902   6.363   3.855   8.512 -0.0093 -0.3833  0.2197
  137SAPE  C22014903   6.179   3.915   8.392  0.3629  0.8155  0.2903
  137SAPE  H20R14904   6.141   4.012   8.430 -2.5951  0.5862 -1.7720
  137SAPE  H20S14905   6.091   3.852   8.368  2.2264 -1.3199 -1.3065
  137SAPE  H20T14906   6.245   3.936   8.305  0.8967  3.5350  1.2590
  137SAPE   C3314907   6.560   3.728  10.414  0.0717 -0.2415 -0.0975
  137SAPE   H3X14908   6.532   3.624  10.390  0.2323  0.2146 -2.4771
  137SAPE   H3Y14909   6.628   3.712  10.501 -0.8431  1.0884  0.9124
  137SAPE   C3414910   6.619   3.797  10.299  0.4186  0.0877 -0.1550
  137SAPE   H4X14911   6.668   3.891  10.331  2.7061 -1.4569  1.1304
  137SAPE   H4Y14912   6.532   3.828  10.237 -0.0498  1.1060  0.9656
  137SAPE   C3514913   6.726   3.725  10.217 -0.1646 -0.8234 -0.1460
  137SAPE   H5X14914   6.693   3.622  10.188 -1.0988 -0.3991 -0.6542
  137SAPE   H5Y14915   6.812   3.708  10.284 -0.2086 -0.2763  0.0533
  137SAPE   C3614916   6.783   3.810  10.101  0.2469  0.1076 -0.1321
  137SAPE   H6X14917   6.879   3.763  10.070  1.0326  0.6500  1.3770
  137SAPE   H6Y14918   6.804   3.912  10.137 -2.2644  0.0314  1.8241
  137SAPE   C3714919   6.680   3.803   9.983 -0.3886  0.2102 -0.1471
  137SAPE   H7X14920   6.578   3.810  10.028 -0.8760 -1.5916 -0.8769
  137SAPE   H7Y14921   6.690   3.702   9.937  0.2549  0.1540  0.1206
  137SAPE   C3814922   6.705   3.905   9.873  0.2450 -0.6564 -0.2828
  137SAPE   H8X14923   6.720   4.003   9.922 -1.3542 -0.0041 -1.0215
  137SAPE   H8Y14924   6.619   3.928   9.806  0.9553  1.2744 -0.5836
  137SAPE   C3914925   6.825   3.861   9.793  0.2575  0.3653 -0.0620
  137SAPE   H9X14926   6.802   3.757   9.762  0.5197 -0.1240  1.3129
  137SAPE   H9Y14927   6.917   3.869   9.855  1.5688  2.1911 -2.0508
  137SAPE  C31014928   6.866   3.956   9.676 -0.3333 -0.2099  0.1976
  137SAPE  H10X14929   6.972   3.933   9.650  0.4409  0.9313  2.1532
  137SAPE  H10Y14930   6.877   4.061   9.711 -1.2307  0.7012 -2.0514
  137SAPE  C31114931   6.762   3.940   9.561 -0.2244 -0.4703  0.0239
  137SAPE  H11X14932   6.664   3.980   9.594  0.7727 -0.3384  3.1353
  137SAPE  H11Y14933   6.740   3.832   9.548  0.7785 -0.7100  0.1956
  137SAPE  C31214934   6.814   3.997   9.426 -0.2582 -0.2774  0.1132
  137SAPE  H12X14935   6.732   3.972   9.356  0.5241 -0.0535 -0.9021
  137SAPE  H12Y14936   6.894   3.931   9.385 -1.7838 -2.0894 -0.0872
  137SAPE  C31314937   6.851   4.140   9.416  0.0496 -0.3838 -0.5929
  137SAPE  H13X14938   6.954   4.152   9.455  0.1647  0.8473 -1.2369
  137SAPE  H13Y14939   6.785   4.202   9.481 -0.1192 -1.0296 -0.1339
  137SAPE  C31414940   6.834   4.200   9.273 -0.1203 -0.3225  0.6087
  137SAPE  H14X14941   6.846   4.310   9.260 -2.7428 -0.2632 -2.4544
  137SAPE  H14Y14942   6.726   4.185   9.251 -0.0051  2.7418 -3.0141
  137SAPE  C31514943   6.928   4.144   9.166 -0.1528 -0.2190 -0.1483
  137SAPE  H15X14944   6.893   4.040   9.150  1.0932 -0.9604  1.7482
  137SAPE  H15Y14945   7.031   4.158   9.204 -0.0740 -2.0443  0.3772
  137SAPE  C31614946   6.911   4.224   9.034  1.0030 -0.2274 -0.2294
  137SAPE  H16X14947   6.930   4.332   9.056 -2.5508  0.9350 -2.0816
  137SAPE  H16Y14948   6.816   4.197   8.984  1.0353 -0.8652  0.0425
  137SAPE  C31714949   7.019   4.191   8.928 -0.3258 -0.2424  0.2488
  137SAPE  H17X14950   7.007   4.081   8.917  0.1641 -0.0736 -2.8911
  137SAPE  H17Y14951   7.121   4.212   8.968 -0.3423 -0.6764  0.5267
  137SAPE  C31814952   6.987   4.264   8.795 -0.2842  0.0714  0.4514
  137SAPE  H18X14953   6.884   4.229   8.770 -0.7144 -0.5417  2.8065
  137SAPE  H18Y14954   7.046   4.230   8.707  1.3209 -2.3885  2.3375
  137SAPE  H18Z14955   6.987   4.371   8.823 -1.4251  0.3783 -0.6371
  138SAPE     N14956   1.645   3.683  10.988 -0.4339 -0.9273  0.3213
  138SAPE   HN114957   1.557   3.716  11.032 -1.1653 -0.6241 -1.2926
  138SAPE   HN214958   1.656   3.713  10.889 -0.1622 -2.3148 -0.1039
  138SAPE   HN314959   1.663   3.580  10.995 -1.7196 -1.1856  0.1145
  138SAPE   C1214960   1.764   3.752  11.065  0.0107  0.3172  0.4563
  138SAPE  H12A14961   1.772   3.690  11.157 -0.3562  0.0786  0.3279
  138SAPE  H12B14962   1.735   3.857  11.090 -4.4651 -0.2941 -1.3488
  138SAPE   C1114963   1.893   3.742  10.986 -0.7852 -0.7833 -0.5159
  138SAPE  H11A14964   1.964   3.824  11.010 -0.2132 -1.2342 -0.6292
  138SAPE  H11B14965   1.859   3.770  10.884 -2.6268 -0.9655  0.0027
  138SAPE     P14966   1.927   3.495  10.915  0.0995 -0.0546 -0.0319
  138SAPE   O1314967   2.043   3.398  10.925  0.6314 -0.5496  0.2671
  138SAPE   O1414968   1.795   3.452  10.969  0.1171  0.2214 -0.3658
  138SAPE   O1214969   1.961   3.621  11.003 -0.4359  0.0597 -0.4780
  138SAPE   O1114970   1.906   3.551  10.767 -0.2484  0.2033  0.1800
  138SAPE    C114971   2.027   3.583  10.695 -0.2738  0.5053  0.1154
  138SAPE    HA14972   2.082   3.660  10.753  1.1758  0.7575 -1.5327
  138SAPE    HB14973   2.097   3.497  10.687 -0.6537 -0.0923  2.4136
  138SAPE    C214974   1.995   3.637  10.555  0.4092 -0.1913 -0.1009
  138SAPE    HS14975   2.094   3.653  10.508  2.1165 -1.8177  2.6614
  138SAPE   O2114976   1.937   3.769  10.576  0.1277 -0.3315  0.1822
  138SAPE   C2114977   1.970   3.859  10.479  0.1448 -1.0560 -0.0707
  138SAPE   O2214978   2.058   3.844  10.395  0.7099 -0.1489  0.1502
  138SAPE   C2214979   1.887   3.991  10.502 -0.7768  0.5878  0.3609
  138SAPE   H2R14980   1.889   4.012  10.611  0.3994 -0.1947  0.5057
  138SAPE   H2S14981   1.946   4.073  10.456 -1.3620  1.3656  0.9772
  138SAPE    C314982   1.899   3.544  10.478 -0.1543 -0.1702  0.8753
  138SAPE    HX14983   1.802   3.560  10.530 -0.1292  4.6578 -0.0371
  138SAPE    HY14984   1.933   3.439  10.473  0.6299  0.0954  0.5821
  138SAPE   O3114985   1.892   3.590  10.338 -0.1951  0.0908  0.1817
  138SAPE   C3114986   2.002   3.569  10.258 -0.0807  0.9114 -0.6705
  138SAPE   O3214987   2.103   3.512  10.296  0.1458 -0.1145  0.2779
  138SAPE   C3214988   1.979   3.614  10.114  0.8600 -0.3594  0.1660
  138SAPE   H2X14989   1.968   3.725  10.110  2.7989 -0.1550 -2.3789
  138SAPE   H2Y14990   1.882   3.577  10.075 -0.9307  0.4768  3.4151
  138SAPE   C2314991   1.746   3.993  10.444 -0.4700  0.3969  0.5081
  138SAPE   H3R14992   1.694   4.090  10.462 -2.5572 -0.2691 -1.4754
  138SAPE   H3S14993   1.673   3.917  10.478  0.0691  0.9581  3.1603
  138SAPE   C2414994   1.747   3.972  10.294 -1.2030  0.1789  0.8888
  138SAPE   H4R14995   1.794   3.879  10.255 -0.4249  1.2116 -0.7282
  138SAPE   H4S14996   1.805   4.048  10.238  1.4166 -2.5090 -0.3502
  138SAPE   C2514997   1.608   3.970  10.233  1.1513  0.4757 -0.2711
  138SAPE   H5R14998   1.560   3.874  10.258  0.3555 -0.1558 -3.7004
  138SAPE   C2614999   1.536   4.062  10.169 -0.5126 -0.6805 -0.6250
  138SAPE   H6R15000   1.429   4.039  10.170 -0.7120 -0.3121  3.6396
  138SAPE   C2715001   1.590   4.202  10.135 -0.1505 -0.0495  0.0912
  138SAPE   H7R15002   1.681   4.202  10.072 -1.2958 -2.2822 -1.7112
  138SAPE   H7S15003   1.605   4.244  10.237 -0.0701 -0.1268  0.1099
  138SAPE   C2815004   1.485   4.293  10.075 -0.1433 -0.0311  1.1003
  138SAPE   H8R15005   1.474   4.381  10.140  1.6509  1.9144 -1.0227
  138SAPE   C2915006   1.415   4.282   9.958  1.1319 -0.2878  0.0701
  138SAPE   H9R15007   1.325   4.343   9.944 -0.5464 -1.8015  3.0540
  138SAPE  C21015008   1.435   4.183   9.852 -0.0407  0.1276  0.3001
  138SAPE  H10R15009   1.355   4.106   9.857 -0.3236  0.3871 -0.1172
  138SAPE  H10S15010   1.534   4.134   9.868 -0.0108 -0.6056 -1.8350
  138SAPE  C21115011   1.443   4.244   9.712  0.6521 -0.2841  0.0270
  138SAPE  H11R15012   1.487   4.344   9.712  1.1870 -0.4937 -1.3871
  138SAPE  C21215013   1.447   4.185   9.588 -0.2202  0.0144 -0.8440
  138SAPE  H12R15014   1.480   4.250   9.506 -2.7466 -0.7761 -2.6282
  138SAPE  C21315015   1.431   4.036   9.558 -0.0117  0.3689  0.4378
  138SAPE  H13R15016   1.345   4.020   9.489 -1.5023  0.4228  2.2212
  138SAPE  H13S15017   1.392   3.977   9.644  1.1555 -0.7977  0.2116
  138SAPE  C21415018   1.569   3.985   9.502 -0.1396  0.8825  0.1599
  138SAPE  H14R15019   1.654   3.968   9.570 -0.6066 -1.8314  0.1824
  138SAPE  C21515020   1.598   3.947   9.377 -0.6142 -0.1141  0.4175
  138SAPE  H15R15021   1.699   3.912   9.353 -0.1509  0.4370  1.5021
  138SAPE  C21615022   1.518   3.947   9.254  0.3634  1.3274 -0.8350
  138SAPE  H16R15023   1.411   3.968   9.277 -0.5156 -3.2115  0.3604
  138SAPE  H16S15024   1.513   3.848   9.203 -0.0935  0.1128  1.3834
  138SAPE  C21715025   1.572   4.059   9.158 -0.0123  0.0981 -0.2852
  138SAPE  H17R15026   1.665   4.105   9.196  0.6821 -0.9858 -0.6167
  138SAPE  H17S15027   1.501   4.144   9.168 -0.8840 -0.3894 -1.9096
  138SAPE  C21815028   1.562   4.028   9.009 -0.8163  0.6025  0.2605
  138SAPE  H18R15029   1.593   3.923   8.991  1.2407  1.1629  0.1981
  138SAPE  H18S15030   1.646   4.083   8.961 -1.9978  1.9012 -0.4058
  138SAPE  C21915031   1.432   4.071   8.949 -1.1620 -0.0809  0.1273
  138SAPE  H19R15032   1.432   4.182   8.961  1.3471  0.2157 -1.6806
  138SAPE  H19S15033   1.351   4.019   9.003  0.9744 -2.8653  0.8922
  138SAPE  C22015034   1.412   4.032   8.809 -0.2190 -0.0930 -0.0314
  138SAPE  H20R15035   1.488   4.083   8.746 -2.5715  1.7427 -1.5601
  138SAPE  H20S15036   1.313   4.065   8.771 -1.1095 -0.3925  1.9186
  138SAPE  H20T15037   1.419   3.922   8.793 -0.4728 -0.2077  0.6154
  138SAPE   C3315038   2.089   3.577  10.015 -0.5121  0.1307 -0.2412
  138SAPE   H3X15039   2.134   3.480  10.046 -0.3815 -0.0225 -0.8931
  138SAPE   H3Y15040   2.171   3.651  10.028  0.6481 -1.0874 -0.3540
  138SAPE   C3415041   2.048   3.575   9.872  0.5195  0.0755 -0.3036
  138SAPE   H4X15042   2.027   3.673   9.823  1.3836  0.1260 -0.5853
  138SAPE   H4Y15043   1.955   3.515   9.860  1.1503 -1.0211  0.1762
  138SAPE   C3515044   2.152   3.498   9.783  1.3099 -0.3966 -0.2205
  138SAPE   H5X15045   2.151   3.392   9.817  0.6323 -0.6013 -0.8540
  138SAPE   H5Y15046   2.256   3.519   9.815  1.6703 -4.2570  1.6923
  138SAPE   C3615047   2.134   3.494   9.632  1.4215  0.5756 -0.0300
  138SAPE   H6X15048   2.128   3.597   9.591  0.5871  0.1180 -1.1152
  138SAPE   H6Y15049   2.042   3.442   9.597  1.8524  0.2096 -0.6334
  138SAPE   C3715050   2.237   3.403   9.568 -0.4192  0.2523 -0.2001
  138SAPE   H7X15051   2.223   3.302   9.611  1.4107 -0.1623 -0.4869
  138SAPE   H7Y15052   2.344   3.429   9.584 -0.2135 -0.5117 -0.3065
  138SAPE   C3815053   2.213   3.388   9.415 -0.6633  0.3596 -0.4632
  138SAPE   H8X15054   2.110   3.348   9.413 -0.5829 -0.0915  1.7006
  138SAPE   H8Y15055   2.281   3.307   9.380 -0.4405  0.6948 -0.8180
  138SAPE   C3915056   2.234   3.518   9.338  0.5710  0.7364  0.1000
  138SAPE   H9X15057   2.329   3.564   9.372 -0.2234  3.7817 -1.4630
  138SAPE   H9Y15058   2.145   3.582   9.353 -0.6835 -1.0046  0.4763
  138SAPE  C31015059   2.243   3.502   9.192  0.2275 -0.0918  0.2844
  138SAPE  H10X15060   2.166   3.441   9.141  1.5705 -1.2903 -0.4041
  138SAPE  H10Y15061   2.335   3.443   9.174 -0.1367 -0.7048  0.4231
  138SAPE  C31115062   2.267   3.638   9.115 -0.2359  0.1537 -0.6221
  138SAPE  H11X15063   2.346   3.690   9.175  1.3147 -2.6525 -0.0031
  138SAPE  H11Y15064   2.177   3.701   9.103  0.5825  1.1297 -2.0015
  138SAPE  C31215065   2.332   3.621   8.983  0.1835 -0.0130  0.4944
  138SAPE  H12X15066   2.424   3.561   9.002  0.9457  0.6184 -1.0225
  138SAPE  H12Y15067   2.357   3.714   8.928 -2.0560 -0.0083 -0.6455
  138SAPE  C31315068   2.233   3.556   8.877 -0.2219  0.6723 -0.1694
  138SAPE  H13X15069   2.187   3.461   8.912  0.1970  0.5432  0.0366
  138SAPE  H13Y15070   2.304   3.527   8.796  0.3486  0.6643  0.3277
  138SAPE  C31415071   2.115   3.636   8.816 -0.3559 -0.3855 -0.9091
  138SAPE  H14X15072   2.158   3.737   8.803 -2.1218  0.7902  1.5011
  138SAPE  H14Y15073   2.031   3.639   8.890 -0.1526 -2.0237 -0.5731
  138SAPE  C31515074   2.076   3.572   8.680 -0.1662 -0.0086  0.3334
  138SAPE  H15X15075   2.043   3.466   8.692 -2.7715  0.3477 -2.5003
  138SAPE  H15Y15076   2.165   3.573   8.613 -1.4352 -1.3708 -1.4705
  138SAPE  C31615077   1.958   3.647   8.613  0.7530  0.3876  0.1196
  138SAPE  H16X15078   1.968   3.757   8.629 -1.1448  0.4519  1.1346
  138SAPE  H16Y15079   1.863   3.608   8.654  0.6155  0.1042 -0.4601
  138SAPE  C31715080   1.938   3.608   8.464 -0.3299 -0.3075 -0.3847
  138SAPE  H17X15081   1.839   3.643   8.428  0.0321 -0.4859 -1.6201
  138SAPE  H17Y15082   1.946   3.497   8.462 -0.2593 -0.3586  1.4147
  138SAPE  C31815083   2.034   3.671   8.366 -0.3419 -0.2509 -0.3786
  138SAPE  H18X15084   2.141   3.643   8.362 -0.8708 -2.2636 -2.7380
  138SAPE  H18Y15085   2.040   3.781   8.381  1.0971 -0.6163  2.3073
  138SAPE  H18Z15086   1.996   3.641   8.266  1.4012  0.1233 -1.1977
  139SAPE     N15087   1.299   1.699  10.873  0.0629  0.4375 -0.2622
  139SAPE   HN115088   1.342   1.653  10.956  0.4893 -1.3504 -1.4111
  139SAPE   HN215089   1.264   1.794  10.895 -0.7943  0.2172 -0.6273
  139SAPE   HN315090   1.218   1.640  10.843 -0.2275  0.7014 -0.0015
  139SAPE   C1215091   1.398   1.718  10.764  0.3183 -0.0995  0.3014
  139SAPE  H12A15092   1.343   1.722  10.667 -0.2667  1.0711  0.6596
  139SAPE  H12B15093   1.473   1.636  10.758  0.1248 -0.1837 -2.0080
  139SAPE   C1115094   1.480   1.845  10.787 -0.0446 -1.1799 -0.0532
  139SAPE  H11A15095   1.558   1.842  10.708  0.0876 -1.4634  0.0888
  139SAPE  H11B15096   1.523   1.845  10.889  0.5794  0.9491 -0.2548
  139SAPE     P15097   1.337   2.033  10.651 -0.1504 -0.1033 -0.2591
  139SAPE   O1315098   1.189   2.015  10.643  0.1957 -0.3798 -0.1686
  139SAPE   O1415099   1.386   2.174  10.641 -0.1518  0.0053 -0.3152
  139SAPE   O1215100   1.394   1.960  10.780  0.3248  0.5256  0.0009
  139SAPE   O1115101   1.407   1.953  10.534 -0.3629  0.5431 -0.2799
  139SAPE    C115102   1.466   2.020  10.419 -0.7605  1.0492 -0.2410
  139SAPE    HA15103   1.495   2.126  10.433  1.4062  0.1526  3.2092
  139SAPE    HB15104   1.564   1.968  10.412  0.0195  2.5291 -0.8632
  139SAPE    C215105   1.377   2.016  10.289 -1.1264  0.2777  1.0125
  139SAPE    HS15106   1.283   2.073  10.304 -0.1322  2.0758  0.7621
  139SAPE   O2115107   1.350   1.887  10.236  0.2483  0.3340  0.1906
  139SAPE   C2115108   1.228   1.836  10.247  0.4962 -0.2413 -0.0458
  139SAPE   O2215109   1.127   1.897  10.267 -0.5145  0.2380 -0.3348
  139SAPE   C2215110   1.235   1.680  10.243 -0.0534 -0.6321 -1.0432
  139SAPE   H2R15111   1.326   1.650  10.186  1.0072 -0.4467  0.4982
  139SAPE   H2S15112   1.268   1.646  10.343 -0.4995  0.9849 -0.3096
  139SAPE    C315113   1.445   2.084  10.171  0.6058  0.0017 -0.2189
  139SAPE    HX15114   1.432   2.192  10.190 -0.0566 -0.3818  1.7699
  139SAPE    HY15115   1.387   2.071  10.077  1.2805 -0.0638 -0.6334
  139SAPE   O3115116   1.582   2.055  10.155 -0.6135 -0.1607 -0.4390
  139SAPE   C3115117   1.648   2.136  10.065 -0.2688  0.6829  0.6577
  139SAPE   O3215118   1.599   2.235  10.017  0.4827  0.2873 -0.0685
  139SAPE   C3215119   1.788   2.086  10.032  0.5793 -0.1404 -0.1039
  139SAPE   H2X15120   1.784   1.976  10.017  2.2613  0.0172 -2.2391
  139SAPE   H2Y15121   1.854   2.099  10.120  0.4340 -1.0616  0.1449
  139SAPE   C2315122   1.106   1.609  10.197  0.2012 -0.5022 -0.8448
  139SAPE   H3R15123   1.031   1.632  10.276 -1.3541  2.2756 -2.9758
  139SAPE   H3S15124   1.122   1.499  10.193  1.4720 -0.3359 -0.8032
  139SAPE   C2415125   1.052   1.648  10.062  0.4547  0.3592  0.2268
  139SAPE   H4R15126   1.018   1.754  10.063 -0.0108  0.2868 -2.1822
  139SAPE   H4S15127   0.966   1.579  10.045  0.9199 -0.2008  0.1412
  139SAPE   C2515128   1.158   1.632   9.959  0.0021 -0.0425  0.0629
  139SAPE   H5R15129   1.206   1.534   9.961  0.8646  0.3789  1.5821
  139SAPE   C2615130   1.200   1.720   9.871 -0.4795  0.1123 -0.2684
  139SAPE   H6R15131   1.284   1.687   9.809 -0.5519 -0.8981  0.1461
  139SAPE   C2715132   1.152   1.860   9.860 -0.1152 -0.8378 -0.2021
  139SAPE   H7R15133   1.157   1.915   9.956  1.7724  3.3665 -2.4179
  139SAPE   H7S15134   1.044   1.861   9.830 -0.1993 -2.0685  0.0249
  139SAPE   C2815135   1.243   1.940   9.763 -0.0177  0.8493 -0.1273
  139SAPE   H8R15136   1.310   2.019   9.800  0.9738  0.1647 -0.4244
  139SAPE   C2915137   1.233   1.913   9.629 -1.0276 -0.2235 -0.1613
  139SAPE   H9R15138   1.302   1.963   9.560  0.3906 -1.1459  0.5390
  139SAPE  C21015139   1.150   1.808   9.563 -0.2072  0.2927 -0.0908
  139SAPE  H10R15140   1.080   1.849   9.487 -2.3877  0.0568  1.7178
  139SAPE  H10S15141   1.084   1.752   9.632 -1.0231  0.3002 -0.8464
  139SAPE  C21115142   1.237   1.704   9.485  0.0390  0.7045  0.2294
  139SAPE  H11R15143   1.278   1.624   9.547 -0.3692 -2.0190 -2.7407
  139SAPE  C21215144   1.279   1.708   9.352  0.2833 -0.1058 -0.4351
  139SAPE  H12R15145   1.344   1.623   9.328  0.9705  0.3423 -0.1705
  139SAPE  C21315146   1.262   1.806   9.245  1.1194 -0.5234 -0.0022
  139SAPE  H13R15147   1.362   1.850   9.224  0.2872  1.0443 -0.9125
  139SAPE  H13S15148   1.206   1.894   9.285  1.0508 -0.1059 -0.9799
  139SAPE  C21415149   1.194   1.784   9.114  1.2989 -0.4034  0.7590
  139SAPE  H14R15150   1.085   1.796   9.119  1.4993  1.7296  0.5677
  139SAPE  C21515151   1.242   1.723   9.006  1.1716 -0.0163 -0.3299
  139SAPE  H15R15152   1.173   1.720   8.921 -0.1897  1.8256  0.6349
  139SAPE  C21615153   1.374   1.663   8.993  1.4593 -0.2457  0.1472
  139SAPE  H16R15154   1.377   1.558   8.956  1.7712  0.2010 -1.1581
  139SAPE  H16S15155   1.435   1.675   9.085  1.4292 -1.2692  0.3057
  139SAPE  C21715156   1.452   1.742   8.890  0.2610 -0.7111 -0.1066
  139SAPE  H17R15157   1.551   1.692   8.887 -0.2363 -1.8327  1.2368
  139SAPE  H17S15158   1.485   1.842   8.923  3.6367 -2.0577  1.0688
  139SAPE  C21815159   1.386   1.763   8.750  0.4095  0.6192  1.0415
  139SAPE  H18R15160   1.285   1.809   8.758  0.9710  2.1972 -0.4523
  139SAPE  H18S15161   1.353   1.665   8.708  0.2539  1.6746 -1.4543
  139SAPE  C21915162   1.478   1.836   8.647 -0.5747 -0.4912  0.0217
  139SAPE  H19R15163   1.487   1.943   8.673  2.1001 -0.6383 -0.0001
  139SAPE  H19S15164   1.431   1.843   8.546 -1.7629  2.5210  0.6779
  139SAPE  C22015165   1.611   1.759   8.626  0.1342 -0.0365  0.2768
  139SAPE  H20R15166   1.674   1.761   8.717  0.2201  0.6885  0.2098
  139SAPE  H20S15167   1.670   1.798   8.540  1.1878  1.9492  1.8046
  139SAPE  H20T15168   1.588   1.652   8.607  2.9281 -0.3408 -2.0040
  139SAPE   C3315169   1.832   2.166   9.903  0.7776  0.1790  0.4546
  139SAPE   H3X15170   1.942   2.150   9.895  0.6065 -0.9073 -0.0030
  139SAPE   H3Y15171   1.819   2.276   9.913 -0.7828 -0.1260  2.3577
  139SAPE   C3415172   1.773   2.113   9.778 -0.4072 -0.1367  0.6634
  139SAPE   H4X15173   1.663   2.127   9.771 -0.2504  0.0944 -2.9741
  139SAPE   H4Y15174   1.801   2.005   9.777  4.8520  0.9593  1.0391
  139SAPE   C3515175   1.850   2.177   9.654  0.0880  0.0514  0.4353
  139SAPE   H5X15176   1.960   2.162   9.664  0.1074  0.4794  0.8671
  139SAPE   H5Y15177   1.835   2.287   9.659  0.0869  0.0538  0.3770
  139SAPE   C3615178   1.799   2.128   9.523 -0.4564  0.7469  0.3906
  139SAPE   H6X15179   1.692   2.158   9.524 -0.1850  2.0879  3.9056
  139SAPE   H6Y15180   1.818   2.019   9.516  0.0551  0.7012  2.1426
  139SAPE   C3715181   1.867   2.195   9.403  0.0346 -0.1220  0.2266
  139SAPE   H7X15182   1.826   2.298   9.408  1.4587  0.4251  1.7586
  139SAPE   H7Y15183   1.838   2.151   9.305 -1.0312  2.3799 -0.6566
  139SAPE   C3815184   2.027   2.203   9.387  0.4485  0.3519 -0.1583
  139SAPE   H8X15185   2.057   2.097   9.369 -1.4393 -0.3068  0.3413
  139SAPE   H8Y15186   2.082   2.252   9.470  1.5504  2.0759 -1.8368
  139SAPE   C3915187   2.064   2.275   9.260 -0.8599 -0.2084  0.7251
  139SAPE   H9X15188   2.021   2.377   9.259 -0.6606 -0.1235  0.1748
  139SAPE   H9Y15189   2.017   2.217   9.177  2.7392 -0.1052 -1.6494
  139SAPE  C31015190   2.215   2.272   9.233  0.7363  0.2088 -0.4665
  139SAPE  H10X15191   2.245   2.168   9.258 -0.6098  0.1592  1.1870
  139SAPE  H10Y15192   2.274   2.338   9.300 -0.8683  2.4373 -1.1172
  139SAPE  C31115193   2.240   2.312   9.088 -0.4543 -0.1804  0.0937
  139SAPE  H11X15194   2.160   2.270   9.023 -0.0569  0.0089 -0.5263
  139SAPE  H11Y15195   2.338   2.265   9.066  0.0156 -0.1750  2.0377
  139SAPE  C31215196   2.254   2.468   9.064 -0.0226  0.5300  0.2503
  139SAPE  H12X15197   2.316   2.505   9.148 -1.6882  2.5164  0.7061
  139SAPE  H12Y15198   2.158   2.519   9.087 -0.8041  0.1812 -1.9547
  139SAPE  C31315199   2.305   2.512   8.926  0.1350 -0.3167  0.1141
  139SAPE  H13X15200   2.237   2.470   8.848 -0.2476 -1.8758  1.2553
  139SAPE  H13Y15201   2.405   2.466   8.916  0.3179  0.0676  0.1456
  139SAPE  C31415202   2.302   2.664   8.914  0.2308  0.0558  0.0492
  139SAPE  H14X15203   2.362   2.712   8.993 -0.2605 -0.8764  1.0130
  139SAPE  H14Y15204   2.192   2.678   8.928  0.1006  0.4551 -1.2034
  139SAPE  C31515205   2.362   2.706   8.785 -0.0940 -0.4262  0.8538
  139SAPE  H15X15206   2.325   2.809   8.763  2.5814  0.2680 -0.7982
  139SAPE  H15Y15207   2.318   2.636   8.712 -1.1221 -1.4228  2.3564
  139SAPE  C31615208   2.511   2.707   8.783  0.4839 -0.3315  0.1336
  139SAPE  H16X15209   2.546   2.775   8.864  0.1883  0.1737 -0.1592
  139SAPE  H16Y15210   2.558   2.612   8.815  3.0262  1.4153  2.0930
  139SAPE  C31715211   2.583   2.765   8.656 -0.6902 -0.0603 -0.7989
  139SAPE  H17X15212   2.579   2.684   8.580  2.7526  0.4753 -1.7459
  139SAPE  H17Y15213   2.691   2.760   8.683 -0.5020 -0.3475 -1.5759
  139SAPE  C31815214   2.544   2.907   8.611  0.0673  0.2142  0.1098
  139SAPE  H18X15215   2.606   2.938   8.524 -1.1639  0.7227 -0.6042
  139SAPE  H18Y15216   2.556   2.981   8.693  0.6127 -0.8176  0.9885
  139SAPE  H18Z15217   2.441   2.904   8.571 -0.8640  0.5647  2.3436
  140SAPE     N15218   3.919   5.340  10.835  0.7865 -0.0931 -0.0586
  140SAPE   HN115219   3.938   5.332  10.937 -0.0783  3.3372  0.4766
  140SAPE   HN215220   3.990   5.404  10.793 -1.7450  3.4094  0.5194
  140SAPE   HN315221   3.825   5.385  10.835  0.8040  0.0237  1.9897
  140SAPE   C1215222   3.911   5.200  10.780 -0.3713  0.2091 -0.1936
  140SAPE  H12A15223   4.018   5.169  10.770 -0.1530  0.6224  0.7971
  140SAPE  H12B15224   3.853   5.199  10.685 -0.7228 -0.9106  0.0143
  140SAPE   C1115225   3.855   5.107  10.886  0.1436 -0.3085  0.0200
  140SAPE  H11A15226   3.838   5.005  10.844  0.1877 -0.1106 -0.4934
  140SAPE  H11B15227   3.748   5.129  10.902 -0.6581 -4.2309  1.0184
  140SAPE     P15228   4.036   5.046  11.063  0.2202  0.4640 -0.4906
  140SAPE   O1315229   4.109   5.124  11.160 -0.6172  0.0276  0.1406
  140SAPE   O1415230   3.990   4.910  11.108  0.4479  0.0562 -0.1609
  140SAPE   O1215231   3.908   5.127  11.018 -0.4148  0.0576  0.3379
  140SAPE   O1115232   4.117   5.038  10.929  0.6127  0.3212 -0.4279
  140SAPE    C115233   4.152   4.896  10.899  0.6013  0.8621 -0.1596
  140SAPE    HA15234   4.210   4.850  10.982 -1.5340 -2.6452 -0.3922
  140SAPE    HB15235   4.063   4.834  10.876  2.1386 -1.7997  0.6320
  140SAPE    C215236   4.260   4.889  10.787 -0.1423  0.3608 -0.1244
  140SAPE    HS15237   4.283   4.785  10.755  1.1025  1.0296 -1.5119
  140SAPE   O2115238   4.381   4.939  10.831 -0.1246  0.1283  0.1596
  140SAPE   C2115239   4.466   4.854  10.889  0.3572  0.9280  0.1638
  140SAPE   O2215240   4.434   4.735  10.914  0.4752 -0.6916  0.2867
  140SAPE   C2215241   4.594   4.933  10.942 -0.7484  0.3533 -0.6169
  140SAPE   H2R15242   4.578   4.996  11.032  0.3321 -2.4348  1.6960
  140SAPE   H2S15243   4.654   4.847  10.980 -1.2206 -0.9843 -2.7287
  140SAPE    C315244   4.227   4.962  10.653  0.3371 -0.3138 -0.2868
  140SAPE    HX15245   4.316   4.939  10.591  1.6181  0.4385  1.1956
  140SAPE    HY15246   4.221   5.071  10.674 -0.0042 -0.5336  0.8269
  140SAPE   O3115247   4.104   4.913  10.599 -0.1601 -0.1479 -0.1882
  140SAPE   C3115248   4.077   4.969  10.488  0.1593  0.1873  0.3352
  140SAPE   O3215249   4.148   5.060  10.436  0.4800  0.6964 -0.7631
  140SAPE   C3215250   3.960   4.905  10.428 -0.0900 -0.1601  0.2462
  140SAPE   H2X15251   3.883   4.908  10.508  0.2577  1.8882  0.5429
  140SAPE   H2Y15252   3.977   4.795  10.418  0.0229  0.0250 -1.9731
  140SAPE   C2315253   4.674   5.013  10.835 -0.5316  0.5750 -0.1361
  140SAPE   H3R15254   4.740   5.075  10.900 -1.2285 -0.5949  1.8033
  140SAPE   H3S15255   4.605   5.077  10.777 -0.0172  1.5308  0.2806
  140SAPE   C2415256   4.755   4.926  10.729 -0.0871 -0.5252 -0.5015
  140SAPE   H4R15257   4.823   4.871  10.797 -0.0495 -0.3576 -0.4021
  140SAPE   H4S15258   4.817   4.990  10.663 -0.0222 -0.0044  0.0570
  140SAPE   C2515259   4.693   4.818  10.646 -0.4594  0.4147  0.3746
  140SAPE   H5R15260   4.704   4.716  10.686  0.7037  1.2459  2.2964
  140SAPE   C2615261   4.628   4.834  10.526 -0.4462  0.4910  0.3948
  140SAPE   H6R15262   4.599   4.743  10.472  0.8435  0.8584 -0.9917
  140SAPE   C2715263   4.608   4.968  10.459 -0.2524 -0.9945  0.0442
  140SAPE   H7R15264   4.705   4.981  10.406  0.1405  0.1393  1.0041
  140SAPE   H7S15265   4.604   5.040  10.543  0.9941 -1.4577  0.5293
  140SAPE   C2815266   4.508   4.984  10.359  0.0812 -0.1317 -0.4423
  140SAPE   H8R15267   4.413   4.931  10.371 -1.0003  0.8982 -3.4043
  140SAPE   C2915268   4.523   5.050  10.244 -0.0116  0.8420 -0.0051
  140SAPE   H9R15269   4.444   5.043  10.168  1.4688  0.5770 -1.5795
  140SAPE  C21015270   4.648   5.111  10.186  0.6580 -0.6657  0.1871
  140SAPE  H10R15271   4.709   5.156  10.266  0.8631 -2.3151  0.9982
  140SAPE  H10S15272   4.624   5.194  10.115 -0.9759 -0.2406  1.1729
  140SAPE  C21115273   4.746   5.011  10.126  0.1138  0.1895 -1.2197
  140SAPE  H11R15274   4.748   4.920  10.188  2.2142  1.1671  0.2689
  140SAPE  C21215275   4.826   5.036  10.022 -0.1375  0.0273 -0.4662
  140SAPE  H12R15276   4.901   4.959  10.002  2.3218  1.8089  1.3124
  140SAPE  C21315277   4.834   5.167   9.953  0.1772 -1.2890  0.9782
  140SAPE  H13R15278   4.896   5.241  10.008  0.5861 -0.1827 -0.8985
  140SAPE  H13S15279   4.732   5.208   9.940  0.3482 -1.2651 -0.4446
  140SAPE  C21415280   4.899   5.155   9.820  0.5815  0.9213  0.0891
  140SAPE  H14R15281   5.007   5.176   9.819  0.5689  1.0901  1.0381
  140SAPE  C21515282   4.832   5.129   9.704  0.2309 -0.6102  0.4462
  140SAPE  H15R15283   4.884   5.140   9.608  0.8744  0.0976  0.8611
  140SAPE  C21615284   4.687   5.095   9.702 -0.6286  0.1698  0.1726
  140SAPE  H16R15285   4.652   5.058   9.801  0.7936 -0.6909  0.3777
  140SAPE  H16S15286   4.666   5.017   9.626  0.6625 -0.8146  0.7797
  140SAPE  C21715287   4.584   5.210   9.678  0.0637  0.1976  0.0854
  140SAPE  H17R15288   4.626   5.300   9.727  0.6819  1.7322 -3.0128
  140SAPE  H17S15289   4.492   5.178   9.731  0.1379  1.7265  1.2001
  140SAPE  C21815290   4.562   5.232   9.532  0.5614  0.0319  0.5962
  140SAPE  H18R15291   4.549   5.135   9.478 -1.4049  1.1126 -1.0223
  140SAPE  H18S15292   4.655   5.285   9.502  1.3314 -0.9222  1.2202
  140SAPE  C21915293   4.441   5.325   9.493 -0.6323 -0.0817 -0.1577
  140SAPE  H19R15294   4.442   5.419   9.552 -0.7142  0.2065 -0.6105
  140SAPE  H19S15295   4.342   5.276   9.505 -1.6450  1.9190  0.0424
  140SAPE  C22015296   4.447   5.351   9.337  0.2604 -0.1959  0.6162
  140SAPE  H20R15297   4.360   5.411   9.301  1.4337  1.4042  0.3224
  140SAPE  H20S15298   4.460   5.254   9.285  2.6115 -0.0750  0.8846
  140SAPE  H20T15299   4.539   5.409   9.314  0.1029  0.4003  1.4173
  140SAPE   C3315300   3.928   4.961  10.287 -0.1031 -0.2581  0.0988
  140SAPE   H3X15301   4.025   4.966  10.233 -0.5923  2.4429 -0.7089
  140SAPE   H3Y15302   3.888   5.064  10.302 -1.9258 -1.0168  0.8255
  140SAPE   C3415303   3.834   4.884  10.203  0.4619  0.0192  0.5528
  140SAPE   H4X15304   3.741   4.875  10.263  0.0850  1.1177  0.1652
  140SAPE   H4Y15305   3.856   4.780  10.171  2.2797  0.6926 -0.5486
  140SAPE   C3515306   3.792   4.958  10.062  0.8407 -0.5038 -0.5656
  140SAPE   H5X15307   3.786   4.869   9.996  2.3800 -1.1647  0.1433
  140SAPE   H5Y15308   3.870   5.027  10.024  0.7124  1.3445  2.2442
  140SAPE   C3615309   3.660   5.032  10.064  0.1784 -0.5035  0.5100
  140SAPE   H6X15310   3.674   5.108  10.144  1.0883  1.9399 -1.8292
  140SAPE   H6Y15311   3.567   4.974  10.081 -0.6029  0.6181  0.2446
  140SAPE   C3715312   3.618   5.106   9.933 -0.1854  0.4663 -0.8017
  140SAPE   H7X15313   3.702   5.174   9.906  1.0862 -0.6523  0.1800
  140SAPE   H7Y15314   3.529   5.173   9.941  1.0847  2.1289  0.2721
  140SAPE   C3815315   3.589   5.014   9.819  0.7322  0.7495 -0.4058
  140SAPE   H8X15316   3.505   4.948   9.849 -0.2609  2.3296  0.4695
  140SAPE   H8Y15317   3.671   4.947   9.787  1.1119  1.7624 -1.6709
  140SAPE   C3915318   3.544   5.097   9.697  0.1613  0.1547 -0.2108
  140SAPE   H9X15319   3.628   5.157   9.658 -0.1103 -0.3103 -1.5549
  140SAPE   H9Y15320   3.458   5.165   9.717 -0.3906 -0.4808 -0.3506
  140SAPE  C31015321   3.510   4.998   9.587  0.0482  0.9467  0.2640
  140SAPE  H10X15322   3.431   4.926   9.617  1.3950 -1.1621 -1.0121
  140SAPE  H10Y15323   3.604   4.946   9.563  0.4148  1.2481  1.0252
  140SAPE  C31115324   3.445   5.083   9.472  0.5648  0.8126  0.7688
  140SAPE  H11X15325   3.502   5.178   9.468  0.3642  0.9957  1.8865
  140SAPE  H11Y15326   3.340   5.103   9.503  0.5951  2.0829  0.1118
  140SAPE  C31215327   3.451   5.002   9.337  0.5712 -0.0065  0.1050
  140SAPE  H12X15328   3.385   4.912   9.346  1.1965 -0.4230  0.5612
  140SAPE  H12Y15329   3.552   4.958   9.323 -0.0135 -1.9428  1.4651
  140SAPE  C31315330   3.416   5.087   9.219  0.4203 -0.0708  0.5512
  140SAPE  H13X15331   3.494   5.166   9.226  0.6766 -0.4452  4.5482
  140SAPE  H13Y15332   3.314   5.126   9.241  0.2338 -1.5180  2.5485
  140SAPE  C31415333   3.418   5.021   9.081 -0.3315  0.4326  0.0640
  140SAPE  H14X15334   3.371   4.921   9.083  1.1472 -0.2982 -0.5371
  140SAPE  H14Y15335   3.521   5.000   9.045  0.0566  2.2794 -0.0478
  140SAPE  C31515336   3.348   5.122   8.984  0.8165  0.6879 -0.5209
  140SAPE  H15X15337   3.384   5.225   9.001  0.6171  0.8211 -0.8825
  140SAPE  H15Y15338   3.241   5.119   9.014  0.6922 -0.0682 -0.9868
  140SAPE  C31615339   3.360   5.087   8.833  1.4287 -0.1566  0.6745
  140SAPE  H16X15340   3.355   4.977   8.821  0.2858  0.2031 -3.8394
  140SAPE  H16Y15341   3.453   5.126   8.785 -0.3236 -0.1030 -3.0044
  140SAPE  C31715342   3.238   5.147   8.747  0.1114  0.2030 -0.3196
  140SAPE  H17X15343   3.267   5.132   8.641  2.0842 -0.0312  0.2092
  140SAPE  H17Y15344   3.237   5.256   8.768 -0.4915  0.1912 -0.2539
  140SAPE  C31815345   3.095   5.092   8.785  0.2116 -0.5232  0.3593
  140SAPE  H18X15346   3.016   5.128   8.716 -0.5122 -1.7601  0.5164
  140SAPE  H18Y15347   3.057   5.118   8.886  1.3764 -1.0962  0.9671
  140SAPE  H18Z15348   3.083   4.982   8.790 -0.5038 -0.3963  2.2603
  141SAPE     N15349   5.296   5.765  10.732  0.1789  0.2311 -0.2584
  141SAPE   HN115350   5.272   5.754  10.832 -0.6216  0.1845 -0.4496
  141SAPE   HN215351   5.398   5.748  10.725  0.1958 -0.5866  1.5539
  141SAPE   HN315352   5.269   5.860  10.701 -1.9981 -0.7533 -1.6015
  141SAPE   C1215353   5.223   5.651  10.664  0.8210 -0.0831  0.5329
  141SAPE  H12A15354   5.204   5.684  10.560  1.2833  2.0831  1.0851
  141SAPE  H12B15355   5.124   5.636  10.713 -0.0670 -0.1295 -1.1713
  141SAPE   C1115356   5.306   5.525  10.671  0.3295  0.9436 -0.1432
  141SAPE  H11A15357   5.389   5.542  10.599  2.2446 -1.4441  1.3527
  141SAPE  H11B15358   5.251   5.439  10.629 -2.6704  3.3271 -1.4641
  141SAPE     P15359   5.313   5.403  10.898 -0.2244 -0.1914 -0.5433
  141SAPE   O1315360   5.415   5.390  11.003 -0.2270 -0.0139  0.2099
  141SAPE   O1415361   5.179   5.443  10.938 -0.3018  0.7374 -0.0218
  141SAPE   O1215362   5.368   5.507  10.799  0.2103 -0.6142  0.1593
  141SAPE   O1115363   5.311   5.273  10.811 -0.1017  0.0451 -0.3792
  141SAPE    C115364   5.436   5.193  10.809  0.2919 -0.0198  0.7524
  141SAPE    HA15365   5.525   5.248  10.771  0.0027  1.1071  1.6519
  141SAPE    HB15366   5.453   5.155  10.912  0.6780 -2.4144 -0.1381
  141SAPE    C215367   5.412   5.067  10.712  0.0687 -0.0448 -0.3079
  141SAPE    HS15368   5.504   5.005  10.719 -0.5036 -0.8193  0.6404
  141SAPE   O2115369   5.389   5.114  10.569  0.0005 -0.4452  0.2708
  141SAPE   C2115370   5.481   5.190  10.519 -0.0804 -0.1027 -0.7247
  141SAPE   O2215371   5.594   5.198  10.564 -0.2289 -1.3674 -0.0031
  141SAPE   C2215372   5.426   5.262  10.395  1.1168  0.0485  0.3039
  141SAPE   H2R15373   5.315   5.272  10.398  0.8383 -2.5463  2.3322
  141SAPE   H2S15374   5.475   5.361  10.380  0.7547  0.7963  3.2988
  141SAPE    C315375   5.285   4.984  10.768 -1.2045 -0.2039  0.1294
  141SAPE    HX15376   5.205   5.058  10.790 -0.5765 -0.1980  2.7206
  141SAPE    HY15377   5.323   4.946  10.865  0.1710  1.8106  0.4445
  141SAPE   O3115378   5.251   4.878  10.677  0.1429 -0.1589 -0.0813
  141SAPE   C3115379   5.162   4.921  10.585  0.2124  0.2439 -0.0455
  141SAPE   O3215380   5.114   5.031  10.585  0.7941  0.0857  0.0858
  141SAPE   C3215381   5.142   4.809  10.479  0.1986  0.2096  0.1336
  141SAPE   H2X15382   5.158   4.705  10.515 -0.1220  1.1389  3.3050
  141SAPE   H2Y15383   5.235   4.835  10.424 -0.7708  0.3719 -1.4747
  141SAPE   C2315384   5.472   5.185  10.269  0.4329  0.3314 -0.3180
  141SAPE   H3R15385   5.579   5.155  10.267  0.5453  0.7628 -0.9480
  141SAPE   H3S15386   5.469   5.254  10.183  1.0745  0.0090 -0.6039
  141SAPE   C2415387   5.387   5.057  10.229 -1.0664 -0.6767  0.4539
  141SAPE   H4R15388   5.395   4.972  10.300  0.1335 -0.6138  0.4254
  141SAPE   H4S15389   5.455   5.027  10.146  1.3670  3.6033  0.5452
  141SAPE   C2515390   5.250   5.079  10.183  0.0205 -0.0599 -0.3093
  141SAPE   H5R15391   5.187   5.112  10.267 -0.3044  3.2047 -1.7055
  141SAPE   C2615392   5.187   5.071  10.060  0.3326 -0.2967 -0.1859
  141SAPE   H6R15393   5.084   5.109  10.052  0.2273 -0.0370  1.7972
  141SAPE   C2715394   5.255   5.035   9.933  0.1889 -0.3825  0.4122
  141SAPE   H7R15395   5.364   5.053   9.947  0.4446 -1.7558  0.2504
  141SAPE   H7S15396   5.219   5.100   9.850  3.2422 -1.4222 -1.9015
  141SAPE   C2815397   5.238   4.899   9.885 -0.2756  0.6474  0.3201
  141SAPE   H8R15398   5.255   4.823   9.963  0.6761  0.0313 -0.4597
  141SAPE   C2915399   5.207   4.850   9.762  0.4067  0.1973 -0.5681
  141SAPE   H9R15400   5.214   4.741   9.748  0.9388  0.3077 -1.2273
  141SAPE  C21015401   5.190   4.936   9.641  0.0951 -0.6878  0.2766
  141SAPE  H10R15402   5.195   5.044   9.668 -3.5253 -0.4743  0.5167
  141SAPE  H10S15403   5.089   4.916   9.600  0.0063  0.9339 -0.3938
  141SAPE  C21115404   5.295   4.922   9.533 -0.1014  0.8192 -1.0752
  141SAPE  H11R15405   5.390   4.888   9.576 -0.1287  2.1525  0.1570
  141SAPE  C21215406   5.288   4.951   9.402  0.7828  0.6636  0.1186
  141SAPE  H12R15407   5.375   4.936   9.336 -0.0574  1.6366 -1.2830
  141SAPE  C21315408   5.165   5.000   9.330 -0.2143  0.5153 -0.2203
  141SAPE  H13R15409   5.144   5.105   9.360  0.5759  0.3004  1.1394
  141SAPE  H13S15410   5.071   4.957   9.369  0.5458 -0.8726  0.1270
  141SAPE  C21415411   5.176   4.979   9.182 -0.6946 -0.1124 -0.1324
  141SAPE  H14R15412   5.108   4.906   9.136 -2.3585 -0.6071  2.8676
  141SAPE  C21515413   5.244   5.056   9.088  0.3139  0.9404 -0.2730
  141SAPE  H15R15414   5.217   5.031   8.985 -0.9702  1.1414  0.0012
  141SAPE  C21615415   5.333   5.173   9.116 -1.3630  0.6315 -0.5249
  141SAPE  H16R15416   5.431   5.145   9.070 -2.6150 -1.3565 -2.1455
  141SAPE  H16S15417   5.362   5.191   9.222  0.6694  4.0508 -1.5077
  141SAPE  C21715418   5.276   5.300   9.052 -1.3447 -0.4923 -0.2434
  141SAPE  H17R15419   5.179   5.329   9.097 -0.9520  0.8169 -0.2005
  141SAPE  H17S15420   5.271   5.290   8.942 -1.7871  3.5875 -0.7474
  141SAPE  C21815421   5.375   5.421   9.066 -0.4994  0.3100  0.3654
  141SAPE  H18R15422   5.476   5.390   9.032 -0.7490  0.4986 -0.5823
  141SAPE  H18S15423   5.381   5.443   9.175  1.3048  0.3026  0.3024
  141SAPE  C21915424   5.340   5.541   8.980  0.3578 -0.0006  0.0585
  141SAPE  H19R15425   5.304   5.501   8.883  2.0944 -3.8813  0.8538
  141SAPE  H19S15426   5.422   5.604   8.939 -0.1722  0.2043 -0.7314
  141SAPE  C22015427   5.228   5.624   9.047  0.6786  0.6424  0.2189
  141SAPE  H20R15428   5.198   5.702   8.975 -0.2861 -1.0962 -1.3466
  141SAPE  H20S15429   5.268   5.661   9.145  3.3319  1.6696 -1.1418
  141SAPE  H20T15430   5.150   5.545   9.057  0.2170  0.6606 -2.5678
  141SAPE   C3315431   5.006   4.828  10.404  0.8578  0.1143 -0.3942
  141SAPE   H3X15432   5.005   4.916  10.337 -0.2530 -1.2407 -2.2594
  141SAPE   H3Y15433   4.932   4.852  10.483  1.9081  0.3131  0.5683
  141SAPE   C3415434   4.957   4.711  10.332 -0.6973  0.9084  0.0356
  141SAPE   H4X15435   4.847   4.715  10.326 -0.9182 -1.4691  1.3579
  141SAPE   H4Y15436   4.987   4.619  10.388  1.3753  1.3853 -0.1800
  141SAPE   C3515437   5.016   4.709  10.183  0.0102 -0.5945 -0.0306
  141SAPE   H5X15438   5.120   4.670  10.181  0.5675  0.8498 -1.3082
  141SAPE   H5Y15439   5.028   4.816  10.156  1.8392 -0.0400  2.5600
  141SAPE   C3615440   4.920   4.645  10.088 -0.3106  0.1555  0.3358
  141SAPE   H6X15441   4.825   4.699  10.110 -0.8626 -1.3181  1.7718
  141SAPE   H6Y15442   4.898   4.537  10.108 -2.6870  0.3737 -0.6872
  141SAPE   C3715443   4.948   4.675   9.941  0.4033 -0.0330  0.4595
  141SAPE   H7X15444   5.048   4.635   9.913 -0.7496 -2.0648 -1.0953
  141SAPE   H7Y15445   4.944   4.784   9.917 -0.0745  0.0494  0.9133
  141SAPE   C3815446   4.856   4.597   9.847  0.3112  0.0419  0.1326
  141SAPE   H8X15447   4.752   4.636   9.852  0.9383  2.1488 -1.6399
  141SAPE   H8Y15448   4.862   4.487   9.866 -1.0648  0.0307  0.5676
  141SAPE   C3915449   4.896   4.622   9.701  0.3697 -0.2674  0.9119
  141SAPE   H9X15450   5.000   4.587   9.683  0.3858  0.9523 -1.8929
  141SAPE   H9Y15451   4.873   4.730   9.685 -2.0303 -0.8633 -0.0813
  141SAPE  C31015452   4.794   4.554   9.603  0.7125  0.6198  0.0720
  141SAPE  H10X15453   4.688   4.572   9.634 -0.0302 -1.3527 -1.0853
  141SAPE  H10Y15454   4.803   4.445   9.624  0.8486  0.6664  0.2500
  141SAPE  C31115455   4.798   4.595   9.457  0.7593 -0.5449 -0.5310
  141SAPE  H11X15456   4.775   4.703   9.450  0.6256 -0.5133  0.2854
  141SAPE  H11Y15457   4.731   4.534   9.393 -0.7571  1.4854 -0.9740
  141SAPE  C31215458   4.926   4.572   9.386 -0.0376  0.1100  0.2784
  141SAPE  H12X15459   4.950   4.464   9.396  1.2930  0.4520  1.0899
  141SAPE  H12Y15460   5.016   4.620   9.430  1.1535  0.4039 -2.2800
  141SAPE  C31315461   4.918   4.613   9.237 -0.4080  0.0497  0.5672
  141SAPE  H13X15462   4.882   4.718   9.231  1.0010  0.5653  0.7179
  141SAPE  H13Y15463   4.842   4.553   9.183 -1.9781  2.4141 -0.0204
  141SAPE  C31415464   5.052   4.606   9.157  0.2103  0.2068 -0.1598
  141SAPE  H14X15465   5.078   4.498   9.158  1.7324  0.5526  0.3053
  141SAPE  H14Y15466   5.139   4.645   9.213  0.7595 -0.8841 -0.2231
  141SAPE  C31515467   5.048   4.652   9.009 -0.6900  0.2513 -0.0657
  141SAPE  H15X15468   5.030   4.761   9.007 -0.9365  0.2912  2.1544
  141SAPE  H15Y15469   4.967   4.593   8.960  0.5960  0.5786 -2.7666
  141SAPE  C31615470   5.186   4.631   8.938  0.2331 -0.3730 -0.4952
  141SAPE  H16X15471   5.213   4.524   8.945 -2.3888 -1.1093 -0.4937
  141SAPE  H16Y15472   5.263   4.692   8.991  0.1879 -0.5380 -0.2367
  141SAPE  C31715473   5.172   4.660   8.789 -0.5055  0.0272  0.1055
  141SAPE  H17X15474   5.134   4.765   8.790 -3.9603 -1.1070  0.9833
  141SAPE  H17Y15475   5.098   4.590   8.745  0.9540 -1.0370 -0.7604
  141SAPE  C31815476   5.304   4.639   8.709  0.5746 -0.2613 -0.7179
  141SAPE  H18X15477   5.278   4.649   8.602 -0.8603  2.1475 -0.2403
  141SAPE  H18Y15478   5.329   4.536   8.743 -0.6969 -0.4209 -0.2056
  141SAPE  H18Z15479   5.380   4.713   8.740 -0.4382  1.1973 -1.6088
  142SAPE     N15480   4.432   4.473  10.986 -0.1384  0.2705  0.3645
  142SAPE   HN115481   4.476   4.563  11.016  0.6924  0.5334 -1.5263
  142SAPE   HN215482   4.334   4.495  10.956  1.1877  1.4023 -3.8806
  142SAPE   HN315483   4.424   4.410  11.068  0.8491 -0.1463  0.1476
  142SAPE   C1215484   4.504   4.417  10.863  0.1960  0.1267 -0.4709
  142SAPE  H12A15485   4.602   4.390  10.907  0.2796  1.8794  0.5105
  142SAPE  H12B15486   4.518   4.505  10.797  0.7358  0.8636  0.6043
  142SAPE   C1115487   4.428   4.290  10.808  0.7176 -0.2940  0.8182
  142SAPE  H11A15488   4.500   4.257  10.729 -0.3286  0.5241 -0.5289
  142SAPE  H11B15489   4.341   4.319  10.746  2.6290  0.7945 -1.5794
  142SAPE     P15490   4.430   4.053  10.910  0.0284 -0.2226 -0.6202
  142SAPE   O1315491   4.578   4.051  10.925 -0.6681  0.5239  0.1289
  142SAPE   O1415492   4.357   3.972  11.009 -0.2289 -0.3211 -0.0130
  142SAPE   O1215493   4.384   4.201  10.915  0.3598  0.3611  0.1547
  142SAPE   O1115494   4.378   4.010  10.766  0.4289 -0.2550 -0.4426
  142SAPE    C115495   4.237   4.039  10.730  0.2674  0.0866  0.4748
  142SAPE    HA15496   4.161   3.995  10.798  0.7037  1.1075  1.6737
  142SAPE    HB15497   4.219   4.148  10.733  0.7281  0.1838 -0.1270
  142SAPE    C215498   4.222   3.983  10.590 -0.1429 -0.5605 -0.0862
  142SAPE    HS15499   4.227   3.872  10.593  0.2017 -0.5416  2.4598
  142SAPE   O2115500   4.317   4.043  10.509 -0.0543 -0.3475 -0.1763
  142SAPE   C2115501   4.433   3.989  10.493  0.5746  0.0183 -0.1211
  142SAPE   O2215502   4.467   3.879  10.529  0.1062 -0.0253  0.1753
  142SAPE   C2215503   4.524   4.084  10.417 -0.2540 -0.1667  0.9582
  142SAPE   H2R15504   4.548   4.171  10.482  3.9056 -0.3246 -0.0858
  142SAPE   H2S15505   4.612   4.018  10.401  0.0892  0.8353 -2.0292
  142SAPE    C315506   4.086   4.029  10.534  0.0271 -0.0394  0.2022
  142SAPE    HX15507   4.092   4.139  10.545  4.6925  0.0554 -0.9839
  142SAPE    HY15508   4.005   4.001  10.604  0.3377  3.7777  2.3314
  142SAPE   O3115509   4.067   3.983  10.399  0.1014  0.5214  0.3900
  142SAPE   C3115510   4.020   4.072  10.314  0.7299 -0.5205 -0.0550
  142SAPE   O3215511   3.969   4.180  10.349 -0.1731  0.2098  0.5207
  142SAPE   C3215512   4.027   4.013  10.171  0.1190  0.4365 -0.6524
  142SAPE   H2X15513   3.940   3.944  10.171  1.2973 -1.0976 -0.7825
  142SAPE   H2Y15514   4.122   3.958  10.159 -0.7967 -0.8389 -2.6277
  142SAPE   C2315515   4.464   4.127  10.276  1.0211 -0.8716 -0.4205
  142SAPE   H3R15516   4.353   4.124  10.290  1.0561 -4.5808 -0.0404
  142SAPE   H3S15517   4.495   4.066  10.188  2.0845  0.6435 -1.1383
  142SAPE   C2415518   4.514   4.270  10.252  0.2854  0.1370  0.2512
  142SAPE   H4R15519   4.513   4.347  10.333 -1.2710  0.1859  0.2262
  142SAPE   H4S15520   4.458   4.305  10.163  0.5390  1.8663  0.7383
  142SAPE   C2515521   4.658   4.256  10.213 -0.3075  0.4821 -0.4045
  142SAPE   H5R15522   4.724   4.220  10.293 -0.2776  0.8444 -0.2634
  142SAPE   C2615523   4.715   4.282  10.092  0.5037 -0.0229  0.1278
  142SAPE   H6R15524   4.822   4.259  10.082  0.3379 -1.3864  1.1861
  142SAPE   C2715525   4.637   4.330   9.973 -0.2675 -0.1484 -0.0071
  142SAPE   H7R15526   4.697   4.387   9.898 -1.8341  1.7254  0.0814
  142SAPE   H7S15527   4.562   4.397  10.020  0.5750  0.4474  0.5207
  142SAPE   C2815528   4.553   4.230   9.902 -0.9751 -0.4413  0.8273
  142SAPE   H8R15529   4.566   4.128   9.940  2.6286 -0.8700 -1.0378
  142SAPE   C2915530   4.480   4.250   9.794  0.3089 -0.3250  0.2500
  142SAPE   H9R15531   4.410   4.176   9.753 -1.0722  1.5361 -0.9555
  142SAPE  C21015532   4.472   4.382   9.713  0.0325 -0.1599 -0.0519
  142SAPE  H10R15533   4.554   4.454   9.736  0.1136  0.0098 -0.8504
  142SAPE  H10S15534   4.377   4.433   9.739  0.5713  1.0042 -0.2864
  142SAPE  C21115535   4.468   4.347   9.565 -0.0408  0.3499  0.3107
  142SAPE  H11R15536   4.561   4.313   9.517 -1.5613 -1.0198 -1.8644
  142SAPE  C21215537   4.355   4.342   9.490  0.6395 -0.1249  0.5082
  142SAPE  H12R15538   4.357   4.332   9.380 -1.5002 -0.5062  0.4658
  142SAPE  C21315539   4.215   4.366   9.545 -0.1559  0.7431  0.4661
  142SAPE  H13R15540   4.213   4.471   9.580  1.5529  0.5075  1.3964
  142SAPE  H13S15541   4.203   4.313   9.642  0.0833  0.5472  0.3912
  142SAPE  C21415542   4.101   4.336   9.446 -0.7007  0.0941  0.2155
  142SAPE  H14R15543   4.124   4.357   9.340  0.0603 -1.0301  0.1411
  142SAPE  C21515544   3.986   4.270   9.468 -0.2518  0.1544 -0.0084
  142SAPE  H15R15545   3.913   4.269   9.386 -1.0300 -2.2945  0.6145
  142SAPE  C21615546   3.938   4.217   9.596  0.5109  0.0549  0.1213
  142SAPE  H16R15547   3.998   4.236   9.688  0.2867 -1.5334  0.6222
  142SAPE  H16S15548   3.923   4.108   9.584 -2.8535  0.2674  1.2972
  142SAPE  C21715549   3.796   4.267   9.620 -0.1901 -0.0282 -0.3916
  142SAPE  H17R15550   3.730   4.228   9.539 -0.4375 -0.8061  0.1659
  142SAPE  H17S15551   3.793   4.377   9.609  2.8457  0.4174  2.0422
  142SAPE  C21815552   3.741   4.231   9.756  1.3534  0.4077 -0.3098
  142SAPE  H18R15553   3.648   4.290   9.767  1.1415 -0.0992  0.7404
  142SAPE  H18S15554   3.817   4.275   9.824  2.0772 -1.1754 -0.0282
  142SAPE  C21915555   3.723   4.080   9.791  0.4487  0.1066  0.8340
  142SAPE  H19R15556   3.829   4.048   9.790  0.0247 -1.3460  0.6442
  142SAPE  H19S15557   3.665   4.022   9.716  1.8192  0.2628 -0.3839
  142SAPE  C22015558   3.665   4.041   9.923  0.1162 -0.5096  0.2022
  142SAPE  H20R15559   3.736   4.081   9.999  0.6889  1.4973 -1.2939
  142SAPE  H20S15560   3.676   3.931   9.917  1.5378 -0.3756 -0.0671
  142SAPE  H20T15561   3.563   4.082   9.934  0.5144  0.1651  1.5280
  142SAPE   C3315562   4.014   4.119  10.058  0.6503  0.1497  0.2257
  142SAPE   H3X15563   3.943   4.197  10.091  1.0604 -0.2071  2.0254
  142SAPE   H3Y15564   3.982   4.076   9.961 -0.7398 -0.4975  0.9421
  142SAPE   C3415565   4.146   4.198  10.042  0.3301  0.7377  0.6526
  142SAPE   H4X15566   4.224   4.133   9.998 -1.8194 -1.9007  0.5240
  142SAPE   H4Y15567   4.187   4.227  10.141 -1.5432 -0.8177  1.9645
  142SAPE   C3515568   4.148   4.321   9.943  0.4799  0.0501  0.4197
  142SAPE   H5X15569   4.131   4.283   9.840  3.0153 -0.0016 -0.0477
  142SAPE   H5Y15570   4.250   4.363   9.931  1.2265 -1.6893  0.4670
  142SAPE   C3615571   4.054   4.433   9.981  0.2703 -0.3650 -0.8724
  142SAPE   H6X15572   4.105   4.478  10.068  0.3331  1.2394 -1.7001
  142SAPE   H6Y15573   3.955   4.398  10.019  0.3256  0.2036 -0.2022
  142SAPE   C3715574   4.033   4.522   9.863 -0.4567 -0.3948 -0.3170
  142SAPE   H7X15575   3.990   4.459   9.782 -0.9737 -1.7488  0.9613
  142SAPE   H7Y15576   4.132   4.545   9.818 -0.8923  2.2126 -0.1164
  142SAPE   C3815577   3.961   4.653   9.892 -0.1360  0.0910 -0.2608
  142SAPE   H8X15578   4.028   4.691   9.972 -1.9570 -1.8575  2.3698
  142SAPE   H8Y15579   3.865   4.645   9.948  0.2941  2.2108  0.8410
  142SAPE   C3915580   3.955   4.749   9.766 -0.1141  0.2198 -0.5276
  142SAPE   H9X15581   4.060   4.765   9.734  0.7558 -0.3509  1.8115
  142SAPE   H9Y15582   3.912   4.848   9.792 -2.5073 -0.7291 -0.6675
  142SAPE  C31015583   3.871   4.692   9.653 -0.0556  0.3527 -0.2410
  142SAPE  H10X15584   3.769   4.667   9.689 -0.1042  3.0651  1.8476
  142SAPE  H10Y15585   3.927   4.600   9.625 -0.7121 -0.3758  0.7859
  142SAPE  C31115586   3.869   4.789   9.534 -0.1047  0.6439 -0.5521
  142SAPE  H11X15587   3.970   4.830   9.511 -0.6676  2.7165  0.4157
  142SAPE  H11Y15588   3.801   4.874   9.557 -1.2290 -0.2690 -0.4142
  142SAPE  C31215589   3.804   4.741   9.405  0.6865 -0.2564  0.8699
  142SAPE  H12X15590   3.790   4.835   9.348 -0.6760  0.4896  2.3711
  142SAPE  H12Y15591   3.705   4.690   9.416 -0.8114  1.5147 -2.7038
  142SAPE  C31315592   3.906   4.658   9.324 -0.0232  0.3378  0.0857
  142SAPE  H13X15593   3.927   4.566   9.382 -0.2254  0.5153  0.4462
  142SAPE  H13Y15594   4.006   4.704   9.305 -0.3211  0.5457 -1.0290
  142SAPE  C31415595   3.837   4.628   9.190 -0.1598 -0.0645 -0.2426
  142SAPE  H14X15596   3.816   4.722   9.136 -1.1712 -1.2495 -2.0413
  142SAPE  H14Y15597   3.739   4.578   9.204 -1.2438  1.6962 -1.2239
  142SAPE  C31515598   3.934   4.541   9.106  0.0711  0.4227 -0.7476
  142SAPE  H15X15599   3.973   4.455   9.164  0.9123  1.3307  0.0621
  142SAPE  H15Y15600   4.032   4.588   9.085  0.9145  1.3938  4.2102
  142SAPE  C31615601   3.861   4.483   8.985 -0.3862  0.0108 -0.1920
  142SAPE  H16X15602   3.761   4.527   8.966 -1.4449 -1.2454  2.1003
  142SAPE  H16Y15603   3.848   4.374   8.999 -0.5830  0.2546  1.8417
  142SAPE  C31715604   3.933   4.516   8.851 -0.1667  0.0958  0.1105
  142SAPE  H17X15605   4.041   4.496   8.865  0.4628  0.7002 -2.9907
  142SAPE  H17Y15606   3.917   4.618   8.810 -1.8653 -0.8123 -1.6651
  142SAPE  C31815607   3.875   4.421   8.738  0.0722 -0.1375  0.3408
  142SAPE  H18X15608   3.939   4.440   8.648 -1.1597 -2.5147 -1.1310
  142SAPE  H18Y15609   3.778   4.462   8.703 -0.2798 -2.5562 -1.7742
  142SAPE  H18Z15610   3.865   4.312   8.755  0.7325 -0.2298  0.1770
  143SAPE     N15611   0.515   4.689  11.294  0.2467  0.0983 -0.2976
  143SAPE   HN115612   0.417   4.659  11.312 -0.0843  1.6807  0.8049
  143SAPE   HN215613   0.564   4.721  11.379 -0.3370 -0.8892  0.4196
  143SAPE   HN315614   0.507   4.776  11.236  2.0905  0.5559  0.0932
  143SAPE   C1215615   0.587   4.584  11.216 -0.7490  0.1678  0.0524
  143SAPE  H12A15616   0.517   4.547  11.138  2.1072 -0.4802 -2.3755
  143SAPE  H12B15617   0.609   4.494  11.278  0.0091 -0.5878 -1.2662
  143SAPE   C1115618   0.720   4.642  11.170  0.6252  0.4504 -1.0953
  143SAPE  H11A15619   0.778   4.552  11.138 -2.4441 -2.4181  0.8545
  143SAPE  H11B15620   0.766   4.676  11.265  0.7299 -0.0758 -0.9566
  143SAPE     P15621   0.768   4.742  10.928  0.1380 -0.1534  0.3851
  143SAPE   O1315622   0.731   4.860  10.848 -0.2133  0.9546 -0.0047
  143SAPE   O1415623   0.910   4.714  10.924 -0.3764 -0.0139 -0.2409
  143SAPE   O1215624   0.723   4.751  11.075 -0.2565 -0.2454 -0.6188
  143SAPE   O1115625   0.708   4.609  10.860  0.2725  0.2576  0.0578
  143SAPE    C115626   0.571   4.583  10.846 -0.3903 -0.3885  0.4473
  143SAPE    HA15627   0.541   4.498  10.910 -0.4810 -1.2045 -0.6471
  143SAPE    HB15628   0.505   4.666  10.877  0.9980 -0.0165  2.6356
  143SAPE    C215629   0.540   4.555  10.698 -0.0846 -0.1205  0.0357
  143SAPE    HS15630   0.594   4.460  10.675 -1.8139 -0.7790 -1.5408
  143SAPE   O2115631   0.578   4.668  10.615  0.1434  0.0546 -0.3100
  143SAPE   C2115632   0.674   4.644  10.530  0.4979 -0.6123  0.1717
  143SAPE   O2215633   0.738   4.544  10.525 -0.0966 -0.0113  0.1290
  143SAPE   C2215634   0.705   4.767  10.446 -0.0919  0.6135 -0.7600
  143SAPE   H2R15635   0.765   4.832  10.513 -0.2284 -1.6422  1.7186
  143SAPE   H2S15636   0.762   4.728  10.359 -0.2443  0.9565 -1.0147
  143SAPE    C315637   0.386   4.539  10.684 -0.2964  0.4540  0.2244
  143SAPE    HX15638   0.334   4.621  10.737  1.6940  0.5384  2.2523
  143SAPE    HY15639   0.363   4.443  10.735 -0.4971 -0.7558 -2.0501
  143SAPE   O3115640   0.350   4.524  10.545  0.2237 -0.5550  0.0691
  143SAPE   C3115641   0.276   4.625  10.489 -0.4484  0.4378 -0.3240
  143SAPE   O3215642   0.246   4.733  10.537  0.1399 -0.1015  0.0661
  143SAPE   C3215643   0.259   4.593  10.339 -0.7893  0.3915 -0.5066
  143SAPE   H2X15644   0.316   4.500  10.317 -1.8600 -0.0055 -1.7806
  143SAPE   H2Y15645   0.309   4.676  10.286  0.7125 -0.2238 -0.1163
  143SAPE   C2315646   0.574   4.839  10.403  0.4784  0.5139 -0.5525
  143SAPE   H3R15647   0.508   4.855  10.491 -0.0316 -1.2047 -0.5788
  143SAPE   H3S15648   0.515   4.778  10.331 -0.4087 -0.4002  0.9001
  143SAPE   C2415649   0.592   4.985  10.339  0.4117 -0.0356  0.0099
  143SAPE   H4R15650   0.645   4.977  10.242 -1.4419  1.2587 -1.1890
  143SAPE   H4S15651   0.656   5.038  10.413  0.3850  2.2799 -1.4922
  143SAPE   C2515652   0.457   5.050  10.328  0.0001  0.1660  0.3596
  143SAPE   H5R15653   0.426   5.114  10.412 -0.0675 -1.0927  1.3225
  143SAPE   C2615654   0.373   5.049  10.221 -0.5042  0.6579 -0.1821
  143SAPE   H6R15655   0.279   5.106  10.222  0.7610  2.8597  0.5229
  143SAPE   C2715656   0.397   4.976  10.096  0.2853 -0.9797  0.6445
  143SAPE   H7R15657   0.296   4.944  10.061  1.0179 -1.1640 -1.4320
  143SAPE   H7S15658   0.454   4.882  10.105  1.3139 -0.3313  0.9978
  143SAPE   C2815659   0.478   5.051   9.995 -0.1438  0.2461 -0.2104
  143SAPE   H8R15660   0.545   5.121  10.046  2.7591 -2.2378 -0.3796
  143SAPE   C2915661   0.463   5.039   9.861  0.1754  0.3080 -0.3934
  143SAPE   H9R15662   0.534   5.097   9.801 -0.5833  0.0562 -1.5694
  143SAPE  C21015663   0.376   4.952   9.775  0.1481  0.2622 -0.1353
  143SAPE  H10R15664   0.270   4.985   9.771  0.4715  1.2125 -3.2539
  143SAPE  H10S15665   0.367   4.846   9.808 -1.9937  0.5335  0.2895
  143SAPE  C21115666   0.442   4.954   9.638  0.1699  0.1064  0.6551
  143SAPE  H11R15667   0.524   4.884   9.616 -1.0029 -1.0295 -0.2680
  143SAPE  C21215668   0.405   5.029   9.532 -0.0995 -0.1751  0.6099
  143SAPE  H12R15669   0.471   5.022   9.444  0.6945 -1.2202  1.2502
  143SAPE  C21315670   0.289   5.125   9.525  0.3516 -0.7308  0.0316
  143SAPE  H13R15671   0.244   5.139   9.626  1.0897  1.2992  0.1181
  143SAPE  H13S15672   0.206   5.086   9.463  0.4733 -1.3279  0.2349
  143SAPE  C21415673   0.352   5.255   9.468  0.0987  0.6738 -0.1273
  143SAPE  H14R15674   0.446   5.289   9.512 -0.1118  0.6952  0.3112
  143SAPE  C21515675   0.324   5.326   9.354 -0.0065  0.0702  0.5045
  143SAPE  H15R15676   0.384   5.417   9.336  0.3939 -0.2351  0.2742
  143SAPE  C21615677   0.211   5.294   9.249  1.6138 -0.2830  0.2469
  143SAPE  H16R15678   0.134   5.373   9.262 -0.0474 -1.7945 -0.1265
  143SAPE  H16S15679   0.153   5.205   9.279 -0.4082  1.1786  0.8156
  143SAPE  C21715680   0.272   5.283   9.102  0.5060 -0.3296 -1.1047
  143SAPE  H17R15681   0.340   5.197   9.084  0.5068 -0.8041  0.9155
  143SAPE  H17S15682   0.336   5.373   9.088  0.2116  0.3928  1.6045
  143SAPE  C21815683   0.161   5.297   8.993  0.0567 -0.5935  0.4469
  143SAPE  H18R15684   0.092   5.374   9.033  0.7697  0.5987 -0.5713
  143SAPE  H18S15685   0.093   5.209   8.999 -1.3210  0.4448  0.5767
  143SAPE  C21915686   0.203   5.341   8.851 -0.5240 -0.1221  0.4989
  143SAPE  H19R15687   0.115   5.345   8.783  0.9187 -0.9136 -1.4826
  143SAPE  H19S15688   0.264   5.263   8.802 -1.3170 -0.3749 -0.1019
  143SAPE  C22015689   0.283   5.472   8.841  0.1938  0.4639  0.7111
  143SAPE  H20R15690   0.230   5.562   8.878  1.7361  1.0792  1.4947
  143SAPE  H20S15691   0.297   5.485   8.731  1.0489  2.3560  0.9967
  143SAPE  H20T15692   0.384   5.465   8.887 -0.1029 -1.6679  1.1434
  143SAPE   C3315693   0.117   4.559  10.285 -0.3873 -0.0814 -0.0563
  143SAPE   H3X15694   0.053   4.496  10.349 -1.4479 -0.1209 -1.1177
  143SAPE   H3Y15695   0.128   4.500  10.191  0.4740  0.7004 -0.4705
  143SAPE   C3415696   0.030   4.691  10.274  0.8448  0.2500  0.4099
  143SAPE   H4X15697   0.044   4.756  10.363  1.1364 -1.8208  1.9296
  143SAPE   H4Y15698  -0.073   4.650  10.268  0.0471  2.2583 -1.2701
  143SAPE   C3515699   0.073   4.767  10.143 -0.1335 -0.0685 -0.1026
  143SAPE   H5X15700   0.061   4.702  10.054 -1.0290 -0.6843  0.4393
  143SAPE   H5Y15701   0.182   4.782  10.151  0.2404 -2.9186  1.8889
  143SAPE   C3615702   0.006   4.906  10.113  0.2575  0.8302  0.3893
  143SAPE   H6X15703   0.033   4.977  10.195 -3.2743  2.4165  0.3611
  143SAPE   H6Y15704  -0.103   4.890  10.131  0.3984 -0.1647  0.3781
  143SAPE   C3715705   0.025   4.956   9.969  0.6029 -0.2613 -0.4140
  143SAPE   H7X15706   0.133   4.943   9.946  1.1330  0.0927  1.7077
  143SAPE   H7Y15707   0.002   5.064   9.974 -0.3368 -0.3244 -2.5340
  143SAPE   C3815708  -0.064   4.905   9.857 -0.5035  0.2996 -0.5116
  143SAPE   H8X15709  -0.169   4.928   9.884 -0.6616 -0.1793 -0.7032
  143SAPE   H8Y15710  -0.049   4.795   9.845 -1.7271  0.1908 -1.1981
  143SAPE   C3915711  -0.037   4.969   9.724  0.1250 -0.1279 -0.0747
  143SAPE   H9X15712   0.064   4.931   9.699 -0.1547 -0.6253 -0.4725
  143SAPE   H9Y15713  -0.040   5.079   9.738 -2.8505  0.0374 -1.2619
  143SAPE  C31015714  -0.141   4.919   9.616 -0.1362 -0.3163 -0.4613
  143SAPE  H10X15715  -0.231   4.984   9.619  1.5515  2.1682 -0.2262
  143SAPE  H10Y15716  -0.162   4.812   9.637  0.3891 -0.3833 -0.2560
  143SAPE  C31115717  -0.077   4.940   9.478 -0.8547  0.9976 -0.4065
  143SAPE  H11X15718   0.011   4.871   9.471 -1.5741  0.2024 -2.0502
  143SAPE  H11Y15719  -0.057   5.048   9.467  2.0032  0.6683  0.6381
  143SAPE  C31215720  -0.165   4.889   9.363  1.3158 -0.7086  0.6039
  143SAPE  H12X15721  -0.269   4.929   9.372  1.5293  0.5716 -1.8152
  143SAPE  H12Y15722  -0.177   4.779   9.358 -0.1301 -0.5451 -0.6565
  143SAPE  C31315723  -0.084   4.933   9.242  0.0901 -0.2337  0.4564
  143SAPE  H13X15724   0.020   4.896   9.250  0.1453  0.1383  1.6264
  143SAPE  H13Y15725  -0.080   5.044   9.246 -0.3714 -0.2675  2.3958
  143SAPE  C31415726  -0.145   4.882   9.108 -0.3150  0.1013 -0.3927
  143SAPE  H14X15727  -0.255   4.893   9.120 -0.2748  1.4816 -1.0726
  143SAPE  H14Y15728  -0.130   4.772   9.103  0.9237  0.1403  1.4666
  143SAPE  C31515729  -0.078   4.951   8.992  0.3837  0.6916  0.2855
  143SAPE  H15X15730   0.033   4.952   8.994  0.4482  1.0314 -1.6218
  143SAPE  H15Y15731  -0.117   5.053   9.010  2.2985  1.7867 -1.3033
  143SAPE  C31615732  -0.136   4.906   8.859  0.2057 -0.1105 -0.8466
  143SAPE  H16X15733  -0.088   4.813   8.823  2.9492  0.6681  0.5583
  143SAPE  H16Y15734  -0.103   4.991   8.795  0.7756  1.9110  1.9414
  143SAPE  C31715735  -0.289   4.898   8.853 -0.7610  0.2043 -0.0373
  143SAPE  H17X15736  -0.330   4.993   8.893 -1.7103 -1.7902  4.2884
  143SAPE  H17Y15737  -0.336   4.824   8.920  0.1783  0.2885  0.7241
  143SAPE  C31815738  -0.351   4.871   8.713 -0.6647  0.1983 -0.1761
  143SAPE  H18X15739  -0.302   4.935   8.636  2.0736 -0.1446  1.1507
  143SAPE  H18Y15740  -0.461   4.883   8.711 -0.6327  0.6711  0.5176
  143SAPE  H18Z15741  -0.329   4.769   8.676 -2.4870  0.1866 -1.3450
  144SAPE     N15742   0.921   4.401  10.823 -0.4382 -0.6710 -0.6296
  144SAPE   HN115743   0.872   4.346  10.897 -0.5180 -2.4011 -1.9092
  144SAPE   HN215744   1.015   4.435  10.851  0.8174 -3.4375 -1.1416
  144SAPE   HN315745   0.860   4.484  10.809  0.2550  0.0150  0.3213
  144SAPE   C1215746   0.926   4.317  10.699  0.2673  0.7545  0.2854
  144SAPE  H12A15747   0.914   4.369  10.602  1.0635 -2.6739 -1.8175
  144SAPE  H12B15748   0.823   4.274  10.706  1.0226 -0.8879  3.1434
  144SAPE   C1115749   1.037   4.210  10.708  0.5655 -0.0449  0.7951
  144SAPE  H11A15750   1.127   4.274  10.697  0.6471 -0.2885 -0.0602
  144SAPE  H11B15751   1.022   4.146  10.618 -0.7407 -0.7960  1.5112
  144SAPE     P15752   1.109   4.003  10.849 -0.2329 -0.1122 -0.1937
  144SAPE   O1315753   1.215   4.035  10.946 -0.0960 -0.3244  0.2323
  144SAPE   O1415754   1.021   3.891  10.890  0.3148 -0.6300 -0.1055
  144SAPE   O1215755   1.034   4.137  10.831  0.2037  0.5029 -0.2190
  144SAPE   O1115756   1.169   3.963  10.711 -0.2440  0.5196 -0.2836
  144SAPE    C115757   1.304   3.992  10.674  0.1084  0.5256  0.7143
  144SAPE    HA15758   1.337   4.093  10.707  1.4283 -0.1304  1.5052
  144SAPE    HB15759   1.366   3.915  10.725  2.3814  0.0332 -2.4742
  144SAPE    C215760   1.326   3.955  10.524  0.0408  0.7617  0.4881
  144SAPE    HS15761   1.436   3.965  10.512 -0.2208  2.8141 -0.6677
  144SAPE   O2115762   1.255   4.049  10.435  0.1001  0.0707 -0.0649
  144SAPE   C2115763   1.315   4.168  10.436 -0.7450 -0.1064 -0.8783
  144SAPE   O2215764   1.426   4.191  10.491 -0.2579 -0.0577  0.3134
  144SAPE   C2215765   1.239   4.274  10.349 -0.7872  0.0032  0.0973
  144SAPE   H2R15766   1.187   4.340  10.422  1.3660 -0.4765  2.2081
  144SAPE   H2S15767   1.307   4.331  10.283 -0.2120 -0.1840  0.5170
  144SAPE    C315768   1.277   3.810  10.503  0.3088 -0.4315  0.3797
  144SAPE    HX15769   1.171   3.833  10.479  0.2383 -1.2857 -0.1582
  144SAPE    HY15770   1.275   3.742  10.591  0.4489 -1.2464 -0.2400
  144SAPE   O3115771   1.337   3.739  10.394 -0.3801 -0.5027  0.4929
  144SAPE   C3115772   1.452   3.678  10.420 -0.6495  0.4938 -0.4027
  144SAPE   O3215773   1.504   3.667  10.529 -0.3513 -0.4098 -0.5309
  144SAPE   C3215774   1.505   3.607  10.300 -0.1097  0.1255  0.6350
  144SAPE   H2X15775   1.601   3.657  10.273  1.0704 -1.9638  0.7643
  144SAPE   H2Y15776   1.438   3.605  10.212  1.5194 -4.3891 -0.7955
  144SAPE   C2315777   1.127   4.219  10.256  0.1551 -0.3787 -0.0448
  144SAPE   H3R15778   1.075   4.129  10.295 -0.1742 -0.4045 -0.5423
  144SAPE   H3S15779   1.178   4.183  10.164  0.9705  0.5202  0.0334
  144SAPE   C2415780   1.016   4.314  10.231  0.0782 -0.5083  0.1106
  144SAPE   H4R15781   0.973   4.339  10.330 -0.5170 -4.9018  1.1391
  144SAPE   H4S15782   0.934   4.263  10.177  0.8834 -2.1692  0.4029
  144SAPE   C2515783   1.060   4.446  10.169 -0.2819  0.2564  0.2257
  144SAPE   H5R15784   1.094   4.518  10.245  1.2831 -1.1619  0.9176
  144SAPE   C2615785   1.049   4.476  10.039 -0.1403  0.7969 -0.5791
  144SAPE   H6R15786   1.085   4.573  10.002  2.1721 -0.2451 -1.2332
  144SAPE   C2715787   1.006   4.381   9.931  0.1143 -0.2056 -0.7125
  144SAPE   H7R15788   0.895   4.383   9.924  0.0446  1.4242  0.3656
  144SAPE   H7S15789   1.026   4.273   9.946  0.6382 -0.1395 -0.9111
  144SAPE   C2815790   1.061   4.417   9.794  0.4155  0.6469 -0.3002
  144SAPE   H8R15791   1.108   4.516   9.790  0.0652  0.7732 -1.7203
  144SAPE   C2915792   1.028   4.353   9.679 -0.7161  0.1437  0.3250
  144SAPE   H9R15793   1.067   4.388   9.583 -2.6876  0.9648 -0.2181
  144SAPE  C21015794   0.943   4.225   9.680 -0.2386 -0.5142 -0.2928
  144SAPE  H10R15795   0.898   4.220   9.578  0.3139 -0.3492 -0.5462
  144SAPE  H10S15796   0.866   4.231   9.760  0.1963  0.2144  0.0664
  144SAPE  C21115797   1.025   4.095   9.700  0.5988 -0.2788  0.0644
  144SAPE  H11R15798   1.134   4.109   9.695  0.5364 -0.1078 -0.9513
  144SAPE  C21215799   0.969   3.979   9.728  0.2169 -0.2057 -0.7400
  144SAPE  H12R15800   1.035   3.892   9.743 -0.5801 -0.9944 -1.6870
  144SAPE  C21315801   0.818   3.952   9.746  0.4894 -0.3082  0.3650
  144SAPE  H13R15802   0.760   4.029   9.691 -0.7836 -0.5554  1.2952
  144SAPE  H13S15803   0.787   3.976   9.850 -0.8201  0.7022 -0.2252
  144SAPE  C21415804   0.774   3.816   9.708  0.5322  0.1634  0.4677
  144SAPE  H14R15805   0.844   3.735   9.733  1.8103  0.0508 -2.9321
  144SAPE  C21515806   0.664   3.786   9.630 -0.5190 -0.8511  0.7394
  144SAPE  H15R15807   0.656   3.680   9.602 -0.8556 -0.5532 -0.3610
  144SAPE  C21615808   0.559   3.871   9.571  0.1584  0.2881  0.0448
  144SAPE  H16R15809   0.540   3.844   9.465  0.2948 -0.4531  0.2082
  144SAPE  H16S15810   0.594   3.977   9.571  0.6787  0.1158  0.2268
  144SAPE  C21715811   0.425   3.848   9.644  0.2625  0.0989  0.0257
  144SAPE  H17R15812   0.382   3.746   9.638  0.0627  0.2449 -1.1855
  144SAPE  H17S15813   0.360   3.915   9.585 -1.0169 -1.1884 -0.1042
  144SAPE  C21815814   0.412   3.901   9.786 -0.0751 -0.1625  0.6808
  144SAPE  H18R15815   0.318   3.959   9.795 -0.6002 -0.3424 -2.4418
  144SAPE  H18S15816   0.492   3.976   9.804 -1.0653  0.4035  3.1612
  144SAPE  C21915817   0.419   3.788   9.881 -0.0230  0.4652 -0.5552
  144SAPE  H19R15818   0.504   3.726   9.846 -0.6082 -0.8710  0.3118
  144SAPE  H19S15819   0.325   3.731   9.864  0.2381 -0.1208 -0.0544
  144SAPE  C22015820   0.429   3.839  10.028  0.3456  0.0227  0.5148
  144SAPE  H20R15821   0.432   3.753  10.098 -1.3479 -0.2323  0.3015
  144SAPE  H20S15822   0.340   3.900  10.053 -0.5702 -1.0185 -0.0780
  144SAPE  H20T15823   0.514   3.909  10.040 -0.5577  1.2894 -0.2850
  144SAPE   C3315824   1.530   3.457  10.323 -0.5398  0.9174  0.7511
  144SAPE   H3X15825   1.431   3.407  10.330  0.3067 -1.8029 -3.4507
  144SAPE   H3Y15826   1.599   3.440  10.409 -0.4353 -1.5881  0.2478
  144SAPE   C3415827   1.580   3.389  10.200  0.3452  0.5568  0.3415
  144SAPE   H4X15828   1.641   3.304  10.237 -0.0576  0.3931  0.6386
  144SAPE   H4Y15829   1.643   3.456  10.136 -0.4638 -0.6528 -1.8336
  144SAPE   C3515830   1.471   3.321  10.109  0.4735 -0.2905 -0.2372
  144SAPE   H5X15831   1.408   3.405  10.074  0.9061 -0.5052 -1.5760
  144SAPE   H5Y15832   1.419   3.246  10.173  1.8610 -1.2501 -0.1836
  144SAPE   C3615833   1.528   3.235   9.995  0.5091 -0.4612  0.4475
  144SAPE   H6X15834   1.589   3.152  10.037 -0.2322 -0.5816  1.3073
  144SAPE   H6Y15835   1.578   3.296   9.916  0.5720 -2.0225 -0.7726
  144SAPE   C3715836   1.416   3.179   9.907  0.7893  0.9277 -0.3345
  144SAPE   H7X15837   1.347   3.258   9.868 -4.0693 -2.0561  1.2762
  144SAPE   H7Y15838   1.346   3.115   9.965  1.0702 -0.5937 -1.6146
  144SAPE   C3815839   1.468   3.096   9.785 -0.0322  0.2148 -0.0515
  144SAPE   H8X15840   1.516   3.000   9.816 -0.9278 -1.3795 -3.2017
  144SAPE   H8Y15841   1.540   3.151   9.721 -0.0823  0.8173  0.3997
  144SAPE   C3915842   1.357   3.049   9.688  0.3683  0.0251 -0.1548
  144SAPE   H9X15843   1.314   3.135   9.630 -2.8267 -2.4998 -1.8876
  144SAPE   H9Y15844   1.272   3.013   9.750  0.5885  1.6419  1.1529
  144SAPE  C31015845   1.402   2.937   9.590  0.1332  0.9178 -0.2523
  144SAPE  H10X15846   1.427   2.842   9.643  0.4834  1.3576  0.3976
  144SAPE  H10Y15847   1.502   2.959   9.545  0.3371 -2.2069 -1.5555
  144SAPE  C31115848   1.301   2.907   9.486  0.1475  0.3776 -0.4817
  144SAPE  H11X15849   1.266   3.000   9.437 -1.5913 -0.4530 -0.9080
  144SAPE  H11Y15850   1.213   2.874   9.546  2.0368 -0.1312  2.2195
  144SAPE  C31215851   1.356   2.800   9.391  0.6555  0.4399  1.0187
  144SAPE  H12X15852   1.376   2.708   9.449 -0.8089 -1.1430 -0.8412
  144SAPE  H12Y15853   1.454   2.837   9.354  0.4773  0.7791  0.8812
  144SAPE  C31315854   1.253   2.773   9.286 -0.3977  0.2974  0.6444
  144SAPE  H13X15855   1.150   2.796   9.322 -1.5599 -0.4113 -2.0164
  144SAPE  H13Y15856   1.251   2.664   9.265 -2.7973  0.4853 -0.4413
  144SAPE  C31415857   1.277   2.836   9.152  0.4672 -0.2665  0.2273
  144SAPE  H14X15858   1.318   2.937   9.173 -0.1712 -0.1523  0.9470
  144SAPE  H14Y15859   1.187   2.854   9.089 -1.4786 -0.1522  2.8570
  144SAPE  C31515860   1.375   2.762   9.064  0.1109 -0.1816  0.9129
  144SAPE  H15X15861   1.353   2.653   9.053  2.9024 -0.6089 -1.9066
  144SAPE  H15Y15862   1.476   2.768   9.109  0.4800  3.0860 -0.0774
  144SAPE  C31615863   1.393   2.838   8.934 -0.1735 -0.6921  0.0895
  144SAPE  H16X15864   1.424   2.941   8.961  2.0997 -0.9709 -1.1877
  144SAPE  H16Y15865   1.295   2.853   8.883  2.1039  1.0093 -4.3344
  144SAPE  C31715866   1.491   2.781   8.832 -0.0943 -0.1093 -0.2753
  144SAPE  H17X15867   1.449   2.686   8.792 -0.0143 -0.9117  1.4840
  144SAPE  H17Y15868   1.576   2.744   8.893 -0.9780 -1.9699 -0.1138
  144SAPE  C31815869   1.522   2.875   8.717  0.0048 -0.2405 -0.3939
  144SAPE  H18X15870   1.594   2.822   8.651  0.6882 -0.3510  0.4316
  144SAPE  H18Y15871   1.564   2.971   8.753  0.6744 -1.0314  1.0122
  144SAPE  H18Z15872   1.429   2.906   8.664 -0.8665 -0.7339  0.8018
  145SAPE     N15873   0.685   3.915  11.301 -0.3477 -0.6033 -0.6442
  145SAPE   HN115874   0.665   3.927  11.403 -1.7640  1.8135 -1.1247
  145SAPE   HN215875   0.599   3.935  11.246 -0.5855 -0.1423 -0.1219
  145SAPE   HN315876   0.713   3.816  11.287  0.3318 -0.6531  0.8672
  145SAPE   C1215877   0.792   4.010  11.258 -0.3025 -1.0787  0.0344
  145SAPE  H12A15878   0.890   3.971  11.295  0.1400 -0.3136 -0.3159
  145SAPE  H12B15879   0.781   4.114  11.295  2.3766  0.1267 -2.2229
  145SAPE   C1115880   0.779   4.009  11.105 -0.5844 -0.1646  0.1884
  145SAPE  H11A15881   0.778   3.904  11.071 -1.7373 -0.2357  0.4089
  145SAPE  H11B15882   0.864   4.061  11.056 -1.0746  1.6219  1.1335
  145SAPE     P15883   0.655   4.228  11.014 -0.0507 -0.2121 -0.2937
  145SAPE   O1315884   0.525   4.292  11.050 -0.2623 -0.5562  0.3117
  145SAPE   O1415885   0.781   4.305  11.047 -0.0366 -0.1698 -0.0100
  145SAPE   O1215886   0.657   4.081  11.074  0.1741  0.1111  0.0942
  145SAPE   O1115887   0.661   4.203  10.862 -0.7283  0.1184 -0.0558
  145SAPE    C115888   0.619   4.074  10.810  0.4337 -0.0658  0.1556
  145SAPE    HA15889   0.662   3.992  10.872  2.7673 -0.3008 -1.6759
  145SAPE    HB15890   0.508   4.069  10.800  0.4323 -1.2398  0.6285
  145SAPE    C215891   0.669   4.041  10.672 -0.2035  0.2124 -0.0477
  145SAPE    HS15892   0.778   4.060  10.668 -0.1753 -0.0451 -0.6699
  145SAPE   O2115893   0.603   4.139  10.580 -0.1668 -0.2120 -0.1428
  145SAPE   C2115894   0.675   4.174  10.472  0.0722 -0.2265  0.4176
  145SAPE   O2215895   0.787   4.144  10.447 -0.0299  0.0968 -0.0736
  145SAPE   C2215896   0.597   4.263  10.380  0.3274 -0.1098 -0.5047
  145SAPE   H2R15897   0.493   4.270  10.420  0.6710 -1.1119  0.6248
  145SAPE   H2S15898   0.657   4.357  10.375  2.7508 -1.6222 -1.4930
  145SAPE    C315899   0.658   3.886  10.626  0.3130 -0.3265 -0.0195
  145SAPE    HX15900   0.552   3.853  10.634  0.2574 -0.7313 -1.8447
  145SAPE    HY15901   0.720   3.827  10.697  1.3422  0.8144  0.0772
  145SAPE   O3115902   0.702   3.880  10.494  0.5406  0.1485  0.1443
  145SAPE   C3115903   0.815   3.824  10.461 -0.9456  0.5022 -1.0015
  145SAPE   O3215904   0.887   3.762  10.542 -1.1321 -0.4487  0.7366
  145SAPE   C3215905   0.855   3.849  10.316 -1.1974  0.3982 -0.2848
  145SAPE   H2X15906   0.934   3.927  10.323 -0.2342 -0.5159 -0.6557
  145SAPE   H2Y15907   0.766   3.885  10.261 -0.4613  1.9937 -0.4868
  145SAPE   C2315908   0.595   4.197  10.237 -0.1365 -0.2649  0.2425
  145SAPE   H3R15909   0.529   4.109  10.250  0.4094 -0.4868  1.6712
  145SAPE   H3S15910   0.698   4.164  10.210 -0.1516  0.2483 -0.4795
  145SAPE   C2415911   0.544   4.294  10.131  0.4631 -0.0480  0.5871
  145SAPE   H4R15912   0.442   4.333  10.152 -0.8238 -1.5904 -2.2172
  145SAPE   H4S15913   0.534   4.239  10.035 -0.4825 -0.0474  0.6745
  145SAPE   C2515914   0.636   4.409  10.111  0.1428 -0.4718  0.6209
  145SAPE   H5R15915   0.691   4.441  10.200 -1.0382 -0.5536  1.4007
  145SAPE   C2615916   0.656   4.483   9.996  0.0487  0.4492  0.2692
  145SAPE   H6R15917   0.718   4.573   9.997 -2.7182  2.5224 -0.5381
  145SAPE   C2715918   0.584   4.464   9.864  0.8250 -0.4386  0.1943
  145SAPE   H7R15919   0.500   4.537   9.868  0.8204 -0.3255 -1.2980
  145SAPE   H7S15920   0.540   4.362   9.870 -2.7915  1.0039  0.7341
  145SAPE   C2815921   0.651   4.491   9.735  0.3862  0.1824  0.5870
  145SAPE   H8R15922   0.711   4.583   9.732  0.0747  0.3633 -1.9968
  145SAPE   C2915923   0.641   4.425   9.619 -0.1474 -0.0819  0.3455
  145SAPE   H9R15924   0.695   4.471   9.534 -2.2419 -0.4309 -1.2454
  145SAPE  C21015925   0.569   4.292   9.591  0.4660  0.1853  0.5642
  145SAPE  H10R15926   0.487   4.279   9.665  1.2749  0.6931  1.5890
  145SAPE  H10S15927   0.638   4.205   9.599  1.1063  0.3803 -2.0226
  145SAPE  C21115928   0.503   4.284   9.454 -0.0058  0.5720  0.1465
  145SAPE  H11R15929   0.394   4.287   9.471  0.0355 -1.2677  1.0126
  145SAPE  C21215930   0.569   4.267   9.336 -0.2868 -0.1614  0.1688
  145SAPE  H12R15931   0.510   4.248   9.245 -3.0973  2.2476  1.2919
  145SAPE  C21315932   0.715   4.253   9.325 -0.0382 -0.6226  0.4181
  145SAPE  H13R15933   0.775   4.320   9.390  0.3944 -1.7986  1.2641
  145SAPE  H13S15934   0.748   4.290   9.225  0.9369 -0.6168  0.7324
  145SAPE  C21415935   0.762   4.109   9.329  1.0841  0.7652 -0.2446
  145SAPE  H14R15936   0.796   4.070   9.426  0.1539  0.7564  0.0937
  145SAPE  C21515937   0.783   4.022   9.230 -0.1500  0.1316 -0.1741
  145SAPE  H15R15938   0.818   3.924   9.265 -0.3817  0.8103  2.1660
  145SAPE  C21615939   0.753   4.039   9.075 -1.1304 -0.2227 -0.6270
  145SAPE  H16R15940   0.849   4.045   9.019 -0.8166  0.7729 -0.0076
  145SAPE  H16S15941   0.698   4.134   9.063 -0.5832  0.3159  0.8623
  145SAPE  C21715942   0.648   3.945   9.008  0.5675 -0.6152  0.4435
  145SAPE  H17R15943   0.699   3.848   8.992  1.9414  0.1261  0.1707
  145SAPE  H17S15944   0.615   3.987   8.911 -1.1415 -0.3552  1.0833
  145SAPE  C21815945   0.518   3.932   9.089  0.4486 -0.4066  0.5278
  145SAPE  H18R15946   0.458   4.024   9.074  2.7908  1.0846 -0.1581
  145SAPE  H18S15947   0.532   3.909   9.197 -0.7449 -0.0001  0.7755
  145SAPE  C21915948   0.436   3.802   9.042  0.4954 -0.6142  0.0971
  145SAPE  H19R15949   0.510   3.750   8.979  2.0188  2.3166 -0.7146
  145SAPE  H19S15950   0.347   3.835   8.983  0.2866  1.5693  1.5210
  145SAPE  C22015951   0.383   3.715   9.158 -0.5078  0.2087  0.0838
  145SAPE  H20R15952   0.464   3.677   9.223 -1.5934 -2.3564  0.0278
  145SAPE  H20S15953   0.326   3.632   9.112 -1.2552 -0.9352  2.8639
  145SAPE  H20T15954   0.314   3.769   9.227 -0.0436 -0.5226  1.1426
  145SAPE   C3315955   0.926   3.717  10.263  0.0850 -0.5232 -0.4000
  145SAPE   H3X15956   0.857   3.632  10.242 -0.6540 -0.5646  1.9353
  145SAPE   H3Y15957   0.997   3.683  10.341  0.2327 -0.5625 -0.5499
  145SAPE   C3415958   1.009   3.731  10.139 -0.4590 -0.4505 -0.4880
  145SAPE   H4X15959   0.948   3.707  10.049 -0.5988  0.1899 -0.5714
  145SAPE   H4Y15960   1.070   3.639  10.149 -2.5033 -1.7207  1.1515
  145SAPE   C3515961   1.099   3.857  10.124 -0.0050  0.7707  0.0287
  145SAPE   H5X15962   1.170   3.871  10.208  0.3562 -1.0054  0.0582
  145SAPE   H5Y15963   1.039   3.951  10.133  2.1924  2.2256  0.1677
  145SAPE   C3615964   1.190   3.865   9.997  0.0741 -0.1296 -0.0670
  145SAPE   H6X15965   1.232   3.969   9.994 -3.2797  1.3192 -0.7949
  145SAPE   H6Y15966   1.111   3.879   9.921 -1.2373  2.5016  1.6075
  145SAPE   C3715967   1.293   3.749   9.984  0.2716 -0.4887  0.0155
  145SAPE   H7X15968   1.244   3.650   9.988 -1.0704  0.1858  1.6440
  145SAPE   H7Y15969   1.350   3.747  10.079  0.0518 -1.6415  0.1338
  145SAPE   C3815970   1.389   3.763   9.867 -0.2220  0.6818  0.6461
  145SAPE   H8X15971   1.427   3.867   9.870  0.2697  0.4933  2.4545
  145SAPE   H8Y15972   1.324   3.750   9.779  0.4747  1.8644 -0.0703
  145SAPE   C3915973   1.491   3.644   9.855 -0.0690 -0.3222 -0.6506
  145SAPE   H9X15974   1.433   3.550   9.841 -1.1489  0.0777  0.8788
  145SAPE   H9Y15975   1.547   3.626   9.950  0.6790  1.9513 -0.5942
  145SAPE  C31015976   1.590   3.666   9.746  0.0619  0.1476  0.3084
  145SAPE  H10X15977   1.669   3.742   9.765 -0.5602  1.3999 -1.8237
  145SAPE  H10Y15978   1.539   3.698   9.653 -1.2437  0.5160  1.1278
  145SAPE  C31115979   1.660   3.528   9.720  0.1035 -0.7328  0.6521
  145SAPE  H11X15980   1.575   3.469   9.678  0.1348 -1.1271  1.1418
  145SAPE  H11Y15981   1.704   3.485   9.812 -1.0685 -2.1389  0.5957
  145SAPE  C31215982   1.781   3.534   9.622 -0.3117 -0.3211  0.2588
  145SAPE  H12X15983   1.833   3.436   9.625 -0.6368 -0.4730  2.8565
  145SAPE  H12Y15984   1.853   3.614   9.650  0.4076 -0.7922 -0.1909
  145SAPE  C31315985   1.736   3.562   9.475 -0.5456 -1.1582  0.8509
  145SAPE  H13X15986   1.704   3.668   9.482  0.4698 -0.8332  0.8574
  145SAPE  H13Y15987   1.652   3.496   9.446 -0.4565 -1.9863  2.3498
  145SAPE  C31415988   1.857   3.547   9.383 -0.5426 -0.8420  0.6853
  145SAPE  H14X15989   1.895   3.443   9.376  0.1018 -0.5081 -2.0301
  145SAPE  H14Y15990   1.942   3.597   9.433 -0.9640  0.6209 -0.0052
  145SAPE  C31515991   1.828   3.601   9.242  0.5459  0.8844  0.0170
  145SAPE  H15X15992   1.925   3.602   9.188 -0.2795  0.6805 -1.4964
  145SAPE  H15Y15993   1.778   3.700   9.242 -1.5990 -0.1430 -0.3382
  145SAPE  C31615994   1.737   3.492   9.167  0.2302  0.1058 -0.0910
  145SAPE  H16X15995   1.668   3.447   9.241 -0.3573  0.3377 -0.4883
  145SAPE  H16Y15996   1.808   3.412   9.136 -1.1372 -0.8327 -0.9225
  145SAPE  C31715997   1.661   3.546   9.047  0.2112  0.0852  0.2941
  145SAPE  H17X15998   1.598   3.622   9.098  0.0008  1.0201 -1.2880
  145SAPE  H17Y15999   1.589   3.470   9.009 -0.4579  0.6944  0.3104
  145SAPE  C31816000   1.750   3.616   8.940  0.6807 -0.1639  0.5447
  145SAPE  H18X16001   1.705   3.609   8.839  2.5434 -1.7358 -0.2222
  145SAPE  H18Y16002   1.844   3.558   8.927  0.3432  0.0372 -4.6552
  145SAPE  H18Z16003   1.784   3.720   8.961  1.5940 -0.6908  1.8744
  146SAPE     N16004   3.140   3.488  11.336  0.0027  0.4332 -1.3803
  146SAPE   HN116005   3.072   3.461  11.410  0.4697  1.4998 -0.5299
  146SAPE   HN216006   3.210   3.411  11.345 -0.7328 -0.0617  0.9166
  146SAPE   HN316007   3.178   3.579  11.368  0.6612  1.3524 -4.4441
  146SAPE   C1216008   3.090   3.508  11.200  0.8578 -0.4196  0.4208
  146SAPE  H12A16009   2.980   3.493  11.197  0.7443  0.4216  0.2693
  146SAPE  H12B16010   3.125   3.422  11.138 -0.4596 -1.6457  1.3161
  146SAPE   C1116011   3.155   3.632  11.152  0.3421  0.2238 -0.1327
  146SAPE  H11A16012   3.118   3.726  11.199 -0.2120  1.7659 -3.3724
  146SAPE  H11B16013   3.128   3.623  11.045  0.2986 -1.3616 -0.0014
  146SAPE     P16014   3.391   3.726  11.081  0.4755 -0.4729  0.1020
  146SAPE   O1316015   3.420   3.831  11.186 -0.0506  0.8543  0.5441
  146SAPE   O1416016   3.512   3.657  11.028  0.5022 -0.8098  0.2144
  146SAPE   O1216017   3.296   3.618  11.150  0.4210 -0.0384 -0.5958
  146SAPE   O1116018   3.309   3.782  10.955  0.4851 -0.5220  0.3219
  146SAPE    C116019   3.302   3.691  10.836  0.6550 -0.1913  0.3776
  146SAPE    HA16020   3.356   3.594  10.837  1.8088  0.3481 -2.1071
  146SAPE    HB16021   3.196   3.658  10.831  0.5808 -0.1503  1.5518
  146SAPE    C216022   3.335   3.768  10.712 -0.4767 -0.0447  0.3104
  146SAPE    HS16023   3.330   3.690  10.633  1.0719 -0.4615  0.5890
  146SAPE   O2116024   3.464   3.829  10.728  0.0290  0.6943  0.4583
  146SAPE   C2116025   3.566   3.745  10.703 -0.1989  0.0616  0.7307
  146SAPE   O2216026   3.553   3.628  10.670  0.0497  0.6583 -0.4135
  146SAPE   C2216027   3.700   3.816  10.721  0.1119  0.0127 -0.5432
  146SAPE   H2R16028   3.678   3.922  10.698  0.0522  0.3092  0.8434
  146SAPE   H2S16029   3.738   3.809  10.825  0.1132 -4.7229 -0.6446
  146SAPE    C316030   3.238   3.877  10.665  0.2993 -0.7545 -0.6146
  146SAPE    HX16031   3.283   3.925  10.576 -1.4055  2.0574 -0.0812
  146SAPE    HY16032   3.232   3.953  10.745 -2.6445  0.6147 -1.9581
  146SAPE   O3116033   3.114   3.817  10.627  0.3234 -0.3659  0.2833
  146SAPE   C3116034   3.011   3.850  10.704  0.3323 -0.8421 -0.9864
  146SAPE   O3216035   3.022   3.924  10.799 -0.2538 -0.1701 -0.4027
  146SAPE   C3216036   2.885   3.769  10.674 -0.1719  0.0916  0.8358
  146SAPE   H2X16037   2.824   3.784  10.765 -1.8171  1.1105 -0.3728
  146SAPE   H2Y16038   2.902   3.662  10.649  0.2527  0.5015 -0.7672
  146SAPE   C2316039   3.815   3.761  10.630  0.0331 -0.0715 -0.4260
  146SAPE   H3R16040   3.804   3.651  10.624 -3.9872 -0.0360  2.4849
  146SAPE   H3S16041   3.916   3.777  10.675 -1.0222  0.6612  1.8202
  146SAPE   C2416042   3.815   3.823  10.485  0.1191  0.6507  0.4357
  146SAPE   H4R16043   3.917   3.805  10.444 -1.0286 -0.5399 -2.0834
  146SAPE   H4S16044   3.810   3.933  10.486  0.8737  0.7073 -0.5208
  146SAPE   C2516045   3.705   3.768  10.395  0.0160  0.3770  0.2538
  146SAPE   H5R16046   3.708   3.658  10.394  1.4559  0.4003  0.3034
  146SAPE   C2616047   3.620   3.825  10.307 -0.2583 -0.4041  0.1773
  146SAPE   H6R16048   3.563   3.761  10.239 -0.5965 -0.5713  0.6169
  146SAPE   C2716049   3.603   3.974  10.276 -0.0625  0.8270  0.3408
  146SAPE   H7R16050   3.533   3.990  10.192  3.2056  0.4557 -2.6586
  146SAPE   H7S16051   3.696   4.012  10.229 -0.3639 -0.3528 -1.2682
  146SAPE   C2816052   3.563   4.064  10.391 -0.4094 -0.2005 -0.0119
  146SAPE   H8R16053   3.646   4.083  10.460  0.6966 -1.4681 -0.9382
  146SAPE   C2916054   3.445   4.112  10.418 -0.0803 -0.9294  0.0431
  146SAPE   H9R16055   3.426   4.171  10.509  2.4902  0.6242 -0.3211
  146SAPE  C21016056   3.326   4.094  10.333 -0.0448  0.3228  0.7035
  146SAPE  H10R16057   3.243   4.097  10.408 -0.0698  0.1597  0.6815
  146SAPE  H10S16058   3.322   3.987  10.303  2.3094 -0.1921  1.9766
  146SAPE  C21116059   3.308   4.196  10.221 -0.4247  0.7599 -1.2495
  146SAPE  H11R16060   3.336   4.298  10.250 -1.1295  1.1388 -1.8734
  146SAPE  C21216061   3.275   4.178  10.096  0.1904  0.1113 -0.3018
  146SAPE  H12R16062   3.272   4.266  10.029  0.5579 -0.4238 -1.0394
  146SAPE  C21316063   3.235   4.048  10.027  0.0602  0.3068  0.2320
  146SAPE  H13R16064   3.191   3.981  10.103  0.5189  1.2474  1.3684
  146SAPE  H13S16065   3.328   4.005   9.984 -0.6499 -1.4432  0.3675
  146SAPE  C21416066   3.132   4.091   9.918  0.1169  0.4450  0.0965
  146SAPE  H14R16067   3.031   4.089   9.960  0.7250  0.1906  1.6025
  146SAPE  C21516068   3.162   4.124   9.790  0.4782 -0.5503 -0.1945
  146SAPE  H15R16069   3.074   4.157   9.733  1.3605  0.2906 -1.0887
  146SAPE  C21616070   3.302   4.126   9.738 -0.6032 -0.4630 -0.0953
  146SAPE  H16R16071   3.349   4.026   9.750  0.1597 -0.1065 -0.0370
  146SAPE  H16S16072   3.359   4.188   9.812 -1.3676 -1.8002  1.6913
  146SAPE  C21716073   3.301   4.169   9.589  0.6393  0.4901 -0.0213
  146SAPE  H17R16074   3.406   4.178   9.553  0.3400 -0.7572 -1.3342
  146SAPE  H17S16075   3.259   4.272   9.579  0.5102  0.2144 -3.9234
  146SAPE  C21816076   3.219   4.075   9.497 -0.4479 -0.3517  0.0213
  146SAPE  H18R16077   3.116   4.071   9.538  0.6155 -2.3010  2.8164
  146SAPE  H18S16078   3.258   3.971   9.500  1.0075  0.1835  0.9589
  146SAPE  C21916079   3.202   4.134   9.356 -0.4765  0.8434  0.3310
  146SAPE  H19R16080   3.153   4.233   9.369  1.9557  2.2718 -0.6279
  146SAPE  H19S16081   3.131   4.067   9.302  1.4358 -0.8880 -0.1482
  146SAPE  C22016082   3.333   4.126   9.273  0.6410  0.1952 -1.3061
  146SAPE  H20R16083   3.374   4.023   9.268 -0.6430 -0.5032  0.9895
  146SAPE  H20S16084   3.409   4.187   9.327 -0.5044  0.8785 -0.4017
  146SAPE  H20T16085   3.323   4.161   9.168  1.0064 -1.6652 -1.9996
  146SAPE   C3316086   2.806   3.833  10.552 -0.0579 -0.1073 -0.6851
  146SAPE   H3X16087   2.787   3.941  10.566  0.3910 -0.1144 -0.0164
  146SAPE   H3Y16088   2.705   3.787  10.543 -0.4411  1.0774 -3.1715
  146SAPE   C3416089   2.859   3.798  10.410  0.3461 -0.2616 -0.7893
  146SAPE   H4X16090   2.944   3.868  10.393 -0.1164  0.6930  0.7153
  146SAPE   H4Y16091   2.773   3.823  10.344 -1.8709 -0.5170  1.8499
  146SAPE   C3516092   2.887   3.654  10.388 -0.1808 -0.2293  0.5369
  146SAPE   H5X16093   2.818   3.580  10.434  0.4989 -1.7311 -0.7517
  146SAPE   H5Y16094   2.988   3.626  10.426  1.8048  1.5279 -2.9323
  146SAPE   C3616095   2.887   3.607  10.237 -0.4562 -0.6449  0.4180
  146SAPE   H6X16096   2.781   3.602  10.206 -1.8808  1.6725  4.1681
  146SAPE   H6Y16097   2.936   3.507  10.236  2.5699  0.7278 -0.6346
  146SAPE   C3716098   2.965   3.698  10.133 -0.1232  0.3189 -1.0917
  146SAPE   H7X16099   3.072   3.696  10.162 -0.3092  0.4298 -0.3641
  146SAPE   H7Y16100   2.921   3.800  10.136 -1.0331 -0.0456 -1.7192
  146SAPE   C3816101   2.958   3.652   9.988 -0.6846  0.7610 -0.4008
  146SAPE   H8X16102   2.855   3.624   9.958  0.3971 -4.2841 -0.2715
  146SAPE   H8Y16103   3.016   3.558   9.985  0.0062  1.1912 -0.9990
  146SAPE   C3916104   3.018   3.751   9.882  0.1249  0.2643  0.9048
  146SAPE   H9X16105   3.118   3.775   9.925 -0.4630  0.9096  1.9606
  146SAPE   H9Y16106   2.963   3.847   9.891  0.5119  0.3167  3.5514
  146SAPE  C31016107   3.045   3.678   9.748 -0.3754 -0.2869  0.0981
  146SAPE  H10X16108   3.049   3.570   9.775  3.6164 -0.0535  1.0093
  146SAPE  H10Y16109   3.139   3.714   9.702  0.4403 -2.2200  0.1451
  146SAPE  C31116110   2.949   3.725   9.642  0.3924 -0.4283  0.4092
  146SAPE  H11X16111   2.955   3.836   9.638  3.3818 -0.5520 -0.6104
  146SAPE  H11Y16112   2.848   3.711   9.687  0.8793 -3.7630  0.7192
  146SAPE  C31216113   2.954   3.667   9.506  0.3886 -0.4750  0.2307
  146SAPE  H12X16114   2.866   3.696   9.445  1.4182  1.9212 -0.2066
  146SAPE  H12Y16115   2.945   3.557   9.519  2.4420 -0.5473  1.4389
  146SAPE  C31316116   3.082   3.709   9.435 -0.8181  0.3036  0.0553
  146SAPE  H13X16117   3.176   3.687   9.490  0.3714  0.0915 -1.9645
  146SAPE  H13Y16118   3.073   3.819   9.419 -2.9973  0.2191  0.4242
  146SAPE  C31416119   3.101   3.654   9.298 -0.1326  0.1498 -0.1108
  146SAPE  H14X16120   3.004   3.637   9.247  0.5740 -0.3116 -1.3507
  146SAPE  H14Y16121   3.150   3.557   9.318 -0.3018  0.6283  3.1743
  146SAPE  C31516122   3.213   3.720   9.223  0.4975 -0.4251  0.1204
  146SAPE  H15X16123   3.297   3.715   9.296 -0.1732 -2.9715  0.7930
  146SAPE  H15Y16124   3.201   3.828   9.201 -3.3930 -0.5249  1.1334
  146SAPE  C31616125   3.252   3.662   9.094  0.0315 -0.0607  0.0113
  146SAPE  H16X16126   3.184   3.686   9.008  1.0984 -3.1550 -1.8384
  146SAPE  H16Y16127   3.240   3.552   9.101 -1.6356  0.1187  0.5050
  146SAPE  C31716128   3.405   3.671   9.066 -0.6716  0.1196  0.4558
  146SAPE  H17X16129   3.435   3.595   8.991  0.1228 -1.3304  2.1744
  146SAPE  H17Y16130   3.442   3.639   9.165 -3.2990 -1.2641  1.0958
  146SAPE  C31816131   3.449   3.811   9.025 -0.7081  0.4908  0.0287
  146SAPE  H18X16132   3.553   3.804   8.988  0.0107 -0.3688  2.0527
  146SAPE  H18Y16133   3.470   3.868   9.118  2.2000 -1.7309  0.8750
  146SAPE  H18Z16134   3.380   3.855   8.949  1.1042  0.7669 -1.5213
  147SAPE     N16135   2.077   1.080   5.791 -0.5040 -0.3350 -0.6723
  147SAPE   HN116136   2.074   1.171   5.740  1.0796  0.8789  1.2535
  147SAPE   HN216137   2.001   1.024   5.746 -1.5237 -0.9918  1.6962
  147SAPE   HN316138   2.061   1.105   5.890 -0.5905  0.7537 -0.9527
  147SAPE   C1216139   2.202   1.000   5.774 -0.5663 -0.6353  0.1596
  147SAPE  H12A16140   2.281   1.059   5.825 -2.1830  1.9964 -0.1862
  147SAPE  H12B16141   2.227   0.978   5.668  1.4406 -2.0918  0.8638
  147SAPE   C1116142   2.196   0.864   5.849 -0.0236  0.1479  0.0889
  147SAPE  H11A16143   2.300   0.825   5.846 -0.5780 -1.3467 -1.2304
  147SAPE  H11B16144   2.134   0.795   5.788  0.4251  2.2093 -2.9067
  147SAPE     P16145   2.215   0.859   6.106 -0.3605 -0.0898  0.0372
  147SAPE   O1316146   2.169   0.974   6.192 -0.1841  1.0375  0.2525
  147SAPE   O1416147   2.188   0.722   6.154 -0.4406  0.2172  0.0501
  147SAPE   O1216148   2.133   0.884   5.975 -0.0945 -0.3713  0.0476
  147SAPE   O1116149   2.371   0.882   6.062 -0.0267  0.6761 -0.9042
  147SAPE    C116150   2.443   0.993   6.094 -1.4948 -0.3197 -0.4279
  147SAPE    HA16151   2.498   1.026   6.004 -1.5464 -3.4913 -1.7573
  147SAPE    HB16152   2.382   1.084   6.115 -0.5189  0.9242 -2.7240
  147SAPE    C216153   2.548   0.954   6.209 -1.6427 -1.4480  0.2995
  147SAPE    HS16154   2.618   0.878   6.168  1.2810  1.8721 -1.3478
  147SAPE   O2116155   2.472   0.909   6.324  0.1570 -0.1894 -0.2365
  147SAPE   C2116156   2.536   0.824   6.397 -0.1306  0.0416 -0.2071
  147SAPE   O2216157   2.648   0.770   6.380  0.0470  0.1818  0.2944
  147SAPE   C2216158   2.447   0.806   6.526  0.2144  0.4775  0.1934
  147SAPE   H2R16159   2.367   0.882   6.517 -0.2937 -0.0335  0.3832
  147SAPE   H2S16160   2.390   0.711   6.519 -1.2623  1.3367  0.2593
  147SAPE    C316161   2.641   1.069   6.264  0.5242  0.1355  1.0044
  147SAPE    HX16162   2.582   1.132   6.334 -2.0810 -1.3864  0.3473
  147SAPE    HY16163   2.669   1.135   6.179  2.4119 -0.8867  0.8053
  147SAPE   O3116164   2.767   1.011   6.313  0.0879  0.2606 -0.0267
  147SAPE   C3116165   2.825   1.082   6.410  0.3543 -0.1692  0.0356
  147SAPE   O3216166   2.783   1.189   6.445 -0.7413 -0.0801 -0.3995
  147SAPE   C3216167   2.941   1.007   6.460  0.5908 -0.0293  0.1585
  147SAPE   H2X16168   3.024   1.014   6.386  0.4661  0.5013  0.0667
  147SAPE   H2Y16169   2.924   0.899   6.478 -0.4843 -0.0875 -1.0824
  147SAPE   C2316170   2.529   0.823   6.660 -0.4362  0.0151 -0.3310
  147SAPE   H3R16171   2.607   0.743   6.662  1.0421  1.3738 -1.1236
  147SAPE   H3S16172   2.452   0.807   6.739  1.5229 -1.5274  1.3906
  147SAPE   C2416173   2.596   0.959   6.676 -0.0035 -0.7404  0.2849
  147SAPE   H4R16174   2.524   1.042   6.680 -0.2013 -0.7191 -2.0844
  147SAPE   H4S16175   2.654   0.977   6.583 -1.7338  0.9041 -0.5240
  147SAPE   C2516176   2.692   0.947   6.798  0.5718 -0.4545 -0.1313
  147SAPE   H5R16177   2.750   0.853   6.797 -1.4864 -1.8259 -2.1324
  147SAPE   C2616178   2.692   1.023   6.907 -0.0652  0.8137 -0.6849
  147SAPE   H6R16179   2.777   1.008   6.975 -1.2762 -1.0854  0.5031
  147SAPE   C2716180   2.599   1.134   6.944 -0.1845 -0.5054  0.3279
  147SAPE   H7R16181   2.522   1.107   7.020 -1.2470  0.9543 -0.1736
  147SAPE   H7S16182   2.541   1.168   6.855  1.2613 -2.2582 -1.3537
  147SAPE   C2816183   2.668   1.251   7.013  0.0675 -0.2977  0.3797
  147SAPE   H8R16184   2.689   1.341   6.953 -2.1934  1.1126  1.5854
  147SAPE   C2916185   2.672   1.270   7.144  0.2487 -0.2769 -0.4203
  147SAPE   H9R16186   2.714   1.363   7.186 -0.2087  0.5822 -1.7994
  147SAPE  C21016187   2.621   1.177   7.254 -0.7309 -0.9647  0.3727
  147SAPE  H10R16188   2.635   1.079   7.204  0.1019 -1.1625  0.9809
  147SAPE  H10S16189   2.513   1.203   7.261 -0.6992 -0.6596 -0.2045
  147SAPE  C21116190   2.692   1.179   7.392 -0.5487 -0.2010 -0.1671
  147SAPE  H11R16191   2.743   1.083   7.408 -1.4510 -0.4544  1.3166
  147SAPE  C21216192   2.713   1.268   7.484  0.1694 -0.1900  0.3349
  147SAPE  H12R16193   2.773   1.238   7.571  0.7883 -1.9464 -0.6492
  147SAPE  C21316194   2.657   1.404   7.470 -0.4306 -0.1409 -0.6498
  147SAPE  H13R16195   2.552   1.399   7.503 -0.7228 -0.2296 -1.5636
  147SAPE  H13S16196   2.662   1.445   7.367  0.5482 -0.3836 -0.7178
  147SAPE  C21416197   2.725   1.516   7.554 -0.9432  0.1354 -0.0475
  147SAPE  H14R16198   2.789   1.584   7.496 -1.8889  1.1388  0.0422
  147SAPE  C21516199   2.734   1.535   7.684  0.0496 -0.3997 -0.1632
  147SAPE  H15R16200   2.778   1.629   7.719  1.1193  0.1195 -2.7267
  147SAPE  C21616201   2.663   1.453   7.782  0.1658  0.0571 -0.4136
  147SAPE  H16R16202   2.591   1.380   7.739 -0.4880 -0.3907  1.3438
  147SAPE  H16S16203   2.602   1.522   7.844  2.4625 -0.3792  2.6004
  147SAPE  C21716204   2.748   1.379   7.888 -0.6861 -0.8324 -0.1135
  147SAPE  H17R16205   2.824   1.453   7.920  0.1506 -1.4837 -0.5268
  147SAPE  H17S16206   2.800   1.294   7.837 -1.4673 -0.9763 -0.6951
  147SAPE  C21816207   2.682   1.328   8.013  0.5332  0.0886  0.2204
  147SAPE  H18R16208   2.611   1.243   8.003 -1.4362  1.3361  2.3635
  147SAPE  H18S16209   2.628   1.408   8.068 -0.1634 -0.7637  0.8216
  147SAPE  C21916210   2.791   1.262   8.103  0.1294  1.0850 -0.2949
  147SAPE  H19R16211   2.892   1.266   8.057  0.7819 -1.1128  0.8065
  147SAPE  H19S16212   2.766   1.154   8.106  1.0203  0.8793  0.3278
  147SAPE  C22016213   2.796   1.312   8.249  0.0265 -0.3984 -0.6580
  147SAPE  H20R16214   2.871   1.393   8.257 -0.1916 -0.3261  1.2087
  147SAPE  H20S16215   2.835   1.230   8.313  1.2648 -1.0529 -2.2062
  147SAPE  H20T16216   2.699   1.355   8.284  1.2804  2.1795 -0.1309
  147SAPE   C3316217   2.996   1.083   6.587  0.0966 -0.0838  0.3153
  147SAPE   H3X16218   3.051   1.007   6.646  0.3794 -1.0926 -1.1918
  147SAPE   H3Y16219   2.909   1.117   6.647  0.2477  1.2453 -0.1869
  147SAPE   C3416220   3.075   1.205   6.538 -0.4566  0.5108  0.9611
  147SAPE   H4X16221   3.001   1.281   6.506  0.9700  1.2553 -0.7566
  147SAPE   H4Y16222   3.141   1.176   6.454 -0.4226 -0.6555  1.3686
  147SAPE   C3516223   3.159   1.276   6.647  0.2966  0.0336  0.1070
  147SAPE   H5X16224   3.199   1.376   6.617  0.2392 -0.3145 -1.1758
  147SAPE   H5Y16225   3.241   1.209   6.682  0.8080 -1.0607 -2.9268
  147SAPE   C3616226   3.072   1.314   6.767 -0.6399 -0.1770  0.1066
  147SAPE   H6X16227   3.035   1.222   6.818  1.7819 -0.7370  1.0037
  147SAPE   H6Y16228   2.992   1.379   6.725 -0.0535 -0.7548 -2.0139
  147SAPE   C3716229   3.132   1.393   6.885 -0.4065 -0.1781  0.4581
  147SAPE   H7X16230   3.145   1.500   6.859 -1.7227 -0.4787 -1.7190
  147SAPE   H7Y16231   3.232   1.352   6.909 -0.9144 -2.9564 -1.6776
  147SAPE   C3816232   3.053   1.385   7.016  0.2460  0.3908 -0.3377
  147SAPE   H8X16233   3.039   1.278   7.043 -1.7804  0.7624  0.2234
  147SAPE   H8Y16234   2.950   1.421   6.997  0.0843 -0.3915 -0.9970
  147SAPE   C3916235   3.121   1.452   7.135 -0.5134 -0.5245 -1.4168
  147SAPE   H9X16236   3.155   1.552   7.102  1.8636 -0.8934 -0.3426
  147SAPE   H9Y16237   3.215   1.403   7.169 -0.4224  0.4068 -0.2875
  147SAPE  C31016238   3.034   1.490   7.256  0.2917  0.4165  0.1108
  147SAPE  H10X16239   3.018   1.398   7.317  0.8530 -0.4158 -0.9738
  147SAPE  H10Y16240   2.944   1.535   7.209  1.5521  3.0846  0.0583
  147SAPE  C31116241   3.093   1.605   7.345 -0.8499  0.6754  0.4896
  147SAPE  H11X16242   3.005   1.641   7.404 -2.3348  1.2916 -1.9522
  147SAPE  H11Y16243   3.137   1.680   7.277 -1.9638 -0.5481 -1.6956
  147SAPE  C31216244   3.193   1.545   7.444 -0.3999 -0.0826 -0.2176
  147SAPE  H12X16245   3.275   1.619   7.457  0.7871 -0.9913 -1.9854
  147SAPE  H12Y16246   3.245   1.459   7.396 -0.7409 -0.3041 -0.1911
  147SAPE  C31316247   3.134   1.506   7.579 -0.0172  0.5238 -0.3475
  147SAPE  H13X16248   3.057   1.427   7.585 -2.2714  2.7147  1.9173
  147SAPE  H13Y16249   3.079   1.599   7.607 -1.8394 -0.3462 -0.8972
  147SAPE  C31416250   3.245   1.479   7.685 -0.2347  0.6751 -0.3152
  147SAPE  H14X16251   3.341   1.533   7.677  1.4440 -1.8897  0.9158
  147SAPE  H14Y16252   3.261   1.369   7.682  1.0405  0.8764 -1.6334
  147SAPE  C31516253   3.185   1.502   7.824  0.1533 -0.2186  0.2361
  147SAPE  H15X16254   3.090   1.445   7.831  0.2028 -0.4388 -0.6682
  147SAPE  H15Y16255   3.167   1.612   7.826  0.6545 -0.1380  0.4130
  147SAPE  C31616256   3.292   1.460   7.931  0.4192  0.6840 -0.1718
  147SAPE  H16X16257   3.371   1.537   7.940 -2.1712  3.4468  0.2742
  147SAPE  H16Y16258   3.342   1.364   7.907 -0.3464  0.1160  0.4437
  147SAPE  C31716259   3.222   1.452   8.074 -0.7117 -0.3119  0.0469
  147SAPE  H17X16260   3.133   1.390   8.047  1.5687 -3.3063 -1.1138
  147SAPE  H17Y16261   3.194   1.554   8.107  1.3872 -0.4015  2.3791
  147SAPE  C31816262   3.298   1.407   8.200 -0.5237 -0.5242  0.1597
  147SAPE  H18X16263   3.345   1.312   8.165 -2.6651 -1.8724  0.7020
  147SAPE  H18Y16264   3.218   1.392   8.276  0.4039  0.1799  1.3082
  147SAPE  H18Z16265   3.370   1.481   8.241 -1.0792 -1.1360  2.4390
  148SAPE     N16266   6.180   4.763   6.405  0.5531  0.0052  0.3684
  148SAPE   HN116267   6.212   4.786   6.309 -1.3269  1.9328  0.1349
  148SAPE   HN216268   6.078   4.756   6.382  1.2164 -0.9937 -2.7875
  148SAPE   HN316269   6.203   4.845   6.465 -0.9283  1.8140 -1.3907
  148SAPE   C1216270   6.246   4.635   6.456  0.6052  0.2806  0.5196
  148SAPE  H12A16271   6.327   4.615   6.383 -0.1834  0.4675 -0.4166
  148SAPE  H12B16272   6.169   4.555   6.464  0.3910  0.5121  0.7887
  148SAPE   C1116273   6.311   4.668   6.596  0.1244 -0.3719  0.0797
  148SAPE  H11A16274   6.371   4.581   6.631  3.0795  1.9168  1.1254
  148SAPE  H11B16275   6.237   4.675   6.679  0.3332 -0.9081  0.3149
  148SAPE     P16276   6.536   4.792   6.587 -0.1139  0.0752  0.2800
  148SAPE   O1316277   6.598   4.687   6.501 -0.0910  0.6165  0.0555
  148SAPE   O1416278   6.580   4.934   6.571  0.7686 -0.0406  0.1934
  148SAPE   O1216279   6.382   4.789   6.581  0.0653  0.1452 -0.8677
  148SAPE   O1116280   6.559   4.762   6.741 -0.2593  0.4373  0.1778
  148SAPE    C116281   6.579   4.864   6.836  0.5704  0.6312  0.7210
  148SAPE    HA16282   6.518   4.953   6.810  0.0421 -0.1719 -0.9479
  148SAPE    HB16283   6.532   4.824   6.928 -0.2664 -2.1192 -0.7946
  148SAPE    C216284   6.723   4.903   6.870 -0.3620  0.1419 -0.1182
  148SAPE    HS16285   6.777   4.931   6.777 -0.7831  0.2744 -0.3210
  148SAPE   O2116286   6.795   4.797   6.934 -0.2188 -0.0707 -0.4070
  148SAPE   C2116287   6.849   4.705   6.861  1.1471  1.3052  0.3440
  148SAPE   O2216288   6.854   4.704   6.739  0.6362  0.1429 -0.3290
  148SAPE   C2216289   6.921   4.604   6.959  0.4957  0.2204  0.1416
  148SAPE   H2R16290   7.028   4.635   6.963  0.2463  1.1699 -0.3860
  148SAPE   H2S16291   6.875   4.624   7.059  1.3149  1.2186  0.3376
  148SAPE    C316292   6.740   5.033   6.962  0.4766  0.3841  0.6635
  148SAPE    HX16293   6.675   5.110   6.915 -1.5587 -0.5406  1.8346
  148SAPE    HY16294   6.839   5.081   6.952  0.1890  0.5608 -2.5510
  148SAPE   O3116295   6.691   5.013   7.096  0.3538  0.2979  0.1264
  148SAPE   C3116296   6.786   4.975   7.180 -0.2819  0.5212  0.3986
  148SAPE   O3216297   6.906   4.977   7.164  0.2834 -0.1619  0.3675
  148SAPE   C3216298   6.704   4.921   7.299 -0.2566 -0.1405  0.5312
  148SAPE   H2X16299   6.759   4.834   7.340 -1.1041 -0.9190  0.0369
  148SAPE   H2Y16300   6.606   4.889   7.257  1.0248  1.9928 -4.8901
  148SAPE   C2316301   6.900   4.456   6.921  0.1684  0.5285 -0.5807
  148SAPE   H3R16302   6.959   4.441   6.828  0.9953 -1.6042  0.2198
  148SAPE   H3S16303   6.795   4.419   6.919 -0.0212  0.8697  1.2068
  148SAPE   C2416304   6.945   4.353   7.038 -0.1355  0.0196 -0.3133
  148SAPE   H4R16305   6.908   4.253   7.006  2.2584 -0.0943 -3.0278
  148SAPE   H4S16306   6.892   4.385   7.131  2.8812 -0.7896  1.8472
  148SAPE   C2516307   7.096   4.357   7.070  0.3540  0.4823  0.1577
  148SAPE   H5R16308   7.162   4.363   6.982 -1.0665  3.3634 -0.8127
  148SAPE   C2616309   7.142   4.365   7.200 -0.1138 -0.1695 -0.2169
  148SAPE   H6R16310   7.249   4.389   7.208 -0.7360  2.5798  1.3999
  148SAPE   C2716311   7.053   4.359   7.331 -0.1309  0.5478  0.3959
  148SAPE   H7R16312   6.986   4.271   7.337  0.5096  0.1335  1.8754
  148SAPE   H7S16313   6.981   4.443   7.339 -0.4863  0.2525  0.3078
  148SAPE   C2816314   7.139   4.353   7.452 -0.0256 -0.2686  0.2961
  148SAPE   H8R16315   7.220   4.425   7.437  1.9668 -2.0110  1.9776
  148SAPE   C2916316   7.137   4.266   7.556 -0.5087  0.1132  0.0794
  148SAPE   H9R16317   7.226   4.281   7.618 -0.9174 -0.6592  0.8668
  148SAPE  C21016318   7.068   4.129   7.569 -0.1672  0.0029 -0.3111
  148SAPE  H10R16319   6.958   4.147   7.566 -0.3317  0.1330  2.9583
  148SAPE  H10S16320   7.078   4.074   7.665 -0.1409  2.4281  1.1509
  148SAPE  C21116321   7.102   4.023   7.464 -0.2010 -0.3197 -0.0088
  148SAPE  H11R16322   7.150   4.066   7.374  0.6185 -0.8162  0.1784
  148SAPE  C21216323   7.079   3.891   7.467  0.8686  0.4346 -0.1847
  148SAPE  H12R16324   7.114   3.826   7.386  1.9267 -0.6610  1.1053
  148SAPE  C21316325   6.998   3.817   7.572 -0.1287  0.3993 -0.0805
  148SAPE  H13R16326   7.005   3.876   7.666  0.7124 -2.2686  1.6402
  148SAPE  H13S16327   7.053   3.721   7.583 -1.0536 -0.3106 -1.4024
  148SAPE  C21416328   6.854   3.797   7.540  0.1671 -0.2090 -0.0760
  148SAPE  H14R16329   6.806   3.882   7.489 -0.6519 -0.2359  0.6309
  148SAPE  C21516330   6.782   3.691   7.588 -0.3697  0.0373  0.0814
  148SAPE  H15R16331   6.675   3.676   7.568  0.2566 -1.8334 -2.2900
  148SAPE  C21616332   6.829   3.579   7.682 -0.1359 -0.1587  0.2753
  148SAPE  H16R16333   6.898   3.625   7.755 -0.5472  0.7464  0.1162
  148SAPE  H16S16334   6.883   3.502   7.623  1.0022  0.3141  0.6824
  148SAPE  C21716335   6.713   3.526   7.773  0.2585 -0.7593 -0.4143
  148SAPE  H17R16336   6.740   3.419   7.790  0.1926 -0.9953 -1.7130
  148SAPE  H17S16337   6.614   3.524   7.722 -0.6790 -1.9854  1.3468
  148SAPE  C21816338   6.696   3.606   7.900 -0.5435 -0.0999 -1.0824
  148SAPE  H18R16339   6.696   3.714   7.875 -0.7807 -0.3994 -2.4854
  148SAPE  H18S16340   6.786   3.597   7.965 -0.8096  0.8475 -0.5654
  148SAPE  C21916341   6.568   3.578   7.980 -1.2851  0.0565 -0.5860
  148SAPE  H19R16342   6.578   3.471   8.008  3.0212  0.4725  0.0596
  148SAPE  H19S16343   6.473   3.590   7.923 -1.2349  0.3236 -0.6144
  148SAPE  C22016344   6.560   3.667   8.100 -0.2712  0.1142 -0.6507
  148SAPE  H20R16345   6.554   3.771   8.062 -1.2351  0.3144  0.0147
  148SAPE  H20S16346   6.654   3.662   8.158  0.6356 -0.2922 -2.0996
  148SAPE  H20T16347   6.474   3.645   8.166 -0.0478  0.5310 -0.2176
  148SAPE   C3316348   6.697   5.022   7.410  0.2507 -1.0141  0.6285
  148SAPE   H3X16349   6.628   5.105   7.383  0.8213 -1.4702 -2.6432
  148SAPE   H3Y16350   6.800   5.056   7.432  0.1424 -2.0712  3.1873
  148SAPE   C3416351   6.644   4.962   7.534 -0.1158  0.2868  0.5858
  148SAPE   H4X16352   6.719   4.897   7.584  0.2231 -0.6296 -1.0374
  148SAPE   H4Y16353   6.557   4.899   7.506 -1.0377  1.7355  0.1358
  148SAPE   C3516354   6.605   5.061   7.645 -0.4508 -0.4385 -0.3160
  148SAPE   H5X16355   6.539   5.134   7.593 -1.2574  0.0564  1.3216
  148SAPE   H5Y16356   6.695   5.124   7.660  1.3344 -2.7091 -0.9741
  148SAPE   C3616357   6.559   5.008   7.781 -0.2112 -0.1949 -0.1448
  148SAPE   H6X16358   6.464   4.950   7.770 -1.2430  1.7749 -2.8732
  148SAPE   H6Y16359   6.529   5.101   7.834  0.3140  1.7057 -2.9436
  148SAPE   C3716360   6.673   4.954   7.867 -0.0325  0.3509 -0.4372
  148SAPE   H7X16361   6.742   5.037   7.893 -0.2920  0.8172 -1.2076
  148SAPE   H7Y16362   6.713   4.873   7.803 -0.3158 -0.8798  0.8853
  148SAPE   C3816363   6.611   4.897   7.998 -0.3398 -0.3884 -0.5141
  148SAPE   H8X16364   6.586   4.796   7.961 -0.2285 -0.0599 -1.5174
  148SAPE   H8Y16365   6.521   4.946   8.040  0.3827  2.1582 -1.7058
  148SAPE   C3916366   6.717   4.893   8.103 -0.6663 -0.1338 -0.2789
  148SAPE   H9X16367   6.734   4.993   8.148  0.0934  0.3338 -1.5472
  148SAPE   H9Y16368   6.822   4.873   8.072 -0.2838  1.1329  0.1061
  148SAPE  C31016369   6.677   4.781   8.202  0.6834  0.9726 -0.1732
  148SAPE  H10X16370   6.686   4.684   8.150 -0.6235  0.9115 -0.3341
  148SAPE  H10Y16371   6.569   4.780   8.229  0.0630 -3.5339 -1.9102
  148SAPE  C31116372   6.758   4.785   8.332 -0.5727 -0.3943  0.8191
  148SAPE  H11X16373   6.731   4.875   8.392 -1.8617 -0.1398 -0.0908
  148SAPE  H11Y16374   6.860   4.801   8.292 -0.4909 -1.2172  0.6854
  148SAPE  C31216375   6.748   4.667   8.423  0.4173 -0.8087  0.5659
  148SAPE  H12X16376   6.640   4.648   8.444 -0.5207  0.9872 -2.1108
  148SAPE  H12Y16377   6.809   4.691   8.512 -0.0535  1.0025  0.4265
  148SAPE  C31316378   6.816   4.542   8.368 -0.1126 -0.4725  0.2937
  148SAPE  H13X16379   6.925   4.558   8.354  0.5515 -1.9823  3.1218
  148SAPE  H13Y16380   6.778   4.512   8.268 -1.5593 -0.1292  0.7181
  148SAPE  C31416381   6.808   4.426   8.463  0.0536  0.3073 -0.8455
  148SAPE  H14X16382   6.860   4.462   8.554  0.2784 -0.4220 -0.6746
  148SAPE  H14Y16383   6.882   4.353   8.424  2.4132  1.9198  0.4232
  148SAPE  C31516384   6.669   4.358   8.477  0.0863  0.4092 -0.1421
  148SAPE  H15X16385   6.591   4.437   8.479 -0.1734  0.1809 -0.8350
  148SAPE  H15Y16386   6.664   4.314   8.578 -0.6018  1.5305  0.3263
  148SAPE  C31616387   6.644   4.240   8.368 -0.5761 -0.0670  0.5029
  148SAPE  H16X16388   6.673   4.289   8.273 -2.0623 -1.2337 -0.6209
  148SAPE  H16Y16389   6.534   4.226   8.379 -0.3154 -2.6298  0.5906
  148SAPE  C31716390   6.715   4.105   8.402 -0.8696  0.3547 -0.3288
  148SAPE  H17X16391   6.694   4.083   8.509  2.0610  2.9711  0.9506
  148SAPE  H17Y16392   6.822   4.127   8.379 -1.1014  1.0789 -0.7371
  148SAPE  C31816393   6.658   3.999   8.313 -0.0195 -0.1703  0.1927
  148SAPE  H18X16394   6.566   3.958   8.358 -0.9616  1.5244 -0.1091
  148SAPE  H18Y16395   6.722   3.911   8.290 -0.7196 -1.2169  2.0556
  148SAPE  H18Z16396   6.626   4.044   8.216  0.8693  0.4753  0.1841
  149SAPE     N16397   0.546   3.908   6.407 -0.5313 -0.2231  0.0584
  149SAPE   HN116398   0.600   3.873   6.325 -0.0287 -1.5976  0.9390
  149SAPE   HN216399   0.595   3.993   6.441 -1.1989  0.1724  0.0627
  149SAPE   HN316400   0.550   3.838   6.484 -1.6654 -0.2422  0.1170
  149SAPE   C1216401   0.400   3.916   6.372  0.3187  0.6220 -0.7499
  149SAPE  H12A16402   0.353   3.817   6.388 -1.1342  1.5270  0.9621
  149SAPE  H12B16403   0.397   3.938   6.264 -0.9492  1.4023 -0.5775
  149SAPE   C1116404   0.325   4.015   6.469  1.1739  0.5472 -0.3522
  149SAPE  H11A16405   0.336   4.116   6.424 -1.1317  0.8063 -0.4616
  149SAPE  H11B16406   0.377   4.003   6.567  0.3360 -1.6797 -0.1083
  149SAPE     P16407   0.091   3.978   6.346  0.1310 -0.0518  0.6924
  149SAPE   O1316408   0.149   4.041   6.225 -0.0135 -0.1962  0.0434
  149SAPE   O1416409   0.044   3.834   6.333  0.1754 -0.2876 -0.7471
  149SAPE   O1216410   0.190   3.984   6.472 -0.5903 -0.2880 -0.2017
  149SAPE   O1116411  -0.031   4.066   6.396  0.1490  0.0894 -0.0229
  149SAPE    C116412   0.005   4.197   6.457 -0.0051  0.4751  0.4109
  149SAPE    HA16413   0.114   4.216   6.451 -0.1940  1.0739 -2.5574
  149SAPE    HB16414  -0.047   4.276   6.398  0.3352  1.0763  0.8957
  149SAPE    C216415  -0.036   4.214   6.607 -0.6043 -0.8379  0.1226
  149SAPE    HS16416   0.010   4.307   6.646  2.7415 -2.6791  0.9494
  149SAPE   O2116417   0.004   4.104   6.692  0.0818  0.1189 -0.2253
  149SAPE   C2116418   0.133   4.121   6.733 -0.1555  0.2900  0.6083
  149SAPE   O2216419   0.200   4.223   6.711  0.1381  0.6843 -0.0499
  149SAPE   C2216420   0.168   4.003   6.820 -0.1776 -0.3645  0.0480
  149SAPE   H2R16421   0.088   3.990   6.897  0.0647 -0.4744  0.2821
  149SAPE   H2S16422   0.176   3.913   6.755  2.1701 -0.1539 -0.0340
  149SAPE    C316423  -0.184   4.245   6.618 -0.3397 -0.4554  0.7319
  149SAPE    HX16424  -0.226   4.142   6.617  1.5792 -1.2965 -0.3064
  149SAPE    HY16425  -0.217   4.316   6.539  1.1379 -0.5178  0.0171
  149SAPE   O3116426  -0.214   4.293   6.756  0.0012  0.2829  0.4612
  149SAPE   C3116427  -0.342   4.311   6.783 -0.0813  0.1678  0.0177
  149SAPE   O3216428  -0.437   4.274   6.721  0.3140  0.0118 -0.2119
  149SAPE   C3216429  -0.363   4.405   6.897 -0.2738 -0.7570  0.2087
  149SAPE   H2X16430  -0.462   4.455   6.895 -0.3232 -0.8500  0.2661
  149SAPE   H2Y16431  -0.290   4.488   6.890 -1.0046 -0.1415 -0.1690
  149SAPE   C2316432   0.305   4.015   6.890 -0.2158  0.0199 -0.6129
  149SAPE   H3R16433   0.304   4.108   6.951 -1.1549  0.2454 -0.9622
  149SAPE   H3S16434   0.382   4.017   6.810 -2.2073 -1.2945 -2.6797
  149SAPE   C2416435   0.328   3.896   6.991 -0.7478  0.2966 -0.1133
  149SAPE   H4R16436   0.433   3.892   7.027 -0.4868 -0.6495 -0.9380
  149SAPE   H4S16437   0.309   3.814   6.918 -1.9946 -0.2052  0.7481
  149SAPE   C2516438   0.229   3.905   7.111  0.4263  0.4123  0.2672
  149SAPE   H5R16439   0.243   3.995   7.173 -1.8939  1.4345 -0.5636
  149SAPE   C2616440   0.132   3.818   7.134 -0.4419 -1.2357  0.7591
  149SAPE   H6R16441   0.064   3.836   7.218 -0.6972  1.8301  0.0007
  149SAPE   C2716442   0.106   3.689   7.060  0.4881  0.0598  0.3903
  149SAPE   H7R16443   0.191   3.619   7.078 -0.9379 -1.6619  0.7485
  149SAPE   H7S16444   0.112   3.702   6.950 -0.4937 -1.6761  0.0857
  149SAPE   C2816445  -0.012   3.607   7.100 -0.3014  0.6040 -0.5469
  149SAPE   H8R16446  -0.107   3.627   7.049 -0.2776 -0.9765 -1.2877
  149SAPE   C2916447  -0.019   3.512   7.191 -0.1486  0.2850 -0.3370
  149SAPE   H9R16448  -0.108   3.448   7.197  0.6991 -0.8467  0.4387
  149SAPE  C21016449   0.094   3.461   7.284 -0.3795  0.0940  0.7227
  149SAPE  H10R16450   0.070   3.460   7.392  1.2061 -1.3281  1.0952
  149SAPE  H10S16451   0.186   3.522   7.269 -0.3574 -0.0906  0.0828
  149SAPE  C21116452   0.145   3.321   7.250  0.3621  0.6308 -0.3570
  149SAPE  H11R16453   0.148   3.300   7.142 -1.8796  0.4748 -0.4288
  149SAPE  C21216454   0.189   3.221   7.331  0.0173 -0.2737 -0.3554
  149SAPE  H12R16455   0.225   3.132   7.278  1.7262  0.7676 -1.0434
  149SAPE  C21316456   0.213   3.222   7.483 -0.1875 -0.5441  0.0683
  149SAPE  H13R16457   0.182   3.322   7.521 -0.6201 -0.9167  0.7201
  149SAPE  H13S16458   0.322   3.223   7.505 -0.1425 -3.0263  0.2186
  149SAPE  C21416459   0.141   3.111   7.552 -0.4583  0.0425  0.3580
  149SAPE  H14R16460   0.197   3.020   7.580 -0.5479 -0.0280  0.3063
  149SAPE  C21516461   0.014   3.108   7.578  1.3349  0.2865 -0.6206
  149SAPE  H15R16462  -0.028   3.028   7.641 -0.8964 -1.4709 -4.0829
  149SAPE  C21616463  -0.087   3.217   7.539 -0.3751  0.0093  0.6103
  149SAPE  H16R16464  -0.053   3.281   7.456  0.3282 -1.4375 -0.2663
  149SAPE  H16S16465  -0.111   3.277   7.630 -0.1408 -0.3551  0.9150
  149SAPE  C21716466  -0.219   3.151   7.493 -0.0041  0.3312  0.7730
  149SAPE  H17R16467  -0.284   3.233   7.455  0.8130 -0.2753 -2.2157
  149SAPE  H17S16468  -0.267   3.092   7.574  1.5869 -1.9519  0.1570
  149SAPE  C21816469  -0.186   3.048   7.376 -0.1233 -0.4653 -0.3627
  149SAPE  H18R16470  -0.122   2.968   7.419 -0.7967 -1.3836 -1.0449
  149SAPE  H18S16471  -0.122   3.093   7.297  3.4319 -1.4264  1.6908
  149SAPE  C21916472  -0.320   3.002   7.314  0.3730 -0.2665  0.5005
  149SAPE  H19R16473  -0.365   3.080   7.248  2.2803 -0.0685 -0.6334
  149SAPE  H19S16474  -0.380   2.988   7.406  1.6371 -0.3361  1.3290
  149SAPE  C22016475  -0.316   2.869   7.237  0.4616  0.5481 -0.0296
  149SAPE  H20R16476  -0.248   2.800   7.292 -0.5814 -0.6231 -0.1475
  149SAPE  H20S16477  -0.283   2.879   7.131 -3.0103  2.6999 -1.0529
  149SAPE  H20T16478  -0.418   2.826   7.248  0.7051  0.1102  0.5765
  149SAPE   C3316479  -0.340   4.334   7.029  0.1696  0.1143  0.2404
  149SAPE   H3X16480  -0.232   4.328   7.057 -0.1034 -0.3102  1.2257
  149SAPE   H3Y16481  -0.391   4.237   7.017 -0.1628 -0.0404  2.6149
  149SAPE   C3416482  -0.400   4.405   7.154 -0.3018  0.3436 -0.7411
  149SAPE   H4X16483  -0.379   4.345   7.245 -0.2142 -1.0316 -1.6565
  149SAPE   H4Y16484  -0.509   4.409   7.133 -0.2934  0.3967 -0.7756
  149SAPE   C3516485  -0.348   4.551   7.167  0.3696  0.5898 -0.2698
  149SAPE   H5X16486  -0.394   4.599   7.255  0.9147 -0.1491  0.4315
  149SAPE   H5Y16487  -0.388   4.606   7.079 -0.2364 -1.4637 -1.3459
  149SAPE   C3616488  -0.201   4.550   7.176  0.1073 -0.2442 -0.1352
  149SAPE   H6X16489  -0.195   4.661   7.181 -0.9882 -0.0473 -2.1108
  149SAPE   H6Y16490  -0.143   4.509   7.090  0.4992  0.3615 -0.1681
  149SAPE   C3716491  -0.123   4.500   7.302  1.4554  0.7363  0.4845
  149SAPE   H7X16492  -0.018   4.535   7.298  1.5095  0.5220 -2.5197
  149SAPE   H7Y16493  -0.103   4.391   7.299 -0.7571  0.2824  0.5842
  149SAPE   C3816494  -0.193   4.551   7.429 -0.0323  0.6618  0.2101
  149SAPE   H8X16495  -0.301   4.527   7.438 -0.0061 -0.9065 -2.5265
  149SAPE   H8Y16496  -0.181   4.662   7.432 -2.0667  0.8950  1.1748
  149SAPE   C3916497  -0.115   4.490   7.545 -0.5479  0.0306 -0.2803
  149SAPE   H9X16498  -0.010   4.477   7.513 -0.1387  1.6277  0.3115
  149SAPE   H9Y16499  -0.148   4.384   7.554 -3.8789  0.9292 -0.5681
  149SAPE  C31016500  -0.131   4.577   7.675 -0.2399  0.1413 -0.2072
  149SAPE  H10X16501  -0.233   4.573   7.718  0.4036  0.6729  1.4458
  149SAPE  H10Y16502  -0.113   4.682   7.643 -0.4572  0.5431  0.9611
  149SAPE  C31116503  -0.042   4.536   7.794  0.1606 -0.0885 -0.4750
  149SAPE  H11X16504  -0.050   4.601   7.883  2.5424 -0.3430 -0.0012
  149SAPE  H11Y16505   0.057   4.557   7.749 -0.6305 -0.8836 -2.7640
  149SAPE  C31216506  -0.044   4.388   7.824 -0.2214  0.9405 -0.1067
  149SAPE  H12X16507   0.015   4.343   7.741 -1.4141 -2.6434  0.8307
  149SAPE  H12Y16508  -0.148   4.348   7.822 -0.8430  2.1570  2.9081
  149SAPE  C31316509   0.024   4.353   7.964 -0.0699 -0.3052 -0.2711
  149SAPE  H13X16510  -0.020   4.422   8.038  2.5941  2.9394 -1.4919
  149SAPE  H13Y16511   0.130   4.387   7.967 -0.4911  1.0497 -0.2277
  149SAPE  C31416512  -0.003   4.214   8.016 -0.5347  0.1607  0.3371
  149SAPE  H14X16513  -0.112   4.202   8.003 -0.6654  1.2510  0.3411
  149SAPE  H14Y16514   0.009   4.221   8.127  0.4595 -2.4050  0.4814
  149SAPE  C31516515   0.084   4.099   7.955  0.5096 -0.5395  0.0219
  149SAPE  H15X16516   0.189   4.126   7.978  0.0848  0.1789  1.1600
  149SAPE  H15Y16517   0.074   4.088   7.845  2.2590 -0.1082 -0.2130
  149SAPE  C31616518   0.060   3.965   8.023 -0.2192  0.4736 -0.2146
  149SAPE  H16X16519  -0.049   3.945   8.033 -0.5027  2.3217  0.6724
  149SAPE  H16Y16520   0.099   3.970   8.127 -1.1521  1.3022  0.1066
  149SAPE  C31716521   0.131   3.856   7.943  0.2658 -0.3538 -0.0031
  149SAPE  H17X16522   0.220   3.905   7.897  0.2107 -0.9738 -0.8021
  149SAPE  H17Y16523   0.062   3.820   7.864  0.2621 -1.2527  0.3932
  149SAPE  C31816524   0.181   3.749   8.035 -0.4663  0.5465 -0.3098
  149SAPE  H18X16525   0.227   3.675   7.966  0.2113  2.0951 -1.5735
  149SAPE  H18Y16526   0.108   3.705   8.107 -0.0912 -0.1511 -0.3399
  149SAPE  H18Z16527   0.260   3.786   8.103 -0.6401  0.8277 -0.2600
  150SAPE     N16528   5.953   5.927   6.230  0.0969  0.5217  0.2231
  150SAPE   HN116529   6.013   5.982   6.165 -1.6087 -0.5289 -2.4341
  150SAPE   HN216530   5.903   5.983   6.302  1.3912  0.1319  1.4747
  150SAPE   HN316531   5.996   5.844   6.275 -1.3449  0.5274  1.6857
  150SAPE   C1216532   5.844   5.884   6.138 -0.5466 -0.0798  0.4324
  150SAPE  H12A16533   5.854   5.777   6.110  0.1755  0.5050 -1.7224
  150SAPE  H12B16534   5.847   5.945   6.045 -0.7103  0.1834  0.5979
  150SAPE   C1116535   5.709   5.907   6.220 -0.2366 -0.3485 -0.7234
  150SAPE  H11A16536   5.622   5.861   6.170 -2.2736  0.4600  1.8271
  150SAPE  H11B16537   5.685   6.016   6.224 -0.4567 -0.4313  1.0793
  150SAPE     P16538   5.587   5.806   6.428 -0.3604  0.0726  0.5473
  150SAPE   O1316539   5.470   5.886   6.381 -0.5471  0.2042  0.2739
  150SAPE   O1416540   5.575   5.660   6.405  0.3891 -0.0210 -0.6651
  150SAPE   O1216541   5.720   5.854   6.350  0.4648  0.2671 -0.0951
  150SAPE   O1116542   5.636   5.825   6.582  0.0353 -0.8379  0.0397
  150SAPE    C116543   5.777   5.841   6.608  0.1399 -0.3661  0.3718
  150SAPE    HA16544   5.838   5.780   6.538  2.7898  1.7160  0.7177
  150SAPE    HB16545   5.810   5.946   6.592 -0.1767 -0.4903 -1.3837
  150SAPE    C216546   5.837   5.807   6.749  1.0193 -0.3131 -0.7916
  150SAPE    HS16547   5.820   5.698   6.759  0.1807 -0.0906  0.3605
  150SAPE   O2116548   5.780   5.894   6.853 -0.4906  0.1598 -0.4032
  150SAPE   C2116549   5.660   5.859   6.903  0.1600 -0.1665  0.0420
  150SAPE   O2216550   5.601   5.758   6.883  0.5932  0.2083 -0.4300
  150SAPE   C2216551   5.603   5.967   7.004 -0.1347  0.3138  0.3140
  150SAPE   H2R16552   5.570   6.056   6.945  0.7286  0.5418  0.1715
  150SAPE   H2S16553   5.526   5.914   7.065  0.8467 -2.5262 -0.7495
  150SAPE    C316554   5.988   5.837   6.756 -0.4111  0.1756  0.4930
  150SAPE    HX16555   6.007   5.947   6.747  0.8720  0.0500  1.4409
  150SAPE    HY16556   6.031   5.794   6.663  1.5429  1.8911  0.5348
  150SAPE   O3116557   6.051   5.782   6.868 -0.1251  0.2885  0.5538
  150SAPE   C3116558   6.169   5.830   6.899 -0.0124 -0.5487 -0.0207
  150SAPE   O3216559   6.222   5.918   6.842 -0.2447 -0.1805 -0.3771
  150SAPE   C3216560   6.206   5.754   7.021  0.1600  0.1928 -0.1140
  150SAPE   H2X16561   6.310   5.717   7.006  1.7628  4.3738 -0.6934
  150SAPE   H2Y16562   6.137   5.667   7.025 -2.4967  2.1427 -0.9078
  150SAPE   C2316563   5.710   6.030   7.102  0.7100  0.3614  0.1480
  150SAPE   H3R16564   5.660   6.091   7.179 -0.4784  0.2255 -0.4937
  150SAPE   H3S16565   5.770   6.107   7.049  2.5960 -0.0058  1.6257
  150SAPE   C2416566   5.811   5.928   7.168  1.0448 -0.0267 -0.2460
  150SAPE   H4R16567   5.875   5.978   7.244  0.9038 -1.8543  1.1372
  150SAPE   H4S16568   5.876   5.883   7.089 -0.7961 -1.0596 -1.2552
  150SAPE   C2516569   5.729   5.815   7.236  0.7456 -0.6470  0.3064
  150SAPE   H5R16570   5.660   5.771   7.162  1.1352  1.5666 -1.5097
  150SAPE   C2616571   5.717   5.777   7.360  0.9677 -0.6374 -0.0310
  150SAPE   H6R16572   5.655   5.688   7.381 -0.4544 -0.0550 -1.5090
  150SAPE   C2716573   5.786   5.832   7.479 -0.8769 -0.3940  0.8024
  150SAPE   H7R16574   5.735   5.818   7.577 -1.5606 -3.1501  0.1274
  150SAPE   H7S16575   5.798   5.943   7.477 -0.0304 -0.4888 -1.2909
  150SAPE   C2816576   5.926   5.780   7.493  0.4363 -0.1229  0.5966
  150SAPE   H8R16577   5.990   5.802   7.406 -0.6539 -1.4364 -0.5687
  150SAPE   C2916578   5.980   5.700   7.591  0.6661  0.3148 -0.5782
  150SAPE   H9R16579   6.087   5.678   7.582  0.5290  0.3215 -2.6045
  150SAPE  C21016580   5.915   5.641   7.714 -0.1414 -0.3761  0.4563
  150SAPE  H10R16581   5.956   5.540   7.738 -1.4229 -1.1352 -0.4039
  150SAPE  H10S16582   5.814   5.605   7.683  0.4093 -0.0327 -1.9457
  150SAPE  C21116583   5.923   5.730   7.835 -0.0676  0.2069 -0.7105
  150SAPE  H11R16584   5.957   5.834   7.830 -0.0129  0.3275  1.2666
  150SAPE  C21216585   5.883   5.698   7.961  0.0487  0.8639 -0.7937
  150SAPE  H12R16586   5.889   5.769   8.045 -0.6238 -0.9707  0.8835
  150SAPE  C21316587   5.829   5.556   7.987  0.1268  0.4277  0.6234
  150SAPE  H13R16588   5.775   5.507   7.903  1.4301  0.7946 -0.4611
  150SAPE  H13S16589   5.751   5.571   8.065 -1.3752  2.3729 -1.1263
  150SAPE  C21416590   5.932   5.455   8.030 -0.2517  0.5947 -0.0345
  150SAPE  H14R16591   6.008   5.417   7.960 -0.4432 -1.2591  0.6980
  150SAPE  C21516592   5.945   5.420   8.162  0.0452 -0.6793  0.6055
  150SAPE  H15R16593   6.028   5.349   8.177  0.8491 -0.6861 -2.8664
  150SAPE  C21616594   5.879   5.471   8.280  0.3981 -0.0019  0.4935
  150SAPE  H16R16595   5.783   5.416   8.295  1.6826 -3.2037 -1.8548
  150SAPE  H16S16596   5.855   5.579   8.281  0.2954  0.0177  3.2500
  150SAPE  C21716597   5.967   5.460   8.404  0.0953 -0.3639  0.0150
  150SAPE  H17R16598   5.923   5.525   8.483  1.7699 -0.1049  0.7679
  150SAPE  H17S16599   6.067   5.501   8.378  1.2347 -1.7871  1.8829
  150SAPE  C21816600   5.997   5.314   8.446 -0.0228 -0.4291 -0.5385
  150SAPE  H18R16601   6.072   5.309   8.528  0.6793  1.5971 -1.0122
  150SAPE  H18S16602   6.041   5.268   8.355 -1.8604 -0.8647 -1.2547
  150SAPE  C21916603   5.872   5.237   8.490  0.1925 -0.3210  0.5269
  150SAPE  H19R16604   5.793   5.250   8.413  2.0744 -2.7875 -2.0253
  150SAPE  H19S16605   5.851   5.270   8.594  1.2637 -0.2491  0.7363
  150SAPE  C22016606   5.898   5.085   8.495 -0.8068 -0.2908 -0.2964
  150SAPE  H20R16607   5.986   5.063   8.559 -2.9653 -0.5784  2.7942
  150SAPE  H20S16608   5.921   5.031   8.400  0.3304 -1.0942  0.4085
  150SAPE  H20T16609   5.815   5.034   8.547 -2.2360  2.0240 -0.1816
  150SAPE   C3316610   6.208   5.841   7.145 -0.3915  0.0812 -0.1506
  150SAPE   H3X16611   6.106   5.863   7.185 -0.3942  3.3943 -1.6977
  150SAPE   H3Y16612   6.256   5.939   7.123  0.7997 -0.0769  1.4912
  150SAPE   C3416613   6.283   5.760   7.251  0.0170 -0.3394 -0.6762
  150SAPE   H4X16614   6.382   5.726   7.214 -0.1357 -0.0895 -1.3301
  150SAPE   H4Y16615   6.233   5.666   7.280 -0.8492  0.5694  0.9229
  150SAPE   C3516616   6.292   5.834   7.390  0.6998 -0.4037 -0.1119
  150SAPE   H5X16617   6.313   5.758   7.469 -1.1179  0.7639  1.5593
  150SAPE   H5Y16618   6.198   5.879   7.428 -0.1575 -2.3542  0.1909
  150SAPE   C3616619   6.403   5.936   7.401  0.1189  0.3899  0.2929
  150SAPE   H6X16620   6.368   6.034   7.361  3.2690  3.1059  3.4714
  150SAPE   H6Y16621   6.493   5.907   7.343 -0.4322  0.4830 -0.6305
  150SAPE   C3716622   6.430   5.973   7.543 -0.7500 -0.5845  0.1488
  150SAPE   H7X16623   6.470   5.881   7.591 -1.2803  0.1097  2.0195
  150SAPE   H7Y16624   6.341   6.008   7.599  0.2323  1.3197  0.5802
  150SAPE   C3816625   6.535   6.086   7.560 -0.2735 -0.3103  0.0080
  150SAPE   H8X16626   6.490   6.183   7.529 -0.1077  0.6724  2.6167
  150SAPE   H8Y16627   6.622   6.061   7.494 -0.1651 -0.4627  0.2090
  150SAPE   C3916628   6.597   6.082   7.702 -0.0378 -0.1463 -0.5868
  150SAPE   H9X16629   6.689   6.142   7.717 -1.5499  2.5165 -1.2414
  150SAPE   H9Y16630   6.623   5.978   7.732  0.6640 -0.2457 -1.5105
  150SAPE  C31016631   6.493   6.137   7.804  1.1155  0.0428  0.0449
  150SAPE  H10X16632   6.400   6.076   7.817 -0.0837  1.9388  0.7601
  150SAPE  H10Y16633   6.460   6.231   7.757 -3.5390 -1.0239  0.6786
  150SAPE  C31116634   6.565   6.168   7.935 -0.0659  0.4465 -0.3787
  150SAPE  H11X16635   6.637   6.249   7.910  0.6710 -0.4417 -1.1846
  150SAPE  H11Y16636   6.600   6.077   7.987 -1.0545  0.1238 -0.2488
  150SAPE  C31216637   6.462   6.236   8.035 -0.7590 -0.0961 -0.2039
  150SAPE  H12X16638   6.378   6.164   8.046 -1.9842  1.1475 -0.9363
  150SAPE  H12Y16639   6.412   6.326   7.991  1.6452  1.3054 -0.2059
  150SAPE  C31316640   6.532   6.264   8.166  0.3509 -0.1119 -0.4365
  150SAPE  H13X16641   6.611   6.337   8.140  0.1519 -0.5276 -2.3574
  150SAPE  H13Y16642   6.588   6.177   8.207  2.8811  2.2413  1.5155
  150SAPE  C31416643   6.423   6.315   8.272 -0.7212 -1.0073  0.6577
  150SAPE  H14X16644   6.457   6.317   8.377 -0.6124 -0.7183  0.6176
  150SAPE  H14Y16645   6.334   6.250   8.263  0.0225 -2.0914  0.8675
  150SAPE  C31516646   6.372   6.459   8.252  0.1893 -0.0274  0.5920
  150SAPE  H15X16647   6.296   6.487   8.328 -1.3623 -4.8212  1.0940
  150SAPE  H15Y16648   6.317   6.468   8.155 -0.2863 -1.0457  0.7579
  150SAPE  C31616649   6.479   6.569   8.255 -1.2980  0.2178 -0.1207
  150SAPE  H16X16650   6.565   6.545   8.189 -0.0698  1.4869  0.9670
  150SAPE  H16Y16651   6.522   6.571   8.357 -1.9677  0.4639  0.1611
  150SAPE  C31716652   6.424   6.712   8.231 -0.0112 -0.1650 -0.9538
  150SAPE  H17X16653   6.499   6.782   8.273 -1.1483  1.0240 -0.8603
  150SAPE  H17Y16654   6.332   6.718   8.292 -1.0310  2.6253 -2.6073
  150SAPE  C31816655   6.384   6.748   8.088 -0.1415 -0.3261  0.3272
  150SAPE  H18X16656   6.455   6.827   8.054  0.7144 -1.0929  0.3066
  150SAPE  H18Y16657   6.279   6.784   8.084  0.0321  0.1223 -0.4192
  150SAPE  H18Z16658   6.380   6.660   8.020  0.1487  0.3072 -0.5377
  151SAPE     N16659   1.336   0.534   6.399  0.7073 -0.1356 -0.0364
  151SAPE   HN116660   1.248   0.500   6.354  1.0883  1.5809 -2.2636
  151SAPE   HN216661   1.361   0.622   6.349 -1.4246 -0.5770 -2.0641
  151SAPE   HN316662   1.406   0.465   6.365  0.2294 -0.3087 -0.7018
  151SAPE   C1216663   1.324   0.558   6.542 -0.5240 -0.1035 -0.0159
  151SAPE  H12A16664   1.266   0.478   6.592  0.6703 -0.5597  0.7077
  151SAPE  H12B16665   1.264   0.650   6.558 -0.3984  0.2096 -1.2401
  151SAPE   C1116666   1.469   0.574   6.604  0.5934  0.3030  0.0009
  151SAPE  H11A16667   1.464   0.620   6.705  0.6077 -2.5247  1.3811
  151SAPE  H11B16668   1.526   0.633   6.529 -0.1045  0.8136 -0.1297
  151SAPE     P16669   1.635   0.388   6.518 -0.1369  0.5282  0.3923
  151SAPE   O1316670   1.686   0.253   6.557  0.4367  0.3843 -1.3713
  151SAPE   O1416671   1.565   0.386   6.388 -0.4409  0.1218 -0.7947
  151SAPE   O1216672   1.537   0.443   6.623  0.6765  0.2507 -0.2082
  151SAPE   O1116673   1.746   0.499   6.525 -0.3473 -0.6511  0.2107
  151SAPE    C116674   1.786   0.557   6.649 -0.0869 -1.0590 -0.4332
  151SAPE    HA16675   1.794   0.666   6.631  0.8354 -1.1745 -0.8253
  151SAPE    HB16676   1.721   0.550   6.738  0.9395  3.2329  0.8478
  151SAPE    C216677   1.923   0.495   6.690  0.3082 -0.8508  0.4382
  151SAPE    HS16678   1.984   0.518   6.600  2.0652 -0.1071  1.7576
  151SAPE   O2116679   1.913   0.357   6.723 -0.3243 -0.1417 -0.4291
  151SAPE   C2116680   2.028   0.286   6.702 -0.4879 -0.0044  0.2944
  151SAPE   O2216681   2.119   0.318   6.626  1.1296  0.0045 -0.0359
  151SAPE   C2216682   2.032   0.146   6.770 -0.0907 -0.0026  0.4765
  151SAPE   H2R16683   1.976   0.151   6.866 -0.2433 -0.5161  0.4154
  151SAPE   H2S16684   1.994   0.079   6.690  0.9846  1.0514 -0.9901
  151SAPE    C316685   1.993   0.578   6.795 -0.4851  0.6680  0.3749
  151SAPE    HX16686   2.005   0.670   6.736 -0.0770 -0.6254 -1.6559
  151SAPE    HY16687   2.092   0.535   6.820 -1.0983 -0.8990  0.2839
  151SAPE   O3116688   1.906   0.588   6.910 -0.2128 -0.2961 -0.4554
  151SAPE   C3116689   1.904   0.498   7.012 -0.3695 -0.2858 -0.0113
  151SAPE   O3216690   1.968   0.399   7.013  0.3035 -0.1648 -0.5571
  151SAPE   C3216691   1.801   0.548   7.106 -0.7111  0.1502 -0.6050
  151SAPE   H2X16692   1.711   0.575   7.048 -0.6981 -0.6061 -0.9990
  151SAPE   H2Y16693   1.840   0.631   7.168 -0.8051  0.5926 -1.1316
  151SAPE   C2316694   2.177   0.107   6.801  0.0312 -0.0573  0.0551
  151SAPE   H3R16695   2.229   0.183   6.862 -1.5495 -0.7767  2.4044
  151SAPE   H3S16696   2.227   0.104   6.701 -0.2995 -2.8499 -0.1124
  151SAPE   C2416697   2.195  -0.018   6.882  0.5724 -0.2685 -0.1841
  151SAPE   H4R16698   2.158   0.005   6.984  1.8206  4.3570 -0.5087
  151SAPE   H4S16699   2.300  -0.049   6.897  0.5740 -0.4462 -0.5365
  151SAPE   C2516700   2.123  -0.131   6.806 -0.6185 -0.0103  0.3660
  151SAPE   H5R16701   2.095  -0.119   6.700  1.6443 -0.7072 -0.3615
  151SAPE   C2616702   2.117  -0.257   6.853  0.0405 -0.3642 -0.2998
  151SAPE   H6R16703   2.057  -0.332   6.799  1.2165 -0.3649 -1.6473
  151SAPE   C2716704   2.196  -0.307   6.976 -0.2736 -0.3172 -0.1230
  151SAPE   H7R16705   2.134  -0.354   7.056 -1.4132  1.7984  0.3060
  151SAPE   H7S16706   2.260  -0.229   7.022 -0.3564 -0.5720  0.4333
  151SAPE   C2816707   2.302  -0.410   6.934 -0.2287 -0.4274 -0.1342
  151SAPE   H8R16708   2.277  -0.456   6.837 -3.3392  0.1019  0.2883
  151SAPE   C2916709   2.419  -0.441   6.995 -0.3703  0.2843 -0.2679
  151SAPE   H9R16710   2.484  -0.519   6.952 -1.8736 -0.9118 -0.4359
  151SAPE  C21016711   2.461  -0.359   7.117  0.0116 -0.3194  0.0029
  151SAPE  H10R16712   2.493  -0.259   7.082  0.5957 -0.5621 -0.1818
  151SAPE  H10S16713   2.549  -0.413   7.158 -1.7595 -0.4853  4.0459
  151SAPE  C21116714   2.368  -0.345   7.234 -0.3106  0.4608 -0.7451
  151SAPE  H11R16715   2.271  -0.392   7.213 -0.9096  0.3801  1.8165
  151SAPE  C21216716   2.398  -0.293   7.353  0.2246 -0.0414 -0.4794
  151SAPE  H12R16717   2.320  -0.296   7.431  2.0583  0.2654  1.4667
  151SAPE  C21316718   2.521  -0.217   7.396 -0.0796  0.0797 -0.0484
  151SAPE  H13R16719   2.600  -0.224   7.318  0.2766  0.2325  0.2975
  151SAPE  H13S16720   2.569  -0.275   7.477  0.6977  0.2959 -0.3447
  151SAPE  C21416721   2.499  -0.071   7.426  0.9956  0.9590 -0.6070
  151SAPE  H14R16722   2.489   0.007   7.350  0.5691  1.0036 -0.5063
  151SAPE  C21516723   2.494  -0.011   7.551  0.5568  0.3920 -0.8981
  151SAPE  H15R16724   2.481   0.098   7.552  1.4350  0.6361 -4.3860
  151SAPE  C21616725   2.512  -0.088   7.684  0.0365 -0.0691 -0.7631
  151SAPE  H16R16726   2.532  -0.195   7.665 -2.9671 -0.6298 -1.2888
  151SAPE  H16S16727   2.423  -0.094   7.750  1.5102  1.5353  1.5036
  151SAPE  C21716728   2.638  -0.032   7.759  0.4126  0.6733 -0.1382
  151SAPE  H17R16729   2.644  -0.079   7.859 -0.7168 -0.2960 -0.5040
  151SAPE  H17S16730   2.631   0.079   7.764 -0.1287  0.6770 -0.7232
  151SAPE  C21816731   2.767  -0.074   7.682  0.5119  0.1026  0.6218
  151SAPE  H18R16732   2.765  -0.035   7.578 -1.0470 -0.6269  0.3463
  151SAPE  H18S16733   2.777  -0.183   7.696  1.1642  0.0997  0.1756
  151SAPE  C21916734   2.901  -0.023   7.736 -0.4077  0.4439  0.4634
  151SAPE  H19R16735   2.920   0.087   7.735 -0.9247  0.5718  1.8558
  151SAPE  H19S16736   2.975  -0.059   7.662 -0.8358 -2.0669  1.1555
  151SAPE  C22016737   2.938  -0.076   7.872 -0.0955 -0.0001  0.4630
  151SAPE  H20R16738   2.943  -0.186   7.860 -2.8011 -0.3718  1.9874
  151SAPE  H20S16739   3.037  -0.032   7.899 -0.6328  0.4944  1.6910
  151SAPE  H20T16740   2.859  -0.045   7.943  0.1018 -0.3756  0.8485
  151SAPE   C3316741   1.765   0.429   7.194 -0.6580 -0.4869  0.2548
  151SAPE   H3X16742   1.857   0.414   7.254 -1.1493 -0.4092  1.0448
  151SAPE   H3Y16743   1.740   0.347   7.124 -1.5734  2.8476 -3.6913
  151SAPE   C3416744   1.649   0.455   7.291  0.1821  0.9977  0.6740
  151SAPE   H4X16745   1.600   0.360   7.321  2.3826 -0.5520 -0.3402
  151SAPE   H4Y16746   1.577   0.518   7.234 -2.1989 -1.4859  0.7103
  151SAPE   C3516747   1.681   0.517   7.426 -0.0613  0.4000  0.7900
  151SAPE   H5X16748   1.591   0.571   7.464  0.6297  1.4182  1.0346
  151SAPE   H5Y16749   1.755   0.596   7.403 -0.4543  0.4668 -0.3004
  151SAPE   C3616750   1.719   0.432   7.542 -1.5981  0.1467  0.0441
  151SAPE   H6X16751   1.809   0.380   7.504 -0.6858  0.9236  1.0887
  151SAPE   H6Y16752   1.642   0.357   7.568 -1.5778  0.3959  0.8281
  151SAPE   C3716753   1.783   0.504   7.664  0.2318  0.8464  0.1470
  151SAPE   H7X16754   1.716   0.585   7.700 -0.8727  0.8596 -1.8375
  151SAPE   H7Y16755   1.867   0.572   7.639  0.4385  0.0032 -1.5495
  151SAPE   C3816756   1.831   0.408   7.773 -0.1149  0.4444 -0.1862
  151SAPE   H8X16757   1.923   0.353   7.743  0.0013 -0.2016  1.2742
  151SAPE   H8Y16758   1.753   0.332   7.796 -0.5113 -0.4200 -3.7102
  151SAPE   C3916759   1.859   0.486   7.899 -0.0386 -0.4285 -0.3536
  151SAPE   H9X16760   1.763   0.527   7.936 -1.1191 -3.8887  1.0336
  151SAPE   H9Y16761   1.924   0.574   7.877 -0.0452  0.2736  2.1504
  151SAPE  C31016762   1.920   0.399   8.012 -0.6771  0.3914  0.5909
  151SAPE  H10X16763   1.869   0.301   8.022 -0.8548  0.5513  1.2871
  151SAPE  H10Y16764   1.910   0.448   8.111 -1.1365 -0.3592  0.9258
  151SAPE  C31116765   2.069   0.383   7.984  0.3635  0.1424  0.2885
  151SAPE  H11X16766   2.116   0.483   7.979  1.5216 -0.3904 -0.0331
  151SAPE  H11Y16767   2.085   0.335   7.884  2.0078 -1.9644  1.4649
  151SAPE  C31216768   2.144   0.308   8.099  0.4707 -0.3454  0.5793
  151SAPE  H12X16769   2.103   0.206   8.114  2.3242 -1.1500  0.3992
  151SAPE  H12Y16770   2.141   0.365   8.194  0.2063 -0.1809  0.4741
  151SAPE  C31316771   2.281   0.277   8.044  0.8282 -0.3051  0.2867
  151SAPE  H13X16772   2.320   0.367   7.992  0.3813 -0.1187  0.2669
  151SAPE  H13Y16773   2.268   0.190   7.976 -2.9152 -1.1007  1.7730
  151SAPE  C31416774   2.382   0.230   8.147  0.3735  0.2722  0.5120
  151SAPE  H14X16775   2.350   0.136   8.197  0.0371  0.0220 -0.1609
  151SAPE  H14Y16776   2.400   0.307   8.225 -0.0603  1.2518 -0.3320
  151SAPE  C31516777   2.514   0.196   8.072  0.2966 -0.7212 -0.5258
  151SAPE  H15X16778   2.557   0.289   8.029  1.4410 -0.6778  0.6463
  151SAPE  H15Y16779   2.496   0.126   7.988  0.5075 -1.8718  0.3490
  151SAPE  C31616780   2.618   0.121   8.158  0.1482 -0.8034  0.5595
  151SAPE  H16X16781   2.631   0.167   8.258  1.1294 -0.5191  0.3143
  151SAPE  H16Y16782   2.716   0.145   8.110  0.7410 -1.2941  1.4839
  151SAPE  C31716783   2.586  -0.024   8.167 -0.2887 -0.0380 -0.1426
  151SAPE  H17X16784   2.560  -0.080   8.074  0.6434 -1.3632  0.3541
  151SAPE  H17Y16785   2.512  -0.028   8.249 -0.0159  1.1539  0.1719
  151SAPE  C31816786   2.709  -0.092   8.219  0.1298  0.5834 -0.2455
  151SAPE  H18X16787   2.684  -0.197   8.248  0.6257  0.1149 -1.4543
  151SAPE  H18Y16788   2.753  -0.043   8.309  2.1157  0.4490 -1.0921
  151SAPE  H18Z16789   2.793  -0.084   8.147  0.3765 -0.4846 -0.1013
  152SAPE     N16790   3.736   3.665   6.348  0.7569  0.1345 -0.0875
  152SAPE   HN116791   3.691   3.659   6.442  0.0209 -4.2571 -0.5170
  152SAPE   HN216792   3.719   3.763   6.318 -2.3026 -0.2528  0.0948
  152SAPE   HN316793   3.686   3.597   6.289 -1.2908  0.5581  1.0484
  152SAPE   C1216794   3.884   3.632   6.358 -0.6614  0.6555 -0.3574
  152SAPE  H12A16795   3.935   3.650   6.261  1.0619 -1.0730  0.1552
  152SAPE  H12B16796   3.888   3.523   6.376 -2.6271  0.4488 -0.9617
  152SAPE   C1116797   3.962   3.737   6.452 -0.5911 -0.2110 -0.5751
  152SAPE  H11A16798   4.069   3.709   6.459 -0.5266  0.3435  1.0194
  152SAPE  H11B16799   3.928   3.714   6.555  3.4343 -1.8588  0.5795
  152SAPE     P16800   4.025   3.952   6.309  0.0842 -0.3359  0.1211
  152SAPE   O1316801   4.078   3.860   6.210 -0.1600  0.0228 -0.1875
  152SAPE   O1416802   3.941   4.063   6.253 -0.3289 -0.1516  0.4967
  152SAPE   O1216803   3.935   3.874   6.411  0.0104  0.5414 -0.2036
  152SAPE   O1116804   4.144   4.014   6.403 -0.1020 -0.3832 -0.4750
  152SAPE    C116805   4.118   4.052   6.539  0.6852 -0.8766  0.6557
  152SAPE    HA16806   4.159   4.156   6.543 -0.6316 -0.3312  0.5817
  152SAPE    HB16807   4.010   4.051   6.565  0.1747 -1.2742 -1.3381
  152SAPE    C216808   4.192   3.956   6.636  0.3986 -0.5835 -0.0900
  152SAPE    HS16809   4.136   3.861   6.628 -1.3017  0.1538  2.1876
  152SAPE   O2116810   4.198   4.010   6.768  0.3187  0.0745  0.6093
  152SAPE   C2116811   4.085   4.004   6.832 -0.1484 -0.2274 -0.5938
  152SAPE   O2216812   3.986   3.944   6.803 -0.2320  0.5445 -0.1528
  152SAPE   C2216813   4.107   4.076   6.965  0.1590 -0.6498 -0.6308
  152SAPE   H2R16814   4.146   4.011   7.047  1.9166  1.6611  0.5034
  152SAPE   H2S16815   4.192   4.146   6.949  0.1791 -0.2471  1.0545
  152SAPE    C316816   4.332   3.925   6.580  0.1732 -0.2312 -0.1925
  152SAPE    HX16817   4.389   4.020   6.573  0.9195 -0.7063 -0.8298
  152SAPE    HY16818   4.335   3.885   6.476  4.2850  1.1386 -0.7581
  152SAPE   O3116819   4.404   3.826   6.660 -0.1105 -0.0585  0.5235
  152SAPE   C3116820   4.477   3.881   6.751 -0.5894  0.1054 -1.1776
  152SAPE   O3216821   4.497   4.000   6.774 -0.8933  0.1863  0.2405
  152SAPE   C3216822   4.527   3.765   6.841 -0.1648 -0.4944  1.0820
  152SAPE   H2X16823   4.637   3.775   6.840 -0.3291  1.8099  0.5877
  152SAPE   H2Y16824   4.497   3.663   6.809  0.1496 -1.1903  2.8989
  152SAPE   C2316825   3.994   4.157   7.032 -0.4726 -0.0763  0.3511
  152SAPE   H3R16826   3.916   4.084   7.060 -0.0617 -0.1186  1.4404
  152SAPE   H3S16827   3.953   4.226   6.955 -0.1381  0.9203  1.0426
  152SAPE   C2416828   4.046   4.226   7.162  0.0938  0.2936  0.1225
  152SAPE   H4R16829   4.141   4.283   7.154 -1.0903  2.4392  0.4423
  152SAPE   H4S16830   4.056   4.160   7.251 -0.2233  1.3177  0.9334
  152SAPE   C2516831   3.946   4.332   7.182 -0.2555  0.0443 -0.4363
  152SAPE   H5R16832   3.896   4.371   7.093 -0.8374 -2.1812 -1.1574
  152SAPE   C2616833   3.917   4.372   7.307  0.2669  0.7109 -0.5161
  152SAPE   H6R16834   3.834   4.444   7.317 -0.0956  0.2392 -0.0709
  152SAPE   C2716835   3.978   4.326   7.442 -0.9759 -0.4003  0.6126
  152SAPE   H7R16836   4.073   4.273   7.420 -1.9637 -1.3801 -1.6995
  152SAPE   H7S16837   3.918   4.243   7.484  0.2702 -1.3955  0.4727
  152SAPE   C2816838   4.004   4.442   7.531  0.0810  0.8108  0.9138
  152SAPE   H8R16839   4.010   4.535   7.474  0.2964 -0.7046 -1.6636
  152SAPE   C2916840   4.021   4.448   7.667 -0.1862 -0.2092 -0.2268
  152SAPE   H9R16841   4.041   4.541   7.723  1.9316 -1.3052  0.9747
  152SAPE  C21016842   4.006   4.321   7.750  0.2247  0.0787 -0.5406
  152SAPE  H10R16843   3.963   4.234   7.697  0.5957  0.3127 -1.2342
  152SAPE  H10S16844   3.923   4.339   7.822 -0.8375 -1.2100 -1.3922
  152SAPE  C21116845   4.129   4.278   7.829  0.2375  0.6110 -0.0704
  152SAPE  H11R16846   4.204   4.219   7.774  0.4397 -0.2008  1.0425
  152SAPE  C21216847   4.150   4.297   7.964  0.4879  0.1104  0.4287
  152SAPE  H12R16848   4.250   4.271   8.002  2.0299  1.0900 -2.6709
  152SAPE  C21316849   4.057   4.362   8.059 -0.0827 -0.1947 -0.8168
  152SAPE  H13R16850   4.005   4.449   8.014  0.9678  0.4722 -0.7794
  152SAPE  H13S16851   4.111   4.388   8.153 -0.5116 -3.0424  0.2995
  152SAPE  C21416852   3.940   4.273   8.095 -0.7009 -0.2783  0.2410
  152SAPE  H14R16853   3.905   4.218   8.006 -0.7397 -0.6838  0.5025
  152SAPE  C21516854   3.878   4.245   8.210  0.4096 -0.3122  0.4979
  152SAPE  H15R16855   3.778   4.200   8.204 -0.4322  1.4996 -0.0267
  152SAPE  C21616856   3.915   4.301   8.355 -0.5454 -0.4282  0.2831
  152SAPE  H16R16857   3.823   4.323   8.414 -0.6917 -1.3298  0.4112
  152SAPE  H16S16858   3.989   4.384   8.354  0.6785 -1.4889  0.2089
  152SAPE  C21716859   3.994   4.190   8.434 -0.8271 -0.5750 -0.4629
  152SAPE  H17R16860   4.076   4.245   8.486 -0.3398 -1.4620 -0.2668
  152SAPE  H17S16861   4.045   4.114   8.371  0.5799 -1.7907  1.9943
  152SAPE  C21816862   3.909   4.121   8.538 -0.6325 -0.4963 -0.5569
  152SAPE  H18R16863   3.853   4.043   8.483  0.2838  0.5860 -3.1692
  152SAPE  H18S16864   3.845   4.183   8.605  0.9118 -0.9914  1.4746
  152SAPE  C21916865   4.000   4.038   8.629  0.7500  0.5823 -0.4821
  152SAPE  H19R16866   4.058   4.105   8.697  0.5645  0.0712  0.1906
  152SAPE  H19S16867   4.081   3.989   8.571  0.9200  0.2626  0.0125
  152SAPE  C22016868   3.922   3.930   8.702  0.5967 -0.2055 -0.4175
  152SAPE  H20R16869   3.887   3.854   8.629 -0.7455  0.9137 -0.9956
  152SAPE  H20S16870   3.838   3.973   8.761  1.0346 -0.3473  0.3179
  152SAPE  H20T16871   3.993   3.878   8.769  1.1336  0.3734 -0.5278
  152SAPE   C3316872   4.484   3.777   6.985  0.5277 -0.5480 -0.0905
  152SAPE   H3X16873   4.396   3.709   6.993  1.1741 -1.5506 -1.1059
  152SAPE   H3Y16874   4.448   3.875   7.020  0.1053 -0.7751  0.1157
  152SAPE   C3416875   4.591   3.755   7.091 -0.2667 -0.3578 -0.2194
  152SAPE   H4X16876   4.674   3.829   7.088  1.6048 -2.3314  0.2459
  152SAPE   H4Y16877   4.613   3.646   7.090  1.2685 -0.1790 -4.0555
  152SAPE   C3516878   4.530   3.776   7.237 -0.2685  0.1362 -0.6074
  152SAPE   H5X16879   4.491   3.878   7.257 -1.0497 -0.2356 -0.1719
  152SAPE   H5Y16880   4.618   3.773   7.305  0.8155  3.1837 -1.7212
  152SAPE   C3616881   4.409   3.681   7.266 -0.2568 -0.7109 -0.5017
  152SAPE   H6X16882   4.434   3.574   7.250 -0.4033 -0.6033 -1.5153
  152SAPE   H6Y16883   4.333   3.703   7.188 -1.1403 -1.3075  0.1673
  152SAPE   C3716884   4.338   3.687   7.403 -0.1577 -0.2040 -0.0075
  152SAPE   H7X16885   4.234   3.650   7.387 -0.1709  0.7256 -2.3370
  152SAPE   H7Y16886   4.319   3.790   7.439  0.5384 -0.5554  1.4421
  152SAPE   C3816887   4.417   3.605   7.504  0.4400  0.4962 -0.3252
  152SAPE   H8X16888   4.521   3.645   7.506  0.4079  1.1146 -3.9617
  152SAPE   H8Y16889   4.415   3.499   7.471 -1.7729  0.1951  0.6409
  152SAPE   C3916890   4.365   3.613   7.649 -0.0496  0.3420  0.7815
  152SAPE   H9X16891   4.255   3.609   7.640 -0.0023  1.7095 -0.9262
  152SAPE   H9Y16892   4.387   3.712   7.697 -0.8568  0.8364  0.1458
  152SAPE  C31016893   4.401   3.502   7.752  0.4404 -0.7862 -0.2786
  152SAPE  H10X16894   4.509   3.488   7.731  0.1692 -0.8333 -1.7608
  152SAPE  H10Y16895   4.349   3.406   7.736 -0.4258 -0.6288  1.4028
  152SAPE  C31116896   4.377   3.549   7.903  0.0534 -0.4695  0.2026
  152SAPE  H11X16897   4.275   3.591   7.913 -0.3083 -1.6330  1.9370
  152SAPE  H11Y16898   4.445   3.635   7.921 -0.8080  0.5381 -1.2023
  152SAPE  C31216899   4.394   3.434   8.010 -1.0687  0.5498 -1.1348
  152SAPE  H12X16900   4.497   3.397   7.992 -1.7408 -2.1877  0.0318
  152SAPE  H12Y16901   4.328   3.348   7.986  1.1459 -0.5789 -3.6269
  152SAPE  C31316902   4.373   3.483   8.154 -0.5312  0.5557 -0.5582
  152SAPE  H13X16903   4.265   3.508   8.164 -0.5967  0.3708 -0.7824
  152SAPE  H13Y16904   4.442   3.568   8.169  0.7197 -0.5320  0.1048
  152SAPE  C31416905   4.419   3.382   8.256  0.3249 -0.3058 -0.1198
  152SAPE  H14X16906   4.521   3.354   8.222  0.0102  1.3017 -2.6690
  152SAPE  H14Y16907   4.355   3.292   8.244  0.2362  0.0533 -3.0540
  152SAPE  C31516908   4.420   3.428   8.410 -0.1610 -0.3284  0.7436
  152SAPE  H15X16909   4.319   3.469   8.428 -1.4237 -3.0639  0.4241
  152SAPE  H15Y16910   4.482   3.518   8.426  0.9333 -0.8798 -0.2363
  152SAPE  C31616911   4.432   3.315   8.513 -0.5328 -0.2527 -0.3966
  152SAPE  H16X16912   4.526   3.257   8.498 -1.2243 -1.0852 -1.7115
  152SAPE  H16Y16913   4.354   3.239   8.491  0.7947 -0.6363 -4.8451
  152SAPE  C31716914   4.403   3.369   8.655  0.4582  0.8681 -0.0614
  152SAPE  H17X16915   4.304   3.419   8.669  1.7322  3.7428 -0.4743
  152SAPE  H17Y16916   4.481   3.443   8.682  1.9374 -0.4323 -0.6210
  152SAPE  C31816917   4.418   3.243   8.747 -0.0736 -0.3038  0.2668
  152SAPE  H18X16918   4.348   3.165   8.708 -0.1170 -0.1998  0.1370
  152SAPE  H18Y16919   4.395   3.273   8.851  1.4415  1.3309  0.1622
  152SAPE  H18Z16920   4.521   3.201   8.756 -0.1201 -0.1598  1.6435
  153SAPE     N16921   2.111   3.028   6.262  0.1911 -0.1356  0.2855
  153SAPE   HN116922   2.170   2.949   6.298 -1.9778 -1.0055  2.2068
  153SAPE   HN216923   2.048   2.982   6.193  0.7390  1.3876 -1.2935
  153SAPE   HN316924   2.175   3.093   6.213  1.7989 -0.4034  1.9186
  153SAPE   C1216925   2.035   3.075   6.380  0.4224  0.3254  0.2767
  153SAPE  H12A16926   1.976   3.165   6.353 -2.3826 -1.1659  1.1129
  153SAPE  H12B16927   2.109   3.088   6.462  1.0218  1.1719 -0.3770
  153SAPE   C1116928   1.933   2.971   6.426  0.7428  0.3040 -0.0757
  153SAPE  H11A16929   1.883   2.995   6.522 -1.0111 -0.8674 -0.6437
  153SAPE  H11B16930   1.986   2.875   6.445  2.1101  0.7631 -1.3418
  153SAPE     P16931   1.705   3.015   6.294 -0.1546 -0.3907  0.1715
  153SAPE   O1316932   1.748   3.149   6.249  0.5848  0.5439 -0.2108
  153SAPE   O1416933   1.619   2.931   6.197 -0.2044 -0.0357 -0.2072
  153SAPE   O1216934   1.843   2.943   6.319  0.4261  0.1615  0.1560
  153SAPE   O1116935   1.628   3.016   6.438 -0.0044 -0.3554 -0.2316
  153SAPE    C116936   1.620   2.891   6.505 -0.0120 -0.2063  0.5513
  153SAPE    HA16937   1.539   2.832   6.456 -1.0557  0.8038  0.9974
  153SAPE    HB16938   1.717   2.838   6.501 -0.6666 -1.3466 -1.7826
  153SAPE    C216939   1.583   2.916   6.654  0.3406 -0.4714  0.1320
  153SAPE    HS16940   1.589   2.812   6.692  3.5972 -0.7750 -0.8846
  153SAPE   O2116941   1.451   2.968   6.662 -0.0054 -0.1245  0.3800
  153SAPE   C2116942   1.373   2.918   6.753  0.1774  0.0602  0.0814
  153SAPE   O2216943   1.402   2.818   6.819  0.1659 -0.4954 -0.4880
  153SAPE   C2216944   1.249   3.007   6.776 -0.2834  0.2033  0.2862
  153SAPE   H2R16945   1.289   3.108   6.797 -1.0520  0.7908 -0.9599
  153SAPE   H2S16946   1.178   2.996   6.691 -1.3595  0.6222  1.1018
  153SAPE    C316947   1.694   3.006   6.718 -0.2951  0.0435  0.4138
  153SAPE    HX16948   1.713   3.100   6.661 -2.9657 -0.6785 -1.8967
  153SAPE    HY16949   1.791   2.952   6.711 -1.2054 -1.4855 -1.0059
  153SAPE   O3116950   1.662   3.040   6.855 -0.8001 -0.7391 -0.5706
  153SAPE   C3116951   1.690   2.952   6.946 -0.4512  0.0479  0.0258
  153SAPE   O3216952   1.729   2.837   6.923  0.0211  0.4380 -0.0079
  153SAPE   C3216953   1.671   3.017   7.087  0.3108  0.5886 -0.4703
  153SAPE   H2X16954   1.581   3.082   7.082 -1.2635 -1.4400 -0.1266
  153SAPE   H2Y16955   1.758   3.074   7.124 -0.9093 -0.0390  3.8618
  153SAPE   C2316956   1.182   2.950   6.906  0.0100 -0.2089 -0.1643
  153SAPE   H3R16957   1.253   2.961   6.991 -0.3553 -0.4384  0.1701
  153SAPE   H3S16958   1.149   2.845   6.889 -1.6184 -0.2113  2.5158
  153SAPE   C2416959   1.044   3.018   6.938  0.3921  0.1763 -0.1444
  153SAPE   H4R16960   0.997   2.967   7.024 -1.8981  2.3935  0.0556
  153SAPE   H4S16961   0.971   3.023   6.854 -0.3614  0.4985  0.5169
  153SAPE   C2516962   1.064   3.164   6.974  0.0450  0.2314 -0.3212
  153SAPE   H5R16963   1.097   3.230   6.892  0.2135 -1.2929 -1.5353
  153SAPE   C2616964   1.047   3.222   7.098  0.6372 -0.2261  0.3820
  153SAPE   H6R16965   1.071   3.329   7.106  2.1541 -0.5715  0.6629
  153SAPE   C2716966   0.998   3.149   7.226 -0.0050 -0.0469  0.5821
  153SAPE   H7R16967   1.069   3.065   7.239  0.3832 -0.2585 -2.2976
  153SAPE   H7S16968   0.898   3.108   7.203 -0.0610  0.2166  0.3528
  153SAPE   C2816969   0.988   3.226   7.360 -0.6290 -0.0162 -0.0215
  153SAPE   H8R16970   0.891   3.273   7.382 -1.3491 -1.4827  0.0536
  153SAPE   C2916971   1.083   3.243   7.453 -0.2607 -0.7693 -0.1895
  153SAPE   H9R16972   1.075   3.302   7.546 -1.0626 -0.2193 -0.5940
  153SAPE  C21016973   1.227   3.195   7.450  0.5732 -0.1613  0.0881
  153SAPE  H10R16974   1.282   3.269   7.512 -0.4442 -0.8884  1.9607
  153SAPE  H10S16975   1.273   3.205   7.350  0.4519  0.9585  0.1291
  153SAPE  C21116976   1.248   3.056   7.509  0.5193 -0.3804 -0.3037
  153SAPE  H11R16977   1.196   2.980   7.449  0.2854 -0.5371  0.0929
  153SAPE  C21216978   1.315   3.013   7.614  0.2946  0.7798  0.5035
  153SAPE  H12R16979   1.309   2.907   7.640  2.5431  0.5207  0.1564
  153SAPE  C21316980   1.391   3.089   7.713 -0.0464 -0.2366 -0.2981
  153SAPE  H13R16981   1.435   3.181   7.670  0.9698 -0.2716  0.6200
  153SAPE  H13S16982   1.473   3.020   7.741  0.1957 -0.7022 -2.0840
  153SAPE  C21416983   1.316   3.132   7.834  0.1257 -0.1404 -0.9540
  153SAPE  H14R16984   1.213   3.097   7.847 -0.1154 -0.2475 -2.8250
  153SAPE  C21516985   1.364   3.180   7.948 -0.2933 -0.3845  0.9766
  153SAPE  H15R16986   1.295   3.196   8.032  0.3302  3.4505  0.9517
  153SAPE  C21616987   1.504   3.220   7.991 -0.2601 -0.0978  0.3128
  153SAPE  H16R16988   1.547   3.148   8.064  0.1180  0.7438  0.9279
  153SAPE  H16S16989   1.503   3.314   8.049  1.5011  0.4283 -0.4557
  153SAPE  C21716990   1.608   3.245   7.879 -0.8311  0.0303  0.4410
  153SAPE  H17R16991   1.556   3.297   7.797 -2.6631 -1.0947  0.8488
  153SAPE  H17S16992   1.624   3.142   7.840 -0.6301 -0.0697  0.7727
  153SAPE  C21816993   1.734   3.320   7.927 -0.1322  0.5577 -0.7094
  153SAPE  H18R16994   1.814   3.293   7.854  1.1368  1.0333  0.4430
  153SAPE  H18S16995   1.770   3.279   8.025 -1.1542  2.9587  0.7541
  153SAPE  C21916996   1.721   3.477   7.936  1.0486 -0.4655  0.0839
  153SAPE  H19R16997   1.633   3.493   8.002  1.0509 -2.8244  0.7606
  153SAPE  H19S16998   1.695   3.524   7.839 -2.8808  0.6590  1.5008
  153SAPE  C22016999   1.843   3.534   7.991 -0.3161 -0.0082  0.1756
  153SAPE  H20R17000   1.926   3.508   7.922 -0.3138  0.5639 -0.0475
  153SAPE  H20S17001   1.864   3.485   8.088  0.3099  0.9753  0.5486
  153SAPE  H20T17002   1.842   3.644   8.003  2.9361  0.0781  0.5315
  153SAPE   C3317003   1.637   2.901   7.197  0.8470 -0.8793  0.8835
  153SAPE   H3X17004   1.676   2.943   7.292  1.6095 -1.0583  0.6522
  153SAPE   H3Y17005   1.693   2.806   7.191  0.5435 -0.9802 -0.6514
  153SAPE   C3417006   1.489   2.877   7.212 -0.4183 -0.2335 -0.0527
  153SAPE   H4X17007   1.431   2.859   7.118 -1.4514 -2.2288  0.8934
  153SAPE   H4Y17008   1.452   2.978   7.238  0.7458 -0.0781  1.0509
  153SAPE   C3517009   1.441   2.788   7.328 -0.2156  0.2860 -0.2016
  153SAPE   H5X17010   1.350   2.831   7.374  1.5961  3.0389  1.1049
  153SAPE   H5Y17011   1.517   2.793   7.409  0.4092  2.2819 -0.8459
  153SAPE   C3617012   1.412   2.647   7.270 -0.1331  0.1061 -0.2909
  153SAPE   H6X17013   1.498   2.619   7.206  0.5195 -0.8533  0.9631
  153SAPE   H6Y17014   1.331   2.656   7.195  1.5323  1.4290 -2.0179
  153SAPE   C3717015   1.362   2.541   7.367 -0.2171 -0.2955 -0.9475
  153SAPE   H7X17016   1.310   2.462   7.308 -0.7713  0.7026 -1.8240
  153SAPE   H7Y17017   1.281   2.596   7.420 -1.5472 -2.4654 -0.5974
  153SAPE   C3817018   1.468   2.503   7.471 -0.1834  0.1541 -0.0747
  153SAPE   H8X17019   1.510   2.598   7.511 -1.8515  0.6530  0.5878
  153SAPE   H8Y17020   1.556   2.447   7.431  0.5685  1.2191  0.0263
  153SAPE   C3917021   1.411   2.416   7.587 -0.7206  0.3627 -0.1766
  153SAPE   H9X17022   1.380   2.321   7.539 -0.0561 -0.8249  1.6409
  153SAPE   H9Y17023   1.317   2.457   7.628 -0.6375 -1.5375  2.1173
  153SAPE  C31017024   1.507   2.395   7.698  0.3067  0.5439  0.7271
  153SAPE  H10X17025   1.603   2.349   7.667  0.4958  2.4928 -1.9650
  153SAPE  H10Y17026   1.460   2.319   7.763  2.2589 -0.4751  1.0319
  153SAPE  C31117027   1.532   2.518   7.787 -0.7267  0.0958 -0.1047
  153SAPE  H11X17028   1.430   2.546   7.823 -0.3427  1.1122  0.2252
  153SAPE  H11Y17029   1.571   2.601   7.725  1.9516 -0.4388  0.7515
  153SAPE  C31217030   1.630   2.509   7.900  0.2796  0.7461 -0.7212
  153SAPE  H12X17031   1.631   2.611   7.944  1.2957  0.8783 -1.0209
  153SAPE  H12Y17032   1.736   2.491   7.871  0.0791  0.1122 -1.0719
  153SAPE  C31317033   1.590   2.421   8.016 -0.2083 -0.2060  0.0138
  153SAPE  H13X17034   1.556   2.322   7.980  2.3758 -0.7981 -0.9789
  153SAPE  H13Y17035   1.498   2.454   8.069  0.3207  0.8037  0.3318
  153SAPE  C31417036   1.698   2.374   8.111  0.1445 -0.6217  0.1464
  153SAPE  H14X17037   1.752   2.469   8.132  2.0013 -1.8313  1.1063
  153SAPE  H14Y17038   1.776   2.310   8.064  0.2831  0.5796 -1.3068
  153SAPE  C31517039   1.647   2.296   8.226  0.1693  0.1628  0.1157
  153SAPE  H15X17040   1.593   2.209   8.183 -0.0821  1.2761 -1.9379
  153SAPE  H15Y17041   1.568   2.362   8.269 -1.3482 -0.7325 -1.1983
  153SAPE  C31617042   1.745   2.260   8.343  0.1074  0.0297 -0.8337
  153SAPE  H16X17043   1.806   2.175   8.303  1.0281 -0.2899  1.1345
  153SAPE  H16Y17044   1.692   2.224   8.433  1.6179 -0.7338 -0.2031
  153SAPE  C31717045   1.853   2.369   8.383  0.1439  0.8311 -0.2866
  153SAPE  H17X17046   1.846   2.391   8.492 -0.6676 -1.1772  0.1277
  153SAPE  H17Y17047   1.822   2.459   8.327 -0.1313  0.0705 -1.3961
  153SAPE  C31817048   1.998   2.318   8.355  0.9454  0.2002 -0.3627
  153SAPE  H18X17049   2.073   2.401   8.355 -1.4325  2.4917 -1.1379
  153SAPE  H18Y17050   1.995   2.278   8.252 -0.8847  2.8268 -1.4361
  153SAPE  H18Z17051   2.019   2.235   8.426  1.2984 -1.6340 -2.5313
  154SAPE     N17052   5.240   1.342   5.777 -0.3244  0.3212 -0.0603
  154SAPE   HN117053   5.269   1.433   5.737 -1.5075 -0.0218 -1.7750
  154SAPE   HN217054   5.324   1.288   5.809 -2.1914 -2.8984 -0.1818
  154SAPE   HN317055   5.194   1.290   5.700 -1.5284  0.0038  0.8378
  154SAPE   C1217056   5.143   1.363   5.894  0.3095 -0.8702  0.4200
  154SAPE  H12A17057   5.120   1.264   5.940 -2.9466  0.2621  1.4906
  154SAPE  H12B17058   5.053   1.412   5.852  1.0126  0.2754  0.2071
  154SAPE   C1117059   5.200   1.454   5.989 -0.2171 -0.0831 -0.3470
  154SAPE  H11A17060   5.299   1.408   6.009 -0.4424 -1.8952 -2.9183
  154SAPE  H11B17061   5.152   1.456   6.089  0.4200  0.3795 -0.0473
  154SAPE     P17062   5.113   1.701   5.970 -0.6291  0.0385  0.1267
  154SAPE   O1317063   5.167   1.825   5.909 -0.1475  0.2600  0.2185
  154SAPE   O1417064   4.979   1.662   5.922  0.0155  0.1120 -0.1623
  154SAPE   O1217065   5.219   1.587   5.933 -0.3002 -0.1556  0.4253
  154SAPE   O1117066   5.122   1.702   6.128 -0.2549 -0.3296 -0.2982
  154SAPE    C117067   5.101   1.822   6.202 -0.2091 -0.9818  0.2786
  154SAPE    HA17068   5.196   1.879   6.202 -0.0354 -1.2699  0.3776
  154SAPE    HB17069   5.015   1.875   6.156  0.8695 -0.4103 -1.1585
  154SAPE    C217070   5.071   1.786   6.353 -0.2196 -0.4255  0.6742
  154SAPE    HS17071   4.971   1.743   6.372 -1.2793  0.5864 -2.0988
  154SAPE   O2117072   5.078   1.904   6.436  1.0128  0.0181  0.5678
  154SAPE   C2117073   4.970   1.991   6.420 -0.0914  0.8209 -0.0601
  154SAPE   O2217074   4.877   1.977   6.344  0.7272 -0.0264  0.0793
  154SAPE   C2217075   4.986   2.110   6.517  0.4891 -0.6600 -0.4173
  154SAPE   H2R17076   5.090   2.124   6.555 -0.3170 -0.9301  2.0418
  154SAPE   H2S17077   4.952   2.204   6.469  0.1484 -1.1304 -1.1169
  154SAPE    C317078   5.186   1.695   6.401  0.3472 -0.3224  0.0560
  154SAPE    HX17079   5.276   1.754   6.374  0.9382 -0.2133  2.1635
  154SAPE    HY17080   5.190   1.598   6.346  1.0128 -0.4670  0.3532
  154SAPE   O3117081   5.183   1.674   6.545 -0.2858 -0.1921  0.4580
  154SAPE   C3117082   5.105   1.569   6.577 -0.7357 -0.3008 -0.0388
  154SAPE   O3217083   5.036   1.508   6.498  0.6688 -0.1566 -0.1556
  154SAPE   C3217084   5.156   1.518   6.716  0.1260  0.0793  0.0963
  154SAPE   H2X17085   5.263   1.489   6.708  0.0215 -0.4292  0.4660
  154SAPE   H2Y17086   5.090   1.432   6.738 -1.3598  1.1790  0.0458
  154SAPE   C2317087   4.896   2.067   6.633 -0.4849 -0.1117  0.2711
  154SAPE   H3R17088   4.914   1.960   6.656 -1.5133 -0.7557 -1.7009
  154SAPE   H3S17089   4.790   2.070   6.601 -0.8572 -1.5910  1.2818
  154SAPE   C2417090   4.930   2.158   6.753 -0.1334  0.2052 -0.0777
  154SAPE   H4R17091   5.030   2.207   6.746  0.1506  0.2916  3.0743
  154SAPE   H4S17092   4.952   2.090   6.838  1.3263 -0.9152 -1.2977
  154SAPE   C2517093   4.821   2.249   6.782 -0.3399 -0.5197 -0.2732
  154SAPE   H5R17094   4.817   2.324   6.702  1.6700  0.9441  0.8915
  154SAPE   C2617095   4.741   2.250   6.893 -0.2433  0.5803 -0.4980
  154SAPE   H6R17096   4.654   2.317   6.891 -0.2474  0.6520  0.9320
  154SAPE   C2717097   4.747   2.167   7.018 -0.2526 -0.2214 -0.4112
  154SAPE   H7R17098   4.770   2.063   6.989  2.1218 -0.3019  1.4325
  154SAPE   H7S17099   4.651   2.167   7.073 -0.2199  1.4941 -0.2893
  154SAPE   C2817100   4.869   2.200   7.105  0.0166  0.1663  0.1902
  154SAPE   H8R17101   4.947   2.262   7.059  0.7556 -1.5226 -0.9387
  154SAPE   C2917102   4.887   2.149   7.226 -0.7457  0.0551 -0.4325
  154SAPE   H9R17103   4.984   2.166   7.276 -0.8633  1.1810 -0.5724
  154SAPE  C21017104   4.790   2.069   7.310 -0.0159  0.4321 -0.3653
  154SAPE  H10R17105   4.844   2.009   7.386 -1.2836 -0.5496 -0.2122
  154SAPE  H10S17106   4.745   1.991   7.245  0.6306  0.4617 -0.8481
  154SAPE  C21117107   4.676   2.151   7.371  0.1972 -0.7310  0.7420
  154SAPE  H11R17108   4.612   2.195   7.293 -0.8305 -0.5524  1.6712
  154SAPE  C21217109   4.633   2.161   7.498  0.1530 -0.8249  0.2608
  154SAPE  H12R17110   4.538   2.214   7.516 -0.1061 -1.4146  0.6601
  154SAPE  C21317111   4.684   2.105   7.628  0.1731 -0.3910  0.3685
  154SAPE  H13R17112   4.657   1.997   7.632 -0.7019 -0.1525  1.1814
  154SAPE  H13S17113   4.623   2.156   7.705  0.0329  0.6940 -0.4390
  154SAPE  C21417114   4.833   2.121   7.663  0.0119 -0.4895  1.0353
  154SAPE  H14R17115   4.901   2.085   7.584  0.3993  1.0384  0.6341
  154SAPE  C21517116   4.885   2.184   7.774  1.2133 -0.4816 -0.6383
  154SAPE  H15R17117   4.994   2.193   7.786  1.0789  0.3375  0.0919
  154SAPE  C21617118   4.806   2.249   7.888  0.2632  0.7333 -0.2418
  154SAPE  H16R17119   4.742   2.326   7.839 -0.6071  0.3466  0.2659
  154SAPE  H16S17120   4.874   2.305   7.956  0.1181  1.4160 -0.6492
  154SAPE  C21717121   4.728   2.148   7.972 -0.1068 -0.0562 -0.0660
  154SAPE  H17R17122   4.801   2.080   8.022 -0.4652 -0.6309 -0.3166
  154SAPE  H17S17123   4.664   2.089   7.903  1.7641 -1.5142 -0.6564
  154SAPE  C21817124   4.651   2.212   8.081  0.8763  0.8680  0.0510
  154SAPE  H18R17125   4.579   2.282   8.035  0.8764  0.0796 -1.1939
  154SAPE  H18S17126   4.717   2.265   8.153 -1.1975  2.2329  1.0270
  154SAPE  C21917127   4.564   2.109   8.162 -0.6763 -0.5886  0.1884
  154SAPE  H19R17128   4.606   2.007   8.177 -1.8632 -1.1840 -0.4256
  154SAPE  H19S17129   4.471   2.094   8.104 -0.4352 -0.3981 -0.2524
  154SAPE  C22017130   4.518   2.174   8.295 -0.6954  0.6986 -0.2349
  154SAPE  H20R17131   4.472   2.273   8.276  1.5606  1.6990 -0.8245
  154SAPE  H20S17132   4.609   2.182   8.359 -0.8632  0.4866  0.0327
  154SAPE  H20T17133   4.442   2.120   8.356 -1.6026  3.2643  1.0292
  154SAPE   C3317134   5.140   1.616   6.828  0.3499  0.4783 -1.0004
  154SAPE   H3X17135   5.211   1.700   6.815  1.9102 -0.6615 -0.2150
  154SAPE   H3Y17136   5.176   1.561   6.918 -0.6969  1.2910 -0.0504
  154SAPE   C3417137   4.997   1.667   6.845 -0.1952 -0.4240 -0.1761
  154SAPE   H4X17138   4.927   1.581   6.854  0.2368 -0.7981 -0.3578
  154SAPE   H4Y17139   4.966   1.730   6.758  1.9732  1.6870  0.4840
  154SAPE   C3517140   4.971   1.761   6.962  0.1010 -0.2111 -0.4869
  154SAPE   H5X17141   4.865   1.793   6.957 -0.1524 -1.1086 -1.0242
  154SAPE   H5Y17142   5.023   1.859   6.949 -1.3859  0.4235 -1.9360
  154SAPE   C3617143   5.000   1.687   7.096 -0.3330  0.0552 -0.2738
  154SAPE   H6X17144   5.110   1.672   7.109  0.3456  4.7214  1.4062
  154SAPE   H6Y17145   4.953   1.586   7.091 -0.4945 -0.0405  2.1638
  154SAPE   C3717146   4.953   1.768   7.218  0.0295 -0.0897  0.2401
  154SAPE   H7X17147   4.849   1.807   7.218 -0.1348 -0.5122  0.5644
  154SAPE   H7Y17148   5.023   1.851   7.241  2.1811 -1.6154 -0.5075
  154SAPE   C3817149   4.961   1.682   7.339  0.6594  0.6346 -0.5582
  154SAPE   H8X17150   5.065   1.643   7.342  1.1000  1.7515 -0.8191
  154SAPE   H8Y17151   4.894   1.594   7.336 -1.8725  2.4435 -0.4364
  154SAPE   C3917152   4.934   1.754   7.472 -1.1292  0.4011  0.0509
  154SAPE   H9X17153   4.836   1.805   7.459 -2.9933 -2.5417  1.5796
  154SAPE   H9Y17154   5.009   1.834   7.493 -1.1874  0.8000 -1.2207
  154SAPE  C31017155   4.936   1.663   7.593 -0.0408 -0.7037 -0.1026
  154SAPE  H10X17156   5.040   1.628   7.608  1.2446  2.0841 -1.7422
  154SAPE  H10Y17157   4.877   1.568   7.590  0.9686 -1.3046 -1.7127
  154SAPE  C31117158   4.891   1.738   7.722  0.7757 -0.1335  0.5088
  154SAPE  H11X17159   4.783   1.760   7.713  0.6466 -0.0198  2.1145
  154SAPE  H11Y17160   4.952   1.829   7.740  2.2827 -1.3903  2.2296
  154SAPE  C31217161   4.900   1.656   7.854 -0.2238  0.1661  0.5585
  154SAPE  H12X17162   5.004   1.635   7.888 -0.9306 -2.0671  1.5704
  154SAPE  H12Y17163   4.856   1.556   7.834  1.8929 -0.6454 -0.4394
  154SAPE  C31317164   4.818   1.724   7.962 -0.4958  0.5915 -0.7902
  154SAPE  H13X17165   4.714   1.741   7.929 -0.6309  1.4055  0.0233
  154SAPE  H13Y17166   4.864   1.824   7.980 -0.1023  0.5716 -1.6180
  154SAPE  C31417167   4.830   1.641   8.092  0.1341  0.4072  0.1112
  154SAPE  H14X17168   4.937   1.644   8.120 -0.2993 -0.8928  2.0921
  154SAPE  H14Y17169   4.800   1.539   8.057  0.8238  0.0893  0.4401
  154SAPE  C31517170   4.746   1.686   8.216 -0.1814 -0.1420 -0.2263
  154SAPE  H15X17171   4.773   1.788   8.251 -2.7073  0.6190 -0.2927
  154SAPE  H15Y17172   4.775   1.618   8.299  0.2799  0.0585 -0.2205
  154SAPE  C31617173   4.602   1.699   8.190 -0.6982 -0.1345 -1.2067
  154SAPE  H16X17174   4.554   1.601   8.171  1.0966 -1.3765  0.3156
  154SAPE  H16Y17175   4.587   1.775   8.111 -1.5782  2.8757  1.6237
  154SAPE  C31717176   4.538   1.753   8.319 -0.2052  0.1259 -0.0406
  154SAPE  H17X17177   4.449   1.817   8.303 -0.4147  0.5468  2.4117
  154SAPE  H17Y17178   4.611   1.829   8.355  1.0664  0.2890 -2.7354
  154SAPE  C31817179   4.530   1.641   8.421  0.4859  0.5050 -0.2405
  154SAPE  H18X17180   4.443   1.573   8.416 -0.5451  1.5598  1.9377
  154SAPE  H18Y17181   4.512   1.688   8.520 -0.9096  1.2421 -0.8175
  154SAPE  H18Z17182   4.616   1.569   8.419  0.4428  0.4698 -1.6979
  155SAPE     N17183   1.418   2.412   6.151  0.4788  0.0492  0.2982
  155SAPE   HN117184   1.323   2.398   6.191  0.5412 -0.8519  0.1505
  155SAPE   HN217185   1.470   2.480   6.210 -1.0009  0.9803  0.5783
  155SAPE   HN317186   1.390   2.458   6.063  0.0293 -0.6983  0.0351
  155SAPE   C1217187   1.484   2.276   6.112 -0.2085 -0.2984 -0.1333
  155SAPE  H12A17188   1.592   2.299   6.103  0.1290 -0.4224  2.7338
  155SAPE  H12B17189   1.443   2.252   6.011 -0.5120 -1.7528  0.3015
  155SAPE   C1117190   1.456   2.180   6.227 -0.1530 -0.4584 -0.0707
  155SAPE  H11A17191   1.500   2.227   6.317  0.1307  0.8847 -0.8744
  155SAPE  H11B17192   1.514   2.087   6.213  1.3550  0.6409 -1.5891
  155SAPE     P17193   1.256   2.029   6.225  0.0130 -0.0852 -0.4592
  155SAPE   O1317194   1.111   2.049   6.205  0.4480  1.2812  0.6394
  155SAPE   O1417195   1.332   1.967   6.114  0.4253  0.2340  0.2528
  155SAPE   O1217196   1.317   2.169   6.247  0.0861  0.0157  0.1698
  155SAPE   O1117197   1.276   1.954   6.360 -0.3020 -0.2581 -0.2135
  155SAPE    C117198   1.402   1.901   6.411 -0.5512  0.0067  0.5715
  155SAPE    HA17199   1.410   1.791   6.398  1.0728  0.0579  0.8983
  155SAPE    HB17200   1.498   1.935   6.366  1.0490 -2.5071  1.8760
  155SAPE    C217201   1.406   1.939   6.561 -0.6002 -0.3953  0.3438
  155SAPE    HS17202   1.498   1.887   6.595 -0.0750  0.2062 -0.1228
  155SAPE   O2117203   1.286   1.884   6.621  0.6036 -0.4111  0.0006
  155SAPE   C2117204   1.295   1.848   6.752  0.4520 -0.1472  0.9010
  155SAPE   O2217205   1.403   1.848   6.809  0.3178  0.1504  0.3307
  155SAPE   C2217206   1.161   1.797   6.803 -0.1674  0.3815 -0.2452
  155SAPE   H2R17207   1.072   1.855   6.771 -0.3732 -0.3005 -0.9354
  155SAPE   H2S17208   1.152   1.693   6.766 -1.8693  0.8155 -1.1808
  155SAPE    C317209   1.414   2.101   6.564 -0.4001  0.4255  0.3765
  155SAPE    HX17210   1.315   2.145   6.541 -2.2405 -0.9665  4.4940
  155SAPE    HY17211   1.496   2.134   6.498 -1.3215 -2.0312 -2.1976
  155SAPE   O3117212   1.462   2.140   6.696 -0.1841  0.1487  0.2734
  155SAPE   C3117213   1.376   2.190   6.783  0.3014 -0.2282 -0.5056
  155SAPE   O3217214   1.255   2.189   6.763  0.2643 -0.0185 -0.1752
  155SAPE   C3217215   1.451   2.224   6.916  0.2761  0.0370  0.0114
  155SAPE   H2X17216   1.537   2.286   6.884  0.1961 -0.6533 -1.6604
  155SAPE   H2Y17217   1.484   2.125   6.953 -0.7893  0.0538  1.0565
  155SAPE   C2317218   1.151   1.780   6.957  0.4145  0.3719  0.0590
  155SAPE   H3R17219   1.250   1.808   7.002 -0.2587  2.4396  0.3694
  155SAPE   H3S17220   1.115   1.680   6.989  0.5365  0.7983  1.6353
  155SAPE   C2417221   1.046   1.882   7.019  0.2180  0.8910  0.0308
  155SAPE   H4R17222   1.088   1.977   6.979  0.7520 -0.6780 -3.4358
  155SAPE   H4S17223   1.052   1.893   7.130 -2.2203  1.1028  0.1941
  155SAPE   C2517224   0.903   1.874   6.980 -0.5964  0.0565  0.5686
  155SAPE   H5R17225   0.883   1.886   6.873  0.8826 -2.3659 -0.0678
  155SAPE   C2617226   0.796   1.854   7.056 -0.2051  0.1386 -0.0107
  155SAPE   H6R17227   0.698   1.836   7.009 -0.9414 -0.8966  1.7980
  155SAPE   C2717228   0.807   1.845   7.209  0.1411  0.6393  0.0715
  155SAPE   H7R17229   0.902   1.801   7.245 -1.3964 -1.1353  2.2344
  155SAPE   H7S17230   0.739   1.764   7.243 -1.1059  1.5894 -0.0665
  155SAPE   C2817231   0.779   1.973   7.283 -0.5532  0.4594 -0.6135
  155SAPE   H8R17232   0.793   2.063   7.220 -1.3379  0.1278 -1.2712
  155SAPE   C2917233   0.742   1.978   7.414  0.0593 -0.5151 -0.9325
  155SAPE   H9R17234   0.712   2.077   7.452  1.6584  0.8161 -2.8767
  155SAPE  C21017235   0.716   1.868   7.520  0.0906 -0.1833  0.8529
  155SAPE  H10R17236   0.719   1.769   7.470  0.4566  0.4080 -0.3353
  155SAPE  H10S17237   0.614   1.883   7.561  0.1266  1.7078  0.3591
  155SAPE  C21117238   0.813   1.873   7.631 -0.1112 -0.6220  0.7105
  155SAPE  H11R17239   0.904   1.824   7.594  0.1360  1.6763 -2.0640
  155SAPE  C21217240   0.796   1.918   7.756  0.0764  0.1693  0.1562
  155SAPE  H12R17241   0.881   1.914   7.826  1.8204  0.2463 -1.8414
  155SAPE  C21317242   0.667   1.975   7.804 -0.6588 -0.3186 -0.3111
  155SAPE  H13R17243   0.596   1.902   7.761  0.5525 -0.6012 -1.8980
  155SAPE  H13S17244   0.650   2.077   7.762  0.9627  0.7355  1.4379
  155SAPE  C21417245   0.642   1.966   7.953  0.3041 -0.0653  0.4480
  155SAPE  H14R17246   0.617   1.866   7.990 -1.6819  0.5903  1.0083
  155SAPE  C21517247   0.646   2.070   8.038 -0.1581 -0.4187 -0.0965
  155SAPE  H15R17248   0.627   2.055   8.145 -0.5916 -1.4017 -0.3046
  155SAPE  C21617249   0.665   2.214   8.003  0.3193  0.2715  0.5003
  155SAPE  H16R17250   0.686   2.228   7.894  1.3133 -0.4844  0.5768
  155SAPE  H16S17251   0.748   2.259   8.062 -0.1311 -0.8659  2.0534
  155SAPE  C21717252   0.542   2.296   8.020 -0.9327  0.3793 -0.7103
  155SAPE  H17R17253   0.537   2.308   8.130 -1.7828 -2.2413 -0.3809
  155SAPE  H17S17254   0.450   2.246   7.982 -1.9242  0.4511  1.4826
  155SAPE  C21817255   0.547   2.437   7.966 -0.2911 -0.3756  0.2159
  155SAPE  H18R17256   0.463   2.497   8.005 -1.0094  0.4633 -2.4294
  155SAPE  H18S17257   0.539   2.443   7.856 -2.2492  3.9941  0.4188
  155SAPE  C21917258   0.677   2.512   7.993 -0.5450  0.3124 -0.7728
  155SAPE  H19R17259   0.760   2.472   7.932 -0.1610  1.3441 -0.9566
  155SAPE  H19S17260   0.709   2.492   8.098  0.8109  0.2797 -1.1710
  155SAPE  C22017261   0.675   2.661   7.966  0.0586 -0.7802 -0.0434
  155SAPE  H20R17262   0.576   2.705   7.992  1.0159  0.7756  1.1668
  155SAPE  H20S17263   0.693   2.692   7.861  1.8576  2.5637  1.1059
  155SAPE  H20T17264   0.752   2.714   8.027 -0.2728 -1.0878  0.6539
  155SAPE   C3317265   1.358   2.270   7.024  0.2706  0.1328  0.3024
  155SAPE   H3X17266   1.257   2.294   6.985  0.0666 -1.9857 -0.6349
  155SAPE   H3Y17267   1.398   2.361   7.074 -1.7373  0.4540  1.4381
  155SAPE   C3417268   1.327   2.155   7.125  0.0916 -0.0790 -0.8152
  155SAPE   H4X17269   1.305   2.059   7.074  0.0889  0.2692 -1.4838
  155SAPE   H4Y17270   1.235   2.187   7.177  1.2255  2.6042 -0.2743
  155SAPE   C3517271   1.440   2.144   7.232  0.1675 -0.9274  0.0870
  155SAPE   H5X17272   1.439   2.225   7.308  1.4613  0.1588 -0.9945
  155SAPE   H5Y17273   1.540   2.160   7.185 -0.2397  0.8949 -0.2301
  155SAPE   C3617274   1.449   2.015   7.308  0.0664 -0.5046 -0.3239
  155SAPE   H6X17275   1.496   1.949   7.232 -0.2993  1.1173 -2.0578
  155SAPE   H6Y17276   1.349   1.974   7.329 -0.7482  0.9464 -1.1865
  155SAPE   C3717277   1.536   2.016   7.428  0.3547 -0.3967 -0.2888
  155SAPE   H7X17278   1.494   2.092   7.498  0.0339 -0.0968 -0.8071
  155SAPE   H7Y17279   1.641   2.036   7.397  1.0399 -2.9391  0.1762
  155SAPE   C3817280   1.551   1.877   7.493  0.7705  0.2256 -0.2890
  155SAPE   H8X17281   1.606   1.811   7.423  2.0205  1.2349 -0.2910
  155SAPE   H8Y17282   1.450   1.839   7.521  0.5439  1.2139  0.3321
  155SAPE   C3917283   1.631   1.874   7.630  0.3005 -0.6465 -0.1033
  155SAPE   H9X17284   1.737   1.898   7.609  0.0057  0.4438 -0.4410
  155SAPE   H9Y17285   1.643   1.769   7.663  0.1676  0.3291  3.4126
  155SAPE  C31017286   1.568   1.949   7.745 -0.0149  0.1498  0.1340
  155SAPE  H10X17287   1.457   1.942   7.738  0.0982 -0.1347 -1.7823
  155SAPE  H10Y17288   1.592   2.056   7.730  0.0895 -0.0019 -0.7817
  155SAPE  C31117289   1.603   1.878   7.881 -0.7004 -0.3920 -0.1478
  155SAPE  H11X17290   1.596   1.767   7.875  1.9896 -0.6122 -0.6018
  155SAPE  H11Y17291   1.533   1.930   7.949  0.3548  3.0408 -1.4553
  155SAPE  C31217292   1.748   1.909   7.920 -0.3748 -0.3620 -0.8029
  155SAPE  H12X17293   1.764   2.018   7.908  0.0008 -0.4076 -0.7154
  155SAPE  H12Y17294   1.814   1.860   7.845  0.2260  1.1174 -1.2772
  155SAPE  C31317295   1.771   1.869   8.065  0.6859  0.7041  0.6555
  155SAPE  H13X17296   1.761   1.758   8.060  2.0748  0.6053 -0.9153
  155SAPE  H13Y17297   1.686   1.902   8.127  0.6772 -1.3149  1.8180
  155SAPE  C31417298   1.903   1.908   8.121 -0.4074  0.0381  0.1784
  155SAPE  H14X17299   1.890   2.016   8.144 -2.7731 -0.0804 -0.3230
  155SAPE  H14Y17300   1.987   1.895   8.050 -0.5627 -2.7248  0.3699
  155SAPE  C31517301   1.938   1.848   8.260  0.5326 -0.1623 -0.0003
  155SAPE  H15X17302   1.942   1.737   8.249  2.3471 -0.1991  0.6620
  155SAPE  H15Y17303   1.859   1.872   8.334  0.6409  0.4721 -0.0836
  155SAPE  C31617304   2.074   1.897   8.308 -0.2080  0.1279 -0.1893
  155SAPE  H16X17305   2.093   2.004   8.286  1.2345  0.3471  1.8905
  155SAPE  H16Y17306   2.150   1.835   8.255  1.8014  1.8284  0.5678
  155SAPE  C31717307   2.077   1.902   8.467 -0.3764  0.0868 -0.2074
  155SAPE  H17X17308   2.006   1.979   8.503  0.2645  0.1457  0.9977
  155SAPE  H17Y17309   2.177   1.939   8.498 -0.1851 -0.0260 -0.6810
  155SAPE  C31817310   2.047   1.769   8.523 -0.2093 -0.5137  0.5138
  155SAPE  H18X17311   2.048   1.771   8.634  0.9340 -0.8167  0.5276
  155SAPE  H18Y17312   2.125   1.698   8.487  1.0197  1.3886 -0.7503
  155SAPE  H18Z17313   1.951   1.730   8.484  0.1395  0.2255 -1.1659
  156SAPE     N17314   6.452   2.322   6.392 -0.0173  0.5507  0.2721
  156SAPE   HN117315   6.401   2.306   6.302 -0.1774 -1.3123  0.6446
  156SAPE   HN217316   6.395   2.285   6.471  1.0228 -0.9107  0.3700
  156SAPE   HN317317   6.484   2.419   6.410  0.8310  0.8011 -2.2525
  156SAPE   C1217318   6.577   2.233   6.389 -0.1526 -0.7889 -0.0205
  156SAPE  H12A17319   6.633   2.253   6.483 -0.3801 -0.5380  0.0604
  156SAPE  H12B17320   6.642   2.269   6.307 -0.4887  1.2603  0.5646
  156SAPE   C1117321   6.530   2.085   6.358 -0.1573  0.3849  0.3120
  156SAPE  H11A17322   6.504   2.038   6.456 -0.7718  1.3592  0.6272
  156SAPE  H11B17323   6.623   2.038   6.321 -1.1644  0.7595 -2.9426
  156SAPE     P17324   6.374   1.909   6.233  0.2264  0.5172 -0.2498
  156SAPE   O1317325   6.250   1.919   6.149 -0.6476  0.1861 -0.1480
  156SAPE   O1417326   6.487   1.822   6.190 -0.1240 -0.0783 -0.0737
  156SAPE   O1217327   6.432   2.053   6.259 -0.0750 -0.5470 -0.5728
  156SAPE   O1117328   6.334   1.864   6.377  0.7636  0.7120 -0.0462
  156SAPE    C117329   6.245   1.938   6.463 -0.4702  0.6180 -0.3096
  156SAPE    HA17330   6.305   1.981   6.547 -0.8745 -2.4636  1.7241
  156SAPE    HB17331   6.194   2.017   6.405 -0.3606  1.2231  0.3982
  156SAPE    C217332   6.146   1.842   6.533  0.0434 -0.1988 -0.2706
  156SAPE    HS17333   6.081   1.899   6.602 -0.0412 -1.3414  0.6363
  156SAPE   O2117334   6.215   1.731   6.605 -0.3829 -0.3352  0.1863
  156SAPE   C2117335   6.271   1.770   6.716 -0.4818 -0.3082 -0.0532
  156SAPE   O2217336   6.255   1.879   6.771  0.2585  0.0451  0.4441
  156SAPE   C2217337   6.349   1.655   6.786 -0.7787  0.3794  0.9030
  156SAPE   H2R17338   6.331   1.559   6.732  1.1757  0.5768 -0.2036
  156SAPE   H2S17339   6.457   1.668   6.764 -0.9405  0.4689  0.1308
  156SAPE    C317340   6.045   1.787   6.432 -0.4228 -0.3361 -1.0192
  156SAPE    HX17341   6.094   1.734   6.348 -0.9764 -2.3029 -0.1571
  156SAPE    HY17342   6.006   1.885   6.396 -1.8583 -0.8026 -0.8341
  156SAPE   O3117343   5.945   1.712   6.496 -0.1037  0.2361 -0.4518
  156SAPE   C3117344   5.942   1.578   6.474  0.1807  0.2307 -0.4619
  156SAPE   O3217345   6.022   1.524   6.399 -0.3828  0.2301  0.6071
  156SAPE   C3217346   5.844   1.516   6.564  0.1410 -0.1905  0.1391
  156SAPE   H2X17347   5.780   1.449   6.502 -1.4178  0.9499  0.4628
  156SAPE   H2Y17348   5.774   1.595   6.600  1.2083  0.5211  0.6849
  156SAPE   C2317349   6.330   1.645   6.937 -0.3970 -0.4241 -0.2457
  156SAPE   H3R17350   6.221   1.641   6.958 -0.5046 -0.5818 -0.8128
  156SAPE   H3S17351   6.380   1.732   6.985 -1.4054 -1.1940  2.3660
  156SAPE   C2417352   6.386   1.507   6.986  0.7448 -0.6352  0.1167
  156SAPE   H4R17353   6.352   1.440   6.904  1.4147  0.4232 -1.0675
  156SAPE   H4S17354   6.338   1.492   7.085  0.2307 -0.9768 -0.1825
  156SAPE   C2517355   6.535   1.496   7.002 -0.0130 -0.2631 -0.1374
  156SAPE   H5R17356   6.585   1.512   6.905  1.1212 -0.5187  0.3920
  156SAPE   C2617357   6.606   1.470   7.111 -0.1048  0.1202  0.2156
  156SAPE   H6R17358   6.711   1.443   7.090 -0.4508 -0.5767 -0.6979
  156SAPE   C2717359   6.555   1.433   7.246 -0.8333 -0.3811 -0.6986
  156SAPE   H7R17360   6.481   1.350   7.242  0.0004 -1.2608  0.8188
  156SAPE   H7S17361   6.507   1.520   7.295 -1.3428 -0.4606 -1.0560
  156SAPE   C2817362   6.674   1.409   7.332 -0.0403  0.1364 -1.0076
  156SAPE   H8R17363   6.776   1.405   7.291  0.5385  0.7016  0.3154
  156SAPE   C2917364   6.678   1.380   7.464 -0.6777  0.6135  0.3319
  156SAPE   H9R17365   6.774   1.356   7.511 -0.5707  0.6713  0.1482
  156SAPE  C21017366   6.551   1.370   7.553  0.4387  0.7783  0.1567
  156SAPE  H10R17367   6.560   1.276   7.611 -0.8561 -0.2694 -1.2231
  156SAPE  H10S17368   6.455   1.360   7.496 -0.4163  2.4366  1.2207
  156SAPE  C21117369   6.552   1.498   7.627  0.0883 -0.3796  0.3639
  156SAPE  H11R17370   6.506   1.584   7.576 -1.0622 -0.0722  1.8729
  156SAPE  C21217371   6.577   1.511   7.755 -0.3205 -0.5140 -0.4354
  156SAPE  H12R17372   6.584   1.608   7.807  4.2783 -2.3897  3.2761
  156SAPE  C21317373   6.621   1.389   7.836 -0.5947 -0.3995  0.4386
  156SAPE  H13R17374   6.713   1.343   7.794 -0.7891 -0.5617  0.1897
  156SAPE  H13S17375   6.539   1.314   7.836 -0.3938 -0.6227 -0.3130
  156SAPE  C21417376   6.656   1.442   7.974  0.9599  0.2664  0.1871
  156SAPE  H14R17377   6.737   1.515   7.961  0.0322  1.2722 -0.0400
  156SAPE  C21517378   6.596   1.406   8.087  0.0069 -1.1941 -0.4450
  156SAPE  H15R17379   6.631   1.446   8.183 -1.4051  1.8456 -1.0600
  156SAPE  C21617380   6.481   1.311   8.112  0.0863 -0.1352 -0.2761
  156SAPE  H16R17381   6.505   1.231   8.186  0.9921 -1.4335 -1.9091
  156SAPE  H16S17382   6.447   1.265   8.017  2.2096 -1.7671 -0.3375
  156SAPE  C21717383   6.356   1.382   8.160 -0.1672  0.3684 -0.1097
  156SAPE  H17R17384   6.265   1.318   8.156  0.0587 -0.4155  3.4580
  156SAPE  H17S17385   6.333   1.468   8.093 -1.7357  0.4131  0.4289
  156SAPE  C21817386   6.360   1.444   8.304 -0.0699  0.2920  0.7372
  156SAPE  H18R17387   6.435   1.523   8.326 -0.0407  0.5794 -0.3217
  156SAPE  H18S17388   6.385   1.359   8.370  0.4449 -1.0248 -1.0658
  156SAPE  C21917389   6.227   1.508   8.361 -0.6663 -0.1004  0.7093
  156SAPE  H19R17390   6.143   1.436   8.363 -1.7019  0.8797 -2.1735
  156SAPE  H19S17391   6.195   1.592   8.296 -1.3866 -0.6600  0.3331
  156SAPE  C22017392   6.262   1.565   8.495 -0.1877 -0.4716 -0.4836
  156SAPE  H20R17393   6.342   1.642   8.486  0.9625 -1.6161 -0.3953
  156SAPE  H20S17394   6.300   1.485   8.562  0.0682  1.8268  2.3424
  156SAPE  H20T17395   6.176   1.616   8.543  0.3929  0.8555 -0.8016
  156SAPE   C3317396   5.895   1.424   6.677  0.2865  0.4567 -0.1062
  156SAPE   H3X17397   5.972   1.354   6.639 -0.9847 -0.2078 -1.5778
  156SAPE   H3Y17398   5.812   1.369   6.726  0.2650 -1.1061 -1.7822
  156SAPE   C3417399   5.952   1.501   6.802 -0.0114 -0.4965 -0.0771
  156SAPE   H4X17400   5.861   1.539   6.855  1.6525  1.4343  1.5763
  156SAPE   H4Y17401   6.011   1.590   6.772  0.1764 -0.6424 -0.1424
  156SAPE   C3517402   6.012   1.406   6.905  0.0347 -0.2563  0.1607
  156SAPE   H5X17403   6.122   1.413   6.892 -0.2043 -0.1564 -2.1670
  156SAPE   H5Y17404   5.968   1.306   6.885 -1.2486  0.3602 -0.2546
  156SAPE   C3617405   5.983   1.445   7.046  0.0895  0.4365  0.5225
  156SAPE   H6X17406   5.878   1.418   7.071  0.1147 -1.3025 -1.0398
  156SAPE   H6Y17407   5.985   1.554   7.067  0.3073  0.8574 -1.5065
  156SAPE   C3717408   6.072   1.373   7.151 -0.2728 -0.6402  0.2490
  156SAPE   H7X17409   6.182   1.385   7.139 -0.4805 -1.0071 -2.8561
  156SAPE   H7Y17410   6.061   1.264   7.132  3.4650 -1.0632 -0.2934
  156SAPE   C3817411   6.031   1.419   7.297  0.5340  0.2489  0.2808
  156SAPE   H8X17412   5.923   1.396   7.311 -0.0788  1.9326 -1.3205
  156SAPE   H8Y17413   6.046   1.529   7.300  0.2451  0.3297 -0.9179
  156SAPE   C3917414   6.116   1.366   7.411 -0.3398 -0.2323  0.5123
  156SAPE   H9X17415   6.221   1.398   7.394  0.1331 -2.5852 -1.4376
  156SAPE   H9Y17416   6.109   1.256   7.401 -0.9224 -0.0427 -1.7639
  156SAPE  C31017417   6.072   1.407   7.550  0.4006 -0.2719  0.5007
  156SAPE  H10X17418   5.964   1.386   7.566  0.0572  2.1910  1.9136
  156SAPE  H10Y17419   6.099   1.513   7.566 -1.3998 -0.0403  2.3915
  156SAPE  C31117420   6.149   1.325   7.649  0.1732  1.0338 -0.3763
  156SAPE  H11X17421   6.252   1.363   7.669  0.7806 -1.1898  1.0687
  156SAPE  H11Y17422   6.162   1.229   7.595  1.9715  1.9736 -1.7297
  156SAPE  C31217423   6.083   1.310   7.788 -0.6775  0.2900 -0.5732
  156SAPE  H12X17424   6.154   1.255   7.853  1.2309  1.5323 -1.4933
  156SAPE  H12Y17425   5.983   1.263   7.787 -0.7121  0.2590  1.1940
  156SAPE  C31317426   6.059   1.448   7.848 -0.2320 -0.3955 -0.4792
  156SAPE  H13X17427   5.990   1.511   7.788 -2.6428 -0.8032  1.7209
  156SAPE  H13Y17428   6.154   1.502   7.870  0.5302 -1.9166  0.1310
  156SAPE  C31417429   5.996   1.455   7.989  0.2256  0.2567  0.2166
  156SAPE  H14X17430   6.074   1.432   8.064 -1.2653 -1.4799  1.3330
  156SAPE  H14Y17431   5.908   1.387   7.994 -1.4270  2.2823  0.2100
  156SAPE  C31517432   5.948   1.598   8.020 -0.0607  0.3750 -0.7152
  156SAPE  H15X17433   5.869   1.624   7.946  1.0340  0.3733 -1.9039
  156SAPE  H15Y17434   6.040   1.659   8.013 -1.1906  2.4339  1.0408
  156SAPE  C31617435   5.909   1.619   8.166  0.5004 -0.0691  0.5384
  156SAPE  H16X17436   5.958   1.542   8.229  0.3105  0.0578  0.8411
  156SAPE  H16Y17437   5.800   1.607   8.181  0.1979 -1.6937 -2.0955
  156SAPE  C31717438   5.962   1.757   8.210  0.9805  1.1271 -0.2794
  156SAPE  H17X17439   5.915   1.825   8.136 -0.6215 -1.3698 -1.7091
  156SAPE  H17Y17440   6.069   1.767   8.185  1.2868 -0.1595  0.3763
  156SAPE  C31817441   5.929   1.797   8.355 -0.9891  0.5672 -0.1914
  156SAPE  H18X17442   5.958   1.901   8.381 -1.7768  0.1953  2.3803
  156SAPE  H18Y17443   5.975   1.723   8.424 -1.0035  0.9638  0.2487
  156SAPE  H18Z17444   5.821   1.781   8.379 -0.3431  0.3592  2.8711
  157SAPE     N17445   1.188   5.864   6.490 -0.3192  0.3999  0.6629
  157SAPE   HN117446   1.278   5.906   6.457  0.2967  0.5492  2.4397
  157SAPE   HN217447   1.108   5.892   6.430 -1.1905 -1.7958  0.7024
  157SAPE   HN317448   1.173   5.891   6.589  0.4298  0.2777  0.8154
  157SAPE   C1217449   1.193   5.716   6.483 -0.2166  0.2287  0.3700
  157SAPE  H12A17450   1.186   5.678   6.379 -1.5310 -0.4643  0.6804
  157SAPE  H12B17451   1.107   5.678   6.543 -0.5674 -1.0096 -0.8536
  157SAPE   C1117452   1.325   5.672   6.549 -0.3324  0.2255  0.2832
  157SAPE  H11A17453   1.331   5.562   6.542  2.5929  0.1561  2.1206
  157SAPE  H11B17454   1.332   5.691   6.658  0.3076 -2.6309  0.7975
  157SAPE     P17455   1.541   5.644   6.399 -0.1217 -0.2375 -0.2504
  157SAPE   O1317456   1.460   5.593   6.288  0.1903 -0.4278 -0.8134
  157SAPE   O1417457   1.661   5.720   6.359 -0.3444 -0.0193  0.3495
  157SAPE   O1217458   1.445   5.737   6.491 -0.5322  0.5670 -0.3251
  157SAPE   O1117459   1.579   5.528   6.498 -0.0090 -0.7970  0.2634
  157SAPE    C117460   1.712   5.471   6.511 -0.3572 -0.4134 -0.1937
  157SAPE    HA17461   1.702   5.375   6.455 -3.0913 -0.6000  0.4700
  157SAPE    HB17462   1.781   5.545   6.465 -0.2112 -1.1649 -1.2264
  157SAPE    C217463   1.757   5.468   6.663  0.4684  0.5694 -0.0481
  157SAPE    HS17464   1.868   5.459   6.658  0.5674  2.1148 -2.9415
  157SAPE   O2117465   1.700   5.350   6.721  0.0083  0.1506  0.8478
  157SAPE   C2117466   1.779   5.254   6.765  0.0415 -0.3585 -0.5454
  157SAPE   O2217467   1.901   5.264   6.776  0.3159 -0.2584  0.4141
  157SAPE   C2217468   1.701   5.133   6.809  0.2240  0.0577 -0.0844
  157SAPE   H2R17469   1.630   5.111   6.727 -1.3607  0.1210  1.2212
  157SAPE   H2S17470   1.772   5.052   6.838 -0.2470  0.6155  3.0315
  157SAPE    C317471   1.728   5.592   6.753  0.1225 -0.0567 -0.8139
  157SAPE    HX17472   1.619   5.605   6.773 -0.1660 -0.4912 -2.0091
  157SAPE    HY17473   1.772   5.681   6.703 -1.9258  3.2374  2.7688
  157SAPE   O3117474   1.783   5.570   6.889  0.3693  0.1263  0.0581
  157SAPE   C3117475   1.919   5.571   6.901  0.8284  0.2726 -0.6612
  157SAPE   O3217476   1.998   5.599   6.816 -0.0809  0.1766 -0.0199
  157SAPE   C3217477   1.965   5.544   7.045  1.0464  0.8999 -0.1470
  157SAPE   H2X17478   1.955   5.642   7.097 -1.6876  0.3343  0.5250
  157SAPE   H2Y17479   2.062   5.490   7.039  0.0251 -1.2941  1.8005
  157SAPE   C2317480   1.608   5.157   6.926  0.4779 -0.3730  0.6622
  157SAPE   H3R17481   1.500   5.132   6.915  0.5798 -0.3343 -0.4733
  157SAPE   H3S17482   1.608   5.265   6.953  1.6142 -0.4956  1.2101
  157SAPE   C2417483   1.647   5.079   7.057 -0.2221  0.4338  0.1499
  157SAPE   H4R17484   1.621   5.128   7.153 -0.2761  0.4132  0.1458
  157SAPE   H4S17485   1.758   5.073   7.053 -0.2033 -1.3005  1.9263
  157SAPE   C2517486   1.601   4.936   7.076 -0.3826  0.2418 -0.2257
  157SAPE   H5R17487   1.613   4.879   6.982  3.8774  2.0439 -1.0438
  157SAPE   C2617488   1.588   4.862   7.188  0.0959 -0.6562  0.1222
  157SAPE   H6R17489   1.556   4.757   7.182 -0.5238 -0.4574 -0.2048
  157SAPE   C2717490   1.606   4.930   7.324 -1.1572  1.1676 -0.5199
  157SAPE   H7R17491   1.507   4.979   7.335 -2.2243 -1.1245  0.7221
  157SAPE   H7S17492   1.703   4.984   7.320  1.9662 -3.7591  0.1825
  157SAPE   C2817493   1.629   4.829   7.438  0.5442 -0.0571 -0.3893
  157SAPE   H8R17494   1.689   4.739   7.423 -1.6801 -1.8826  0.9021
  157SAPE   C2917495   1.575   4.825   7.562 -0.4049 -0.0901  0.3799
  157SAPE   H9R17496   1.606   4.752   7.639 -0.1292  0.6655  0.9975
  157SAPE  C21017497   1.478   4.936   7.608  0.0716  0.4318  0.6691
  157SAPE  H10R17498   1.389   4.927   7.543  0.6606  1.6173 -0.3680
  157SAPE  H10S17499   1.511   5.040   7.583 -0.4567  0.2465 -0.9194
  157SAPE  C21117500   1.447   4.933   7.753 -0.0869 -0.5809  0.3493
  157SAPE  H11R17501   1.348   4.897   7.783 -0.5735  0.6298  0.2128
  157SAPE  C21217502   1.529   4.960   7.848 -0.9916 -0.9325  0.0525
  157SAPE  H12R17503   1.492   4.979   7.950 -1.3598 -1.5451  0.0339
  157SAPE  C21317504   1.675   5.008   7.832 -0.1572 -0.3047  0.6342
  157SAPE  H13R17505   1.727   4.968   7.742 -0.1556  0.7345  0.1585
  157SAPE  H13S17506   1.733   4.965   7.916 -0.4691  0.0919  1.0562
  157SAPE  C21417507   1.694   5.152   7.828  0.0301  0.0706 -0.3239
  157SAPE  H14R17508   1.634   5.196   7.747 -0.9382  0.3415  0.5096
  157SAPE  C21517509   1.777   5.234   7.895  0.3436 -0.4448 -0.5197
  157SAPE  H15R17510   1.774   5.341   7.868 -1.7823 -0.8241 -1.9808
  157SAPE  C21617511   1.886   5.198   7.995  0.4242 -0.3209 -0.3270
  157SAPE  H16R17512   1.980   5.250   7.965 -0.2304 -0.0730 -2.0832
  157SAPE  H16S17513   1.904   5.089   7.995 -0.5795 -0.4970 -0.6452
  157SAPE  C21717514   1.847   5.234   8.136  0.5144  0.2157 -0.0564
  157SAPE  H17R17515   1.826   5.342   8.150 -0.4169 -0.1123  1.3053
  157SAPE  H17S17516   1.928   5.197   8.202 -0.9493 -1.2669  0.9859
  157SAPE  C21817517   1.719   5.164   8.185 -0.3862  0.8614  0.7412
  157SAPE  H18R17518   1.718   5.060   8.147 -1.8866  0.2422  2.3461
  157SAPE  H18S17519   1.639   5.212   8.123  0.0881  1.7250  0.7857
  157SAPE  C21917520   1.686   5.173   8.331 -0.1364 -0.6451 -0.8268
  157SAPE  H19R17521   1.583   5.132   8.341 -0.5567  0.6697  0.4764
  157SAPE  H19S17522   1.676   5.276   8.371 -2.0317 -1.3709  0.7009
  157SAPE  C22017523   1.792   5.109   8.420 -0.4995  0.4094  0.1175
  157SAPE  H20R17524   1.774   5.117   8.529  1.5312  1.4340  0.4289
  157SAPE  H20S17525   1.897   5.142   8.404 -0.8433  1.9908  0.9847
  157SAPE  H20T17526   1.791   4.999   8.403 -3.1920  0.0801  1.9168
  157SAPE   C3317527   1.875   5.449   7.124  0.6649 -0.0692  0.0009
  157SAPE   H3X17528   1.877   5.351   7.072 -1.5126 -1.2470  1.9943
  157SAPE   H3Y17529   1.773   5.492   7.128  0.0833 -1.2782 -1.1559
  157SAPE   C3417530   1.927   5.419   7.267  0.7191  0.3928 -0.5255
  157SAPE   H4X17531   1.901   5.505   7.332 -0.2545 -0.1979 -0.1160
  157SAPE   H4Y17532   2.035   5.399   7.250  0.7527 -0.2735  0.4001
  157SAPE   C3517533   1.843   5.296   7.317 -0.1996  0.3640 -0.5737
  157SAPE   H5X17534   1.865   5.198   7.269  0.0907  0.0333  0.2194
  157SAPE   H5Y17535   1.734   5.314   7.314 -0.0219  1.3376 -1.6208
  157SAPE   C3617536   1.871   5.264   7.466 -0.2985  0.5205 -0.7418
  157SAPE   H6X17537   1.797   5.195   7.512  0.9050 -0.1305  0.2785
  157SAPE   H6Y17538   1.860   5.357   7.527  1.5440 -0.4802  1.2430
  157SAPE   C3717539   2.019   5.225   7.486  0.8967 -0.6553 -0.6405
  157SAPE   H7X17540   2.088   5.303   7.447  0.5856  0.7069  1.3447
  157SAPE   H7Y17541   2.031   5.136   7.422 -0.8505 -0.3481 -1.4496
  157SAPE   C3817542   2.070   5.196   7.624 -0.5865 -0.3479  0.2735
  157SAPE   H8X17543   2.011   5.110   7.662  0.6027 -2.5017 -2.3854
  157SAPE   H8Y17544   2.050   5.284   7.688 -0.1792  1.2811 -1.7294
  157SAPE   C3917545   2.215   5.160   7.644  0.2716 -0.0469 -0.6485
  157SAPE   H9X17546   2.274   5.239   7.594 -0.8534  2.1213  1.2253
  157SAPE   H9Y17547   2.240   5.072   7.580 -4.0033 -0.3726 -2.2155
  157SAPE  C31017548   2.252   5.146   7.790  0.2261  0.0847 -0.1925
  157SAPE  H10X17549   2.341   5.079   7.786  0.7886  0.6105  1.9755
  157SAPE  H10Y17550   2.171   5.099   7.850  0.4621 -0.8158 -0.5532
  157SAPE  C31117551   2.300   5.276   7.861 -0.4493 -0.2028  0.1993
  157SAPE  H11X17552   2.213   5.332   7.901  0.1973 -0.0050  1.3797
  157SAPE  H11Y17553   2.363   5.339   7.795  2.2005 -2.2576  0.5708
  157SAPE  C31217554   2.378   5.245   7.988  0.2341  0.8344 -0.3931
  157SAPE  H12X17555   2.403   5.342   8.036 -0.0627  0.2875  0.9101
  157SAPE  H12Y17556   2.475   5.205   7.951 -0.9106 -0.2346 -2.4063
  157SAPE  C31317557   2.290   5.174   8.095 -0.0050  0.0320 -0.6606
  157SAPE  H13X17558   2.262   5.072   8.062  2.7471 -0.3464 -2.1513
  157SAPE  H13Y17559   2.202   5.241   8.102  0.0344  0.0206 -0.0073
  157SAPE  C31417560   2.356   5.159   8.233 -0.1212 -0.1329 -0.1169
  157SAPE  H14X17561   2.363   5.256   8.285  1.5838 -0.1696 -0.2423
  157SAPE  H14Y17562   2.455   5.112   8.214  0.7305  1.7197 -0.5026
  157SAPE  C31517563   2.267   5.073   8.322 -0.5675  0.2061  0.3043
  157SAPE  H15X17564   2.242   4.975   8.276  2.8766 -1.0149  0.7716
  157SAPE  H15Y17565   2.164   5.116   8.319 -1.1000 -1.0525 -0.3106
  157SAPE  C31617566   2.329   5.048   8.465 -0.4669  0.0490 -0.2275
  157SAPE  H16X17567   2.262   4.966   8.499  0.0099 -0.9979 -1.7507
  157SAPE  H16Y17568   2.330   5.141   8.526  2.9694 -0.6752  1.0555
  157SAPE  C31717569   2.473   4.999   8.457  0.6393  0.6940  1.1029
  157SAPE  H17X17570   2.529   5.080   8.406  2.4722 -0.8936  0.4713
  157SAPE  H17Y17571   2.481   4.913   8.387  0.2974  1.4244  0.1509
  157SAPE  C31817572   2.539   4.963   8.583  0.2312  0.5170  0.0337
  157SAPE  H18X17573   2.634   4.906   8.569 -0.6188 -0.7270 -0.9148
  157SAPE  H18Y17574   2.470   4.902   8.646  1.8398 -1.3449  0.1088
  157SAPE  H18Z17575   2.561   5.058   8.636  0.4327  0.9571 -0.8289
  158SAPE     N17576   1.960   3.958   5.975  0.1024 -0.3322  0.5785
  158SAPE   HN117577   1.885   4.016   5.933 -0.4026 -2.2546 -1.3505
  158SAPE   HN217578   2.042   3.986   5.918  0.2198 -0.2469  0.7851
  158SAPE   HN317579   1.944   3.858   5.953 -1.0759 -0.3364  1.3620
  158SAPE   C1217580   1.978   3.971   6.126  0.4157 -0.0604 -0.1138
  158SAPE  H12A17581   1.876   3.975   6.168 -0.1479  0.9536 -1.5153
  158SAPE  H12B17582   2.013   4.075   6.140 -1.1227  0.4711 -0.1039
  158SAPE   C1117583   2.073   3.873   6.201  0.1972  0.6100  1.0223
  158SAPE  H11A17584   2.052   3.906   6.305 -0.4173 -0.7730  1.3594
  158SAPE  H11B17585   2.179   3.897   6.180  0.3207  0.5408  1.5509
  158SAPE     P17586   1.944   3.660   6.256  0.3843  0.4086 -0.6225
  158SAPE   O1317587   1.811   3.710   6.210 -0.3619  0.1648  0.0424
  158SAPE   O1417588   1.970   3.515   6.247  0.7033 -0.7004 -0.5009
  158SAPE   O1217589   2.049   3.737   6.174 -0.2323 -0.6216 -0.1248
  158SAPE   O1117590   1.961   3.711   6.409  0.1822 -0.4783 -0.1659
  158SAPE    C117591   2.088   3.707   6.473  0.5632 -0.1086  0.5483
  158SAPE    HA17592   2.120   3.600   6.469 -1.4169 -0.8081  1.8435
  158SAPE    HB17593   2.160   3.777   6.425 -0.6641  2.4154  2.1986
  158SAPE    C217594   2.089   3.751   6.617  0.5120  0.6362  1.0335
  158SAPE    HS17595   2.179   3.704   6.662 -0.7511 -0.4811  2.5088
  158SAPE   O2117596   1.972   3.701   6.685  0.1811  0.5034 -0.2084
  158SAPE   C2117597   1.954   3.569   6.686  0.1408  0.4471 -0.0003
  158SAPE   O2217598   2.039   3.486   6.668  0.6117  0.4061 -0.4095
  158SAPE   C2217599   1.804   3.543   6.698 -0.0014  0.0382  0.0180
  158SAPE   H2R17600   1.758   3.612   6.773 -0.4817 -1.7001  1.3839
  158SAPE   H2S17601   1.755   3.571   6.602 -0.9721  1.9236  1.0085
  158SAPE    C317602   2.106   3.902   6.640  0.0429 -0.7558 -0.3318
  158SAPE    HX17603   2.037   3.955   6.570 -0.0301 -0.0600  0.2641
  158SAPE    HY17604   2.208   3.916   6.597 -0.6079 -0.4160 -1.8474
  158SAPE   O3117605   2.094   3.949   6.782  0.6463  0.1363 -0.3999
  158SAPE   C3117606   2.211   3.924   6.843  0.3198  0.3766 -0.7413
  158SAPE   O3217607   2.301   3.859   6.803 -0.0392 -0.0808  0.2301
  158SAPE   C3217608   2.197   3.969   6.987  0.7513  0.1747 -0.0990
  158SAPE   H2X17609   2.097   3.955   7.034  0.8298  1.5243  0.5059
  158SAPE   H2Y17610   2.224   4.077   6.988  1.7484 -0.0655  0.4937
  158SAPE   C2317611   1.771   3.400   6.741  0.1962  0.0806  0.7438
  158SAPE   H3R17612   1.818   3.335   6.664  0.6175  0.2033  0.8966
  158SAPE   H3S17613   1.660   3.386   6.742 -0.0197  1.5104 -0.0134
  158SAPE   C2417614   1.824   3.351   6.876 -1.0175  0.4220 -0.4548
  158SAPE   H4R17615   1.935   3.352   6.882 -1.0902 -0.5359  1.4087
  158SAPE   H4S17616   1.803   3.243   6.888  2.6274 -0.1799  2.1627
  158SAPE   C2517617   1.766   3.427   6.991 -0.2043  0.1928  0.1453
  158SAPE   H5R17618   1.656   3.434   6.993 -0.2322  0.1459 -0.8088
  158SAPE   C2617619   1.831   3.503   7.084 -0.2960  0.0342  1.1119
  158SAPE   H6R17620   1.779   3.536   7.175  2.5223  1.3270  2.3721
  158SAPE   C2717621   1.985   3.513   7.090  0.0233  0.2159  0.2872
  158SAPE   H7R17622   2.020   3.537   6.987 -1.1545 -1.9662 -0.6655
  158SAPE   H7S17623   2.033   3.417   7.120 -0.3174 -0.2689 -0.6956
  158SAPE   C2817624   2.044   3.626   7.177  0.4963 -0.5590 -0.0483
  158SAPE   H8R17625   2.055   3.725   7.130  0.2931 -0.5896 -0.1615
  158SAPE   C2917626   2.088   3.621   7.305  0.7258  0.3943 -0.6435
  158SAPE   H9R17627   2.126   3.718   7.339  0.7501 -0.1463  0.9630
  158SAPE  C21017628   2.089   3.498   7.394 -0.3905 -0.3564 -0.0963
  158SAPE  H10R17629   2.074   3.409   7.329 -4.2413  0.8525 -1.1923
  158SAPE  H10S17630   1.998   3.507   7.457  0.3440  2.9583  0.6936
  158SAPE  C21117631   2.219   3.496   7.473 -0.2779  0.2286  0.3442
  158SAPE  H11R17632   2.306   3.514   7.409 -0.8880  0.1018 -0.5395
  158SAPE  C21217633   2.233   3.472   7.607 -0.2181  0.0045  0.1683
  158SAPE  H12R17634   2.333   3.456   7.650 -0.1163 -2.1294 -0.7266
  158SAPE  C21317635   2.128   3.447   7.704  0.3866  0.8355 -0.6227
  158SAPE  H13R17636   2.032   3.487   7.665  0.7730  0.8227 -1.6103
  158SAPE  H13S17637   2.148   3.497   7.802 -1.7155 -0.2581  0.4257
  158SAPE  C21417638   2.112   3.299   7.733  0.7333  0.2163 -0.1985
  158SAPE  H14R17639   2.038   3.253   7.666  0.0088 -0.5171  1.0494
  158SAPE  C21517640   2.151   3.224   7.841  0.2222  0.1608 -0.4522
  158SAPE  H15R17641   2.130   3.117   7.859  0.7822  0.2718  1.0239
  158SAPE  C21617642   2.233   3.275   7.963  0.3602 -0.4184  0.1453
  158SAPE  H16R17643   2.266   3.382   7.962 -1.3884  0.1617 -0.0971
  158SAPE  H16S17644   2.332   3.226   7.968  0.1312 -1.2751 -2.3701
  158SAPE  C21717645   2.152   3.236   8.095  0.2725 -0.2501  0.0949
  158SAPE  H17R17646   2.140   3.126   8.100 -0.6988 -0.2191 -0.9289
  158SAPE  H17S17647   2.050   3.275   8.073 -0.4621 -2.5741 -0.9541
  158SAPE  C21817648   2.212   3.292   8.218  0.2902 -0.3352 -0.3840
  158SAPE  H18R17649   2.209   3.402   8.209 -0.3952 -0.2850  0.3639
  158SAPE  H18S17650   2.318   3.257   8.226 -0.4710 -2.4665  1.2960
  158SAPE  C21917651   2.147   3.253   8.352  0.2531  0.5020 -0.1266
  158SAPE  H19R17652   2.036   3.252   8.344  0.2173  0.6118  0.3692
  158SAPE  H19S17653   2.174   3.330   8.427 -0.4041  1.0343 -0.4286
  158SAPE  C22017654   2.194   3.115   8.397  0.0891  0.0948 -0.1417
  158SAPE  H20R17655   2.286   3.123   8.459 -0.8072  0.4357  1.1971
  158SAPE  H20S17656   2.212   3.043   8.315 -1.9220 -0.1098 -0.4578
  158SAPE  H20T17657   2.119   3.067   8.464 -0.4740  1.1844  0.0370
  158SAPE   C3317658   2.290   3.888   7.084  0.5049  0.3610 -0.0617
  158SAPE   H3X17659   2.395   3.892   7.049 -0.0180  0.6342 -1.6696
  158SAPE   H3Y17660   2.261   3.781   7.084  0.2181  0.3894 -2.6481
  158SAPE   C3417661   2.290   3.944   7.225 -0.0237 -0.6453 -0.0923
  158SAPE   H4X17662   2.197   3.929   7.284  0.0745  2.8111  1.1867
  158SAPE   H4Y17663   2.300   4.054   7.212  0.0221 -0.9379 -3.4759
  158SAPE   C3517664   2.391   3.873   7.309  0.6491  0.5540 -0.3847
  158SAPE   H5X17665   2.497   3.893   7.283  1.3498 -1.0222  0.9950
  158SAPE   H5Y17666   2.368   3.764   7.299 -1.5332  0.7489  1.5759
  158SAPE   C3617667   2.399   3.903   7.466  0.6820 -0.1639  0.0162
  158SAPE   H6X17668   2.292   3.922   7.489  0.8233  1.5341 -0.6264
  158SAPE   H6Y17669   2.448   4.001   7.482  2.3323 -0.9874  0.1691
  158SAPE   C3717670   2.460   3.788   7.546 -0.3155 -0.6981 -0.0760
  158SAPE   H7X17671   2.403   3.694   7.527 -1.4120 -0.3935  1.5079
  158SAPE   H7Y17672   2.568   3.770   7.528 -0.0871 -0.3201  0.8983
  158SAPE   C3817673   2.444   3.821   7.694 -0.6695  0.1415  0.0764
  158SAPE   H8X17674   2.337   3.843   7.714 -1.1072 -1.4872 -0.3107
  158SAPE   H8Y17675   2.509   3.907   7.718 -1.3042  0.7141 -0.2337
  158SAPE   C3917676   2.471   3.708   7.785 -0.4786 -0.8029  0.7737
  158SAPE   H9X17677   2.580   3.687   7.787 -0.6642 -1.8107  0.6870
  158SAPE   H9Y17678   2.434   3.618   7.732  2.4242 -1.1974 -0.7904
  158SAPE  C31017679   2.414   3.694   7.926 -1.1755 -0.5075 -0.4114
  158SAPE  H10X17680   2.414   3.588   7.960  2.2165 -0.1837  0.9652
  158SAPE  H10Y17681   2.312   3.737   7.916 -0.9528 -0.3213 -2.0878
  158SAPE  C31117682   2.484   3.771   8.042  0.7228  0.3833  0.9476
  158SAPE  H11X17683   2.522   3.870   8.008 -0.7719 -0.3627 -3.4029
  158SAPE  H11Y17684   2.571   3.710   8.074  0.7855  0.8340  1.6873
  158SAPE  C31217685   2.395   3.791   8.170 -0.0646  0.2437  0.0126
  158SAPE  H12X17686   2.307   3.723   8.178  0.4747 -0.3956  0.5927
  158SAPE  H12Y17687   2.351   3.893   8.167  0.0436  0.2626 -2.1463
  158SAPE  C31317688   2.476   3.781   8.299  0.7013 -0.4133  0.5841
  158SAPE  H13X17689   2.534   3.873   8.322  1.8487 -1.3704  1.5975
  158SAPE  H13Y17690   2.545   3.695   8.286  0.5769 -0.3442 -0.6785
  158SAPE  C31417691   2.388   3.746   8.429  0.1034 -0.4744  0.6357
  158SAPE  H14X17692   2.353   3.643   8.405 -2.0243  1.0533 -3.7911
  158SAPE  H14Y17693   2.295   3.806   8.429 -0.4011 -0.7475 -5.0154
  158SAPE  C31517694   2.464   3.773   8.558  0.3151 -0.0555 -0.7733
  158SAPE  H15X17695   2.567   3.736   8.540  0.3390  0.4345 -1.7718
  158SAPE  H15Y17696   2.406   3.722   8.637 -2.5795  1.0618 -2.0212
  158SAPE  C31617697   2.463   3.924   8.590 -0.0492 -0.6901 -0.4724
  158SAPE  H16X17698   2.361   3.967   8.594  0.1167 -0.3445  0.2631
  158SAPE  H16Y17699   2.509   3.982   8.507 -0.4205  0.1789 -0.0855
  158SAPE  C31717700   2.532   3.955   8.722 -0.9772  0.0542  0.3095
  158SAPE  H17X17701   2.632   3.908   8.718  0.1045  2.3046 -2.1397
  158SAPE  H17Y17702   2.468   3.900   8.795 -0.6021 -0.7675  0.0220
  158SAPE  C31817703   2.552   4.107   8.768 -0.6641 -0.4640  0.1640
  158SAPE  H18X17704   2.568   4.117   8.877  0.1350 -0.2534  0.0317
  158SAPE  H18Y17705   2.459   4.161   8.738  0.2056  0.1055 -1.6040
  158SAPE  H18Z17706   2.631   4.158   8.709 -1.4175 -0.3981 -0.8277
  159SAPE     N17707   6.450   6.200   5.997  0.2891  0.1970 -0.1713
  159SAPE   HN117708   6.465   6.123   5.930  1.2201 -0.8929  1.2391
  159SAPE   HN217709   6.389   6.165   6.074  1.1512 -0.0337  0.4125
  159SAPE   HN317710   6.392   6.266   5.941  0.2235 -1.2130 -1.8228
  159SAPE   C1217711   6.563   6.272   6.056 -0.4328 -1.1165 -0.7004
  159SAPE  H12A17712   6.614   6.321   5.970 -0.3298 -0.0511 -0.0535
  159SAPE  H12B17713   6.624   6.199   6.114  0.3663  0.9397  1.2205
  159SAPE   C1117714   6.520   6.383   6.147 -0.4077 -0.3959 -0.0274
  159SAPE  H11A17715   6.605   6.432   6.198  0.7194 -0.0756 -2.0944
  159SAPE  H11B17716   6.461   6.351   6.236 -1.3730  0.1275 -0.4564
  159SAPE     P17717   6.406   6.625   6.105 -0.2724  0.2007 -0.0527
  159SAPE   O1317718   6.530   6.701   6.082  0.2567  0.3521  0.3557
  159SAPE   O1417719   6.287   6.669   6.024 -0.5817  0.0721 -0.2919
  159SAPE   O1217720   6.451   6.477   6.064 -0.1567  0.8054 -0.5837
  159SAPE   O1117721   6.366   6.599   6.255 -0.1721 -0.0410  0.5607
  159SAPE    C117722   6.240   6.531   6.276  0.2236 -0.4359  0.6646
  159SAPE    HA17723   6.158   6.598   6.243 -0.6414  0.0266  3.5074
  159SAPE    HB17724   6.233   6.429   6.231  1.4798 -0.6442  0.9177
  159SAPE    C217725   6.225   6.497   6.426  0.3678 -0.0169 -0.2633
  159SAPE    HS17726   6.128   6.442   6.432 -0.3175  1.1640 -0.1189
  159SAPE   O2117727   6.211   6.613   6.517 -0.2214 -0.7413  0.5080
  159SAPE   C2117728   6.122   6.712   6.486 -0.0408 -0.5163 -0.2048
  159SAPE   O2217729   6.041   6.708   6.393 -0.4903 -0.3442 -0.1539
  159SAPE   C2217730   6.138   6.833   6.579 -0.5163  0.0026 -0.0531
  159SAPE   H2R17731   6.231   6.875   6.536  0.5663 -1.2345  1.0120
  159SAPE   H2S17732   6.059   6.910   6.565 -0.4933 -0.2276 -1.6036
  159SAPE    C317733   6.339   6.403   6.487 -0.0378 -0.3696  0.2561
  159SAPE    HX17734   6.431   6.450   6.445 -1.1299  2.0811  0.4216
  159SAPE    HY17735   6.330   6.304   6.438  1.1895 -1.1590  1.5755
  159SAPE   O3117736   6.333   6.398   6.633 -0.7216  0.8905 -0.1666
  159SAPE   C3117737   6.243   6.318   6.688 -0.7822  0.2532 -0.5233
  159SAPE   O3217738   6.152   6.256   6.635 -0.1157 -0.1755 -0.6644
  159SAPE   C3217739   6.266   6.333   6.833 -0.0963  0.3902 -0.2112
  159SAPE   H2X17740   6.289   6.437   6.866 -0.5621  0.0297  1.3561
  159SAPE   H2Y17741   6.339   6.254   6.862  2.0062  2.5559  0.7879
  159SAPE   C2317742   6.171   6.808   6.726  0.5053  0.4438  0.5201
  159SAPE   H3R17743   6.229   6.895   6.763 -0.4667  0.9290  0.9233
  159SAPE   H3S17744   6.242   6.723   6.728  2.5110  2.0313 -0.1044
  159SAPE   C2417745   6.058   6.752   6.816  0.0702 -0.4008  0.0063
  159SAPE   H4R17746   6.004   6.665   6.772 -1.2550 -0.2418  1.2058
  159SAPE   H4S17747   5.980   6.831   6.821  0.4419  0.0392 -1.0624
  159SAPE   C2517748   6.121   6.702   6.944  0.0078  0.2141  0.0584
  159SAPE   H5R17749   6.178   6.611   6.923 -0.7883 -0.1843 -0.4418
  159SAPE   C2617750   6.109   6.745   7.067 -0.1258 -0.4541 -0.2528
  159SAPE   H6R17751   6.168   6.702   7.150 -0.5795 -0.4709  0.0610
  159SAPE   C2717752   6.028   6.868   7.101 -0.6184  0.2699 -0.7080
  159SAPE   H7R17753   5.921   6.839   7.104 -0.2357 -1.1751 -0.7336
  159SAPE   H7S17754   6.049   6.940   7.019 -3.5042 -0.2017 -1.9853
  159SAPE   C2817755   6.067   6.928   7.241  0.8047  0.0393 -0.1089
  159SAPE   H8R17756   6.167   6.973   7.246  0.3987  0.9098  0.3630
  159SAPE   C2917757   5.990   6.916   7.357  0.0410  0.2499 -0.2229
  159SAPE   H9R17758   6.015   6.980   7.443 -1.5670  0.8100 -0.1312
  159SAPE  C21017759   5.853   6.853   7.375 -0.4390  0.5186  0.4473
  159SAPE  H10R17760   5.801   6.879   7.281 -0.4126  1.3978  0.6683
  159SAPE  H10S17761   5.794   6.890   7.461  0.7973 -0.7587  1.9244
  159SAPE  C21117762   5.878   6.707   7.384  0.6107 -0.4132  0.4348
  159SAPE  H11R17763   5.848   6.645   7.299 -3.1259 -0.6576  1.7178
  159SAPE  C21217764   5.915   6.644   7.496  0.1421  0.9714 -0.1150
  159SAPE  H12R17765   5.920   6.534   7.490  1.3030  1.0468 -1.0161
  159SAPE  C21317766   5.943   6.707   7.629 -0.2240 -0.2804 -0.2660
  159SAPE  H13R17767   5.852   6.690   7.690  0.1600 -1.1412  0.0901
  159SAPE  H13S17768   5.968   6.815   7.619  0.2224 -0.3448  0.0712
  159SAPE  C21417769   6.057   6.634   7.708  0.4439 -0.7207  0.7623
  159SAPE  H14R17770   6.134   6.595   7.640  1.5968  1.9333  0.4198
  159SAPE  C21517771   6.077   6.630   7.839  0.5452 -0.1829 -0.1334
  159SAPE  H15R17772   6.144   6.553   7.879  0.3216 -0.2916  0.0350
  159SAPE  C21617773   5.987   6.696   7.939  0.4539 -0.1925 -0.1170
  159SAPE  H16R17774   5.884   6.698   7.895  0.2001  2.0392  0.4291
  159SAPE  H16S17775   6.023   6.800   7.956  0.1412 -0.3955  2.0075
  159SAPE  C21717776   5.974   6.623   8.073 -0.4853  0.4839  0.7821
  159SAPE  H17R17777   6.079   6.597   8.098 -0.3885 -1.2326 -1.1289
  159SAPE  H17S17778   5.929   6.526   8.042  1.6280  0.0382 -1.1928
  159SAPE  C21817779   5.904   6.704   8.184  0.6049  0.5263 -0.4408
  159SAPE  H18R17780   5.812   6.749   8.142  0.0930 -0.1706 -0.0822
  159SAPE  H18S17781   5.971   6.789   8.210  1.6519 -0.9655  2.1406
  159SAPE  C21917782   5.861   6.615   8.304  0.0138 -0.9196 -0.1673
  159SAPE  H19R17783   5.783   6.542   8.274 -1.1884  0.5110 -0.6959
  159SAPE  H19S17784   5.816   6.683   8.380  1.4551  1.7359 -1.5150
  159SAPE  C22017785   5.977   6.546   8.369 -0.2008 -0.1041  0.3141
  159SAPE  H20R17786   5.956   6.487   8.460  1.0570  0.2192  0.8410
  159SAPE  H20S17787   6.054   6.621   8.400 -1.3430  1.0302  0.5136
  159SAPE  H20T17788   6.015   6.468   8.299  1.0588 -1.9037  2.8460
  159SAPE   C3317789   6.138   6.297   6.920 -0.4593  0.0734 -0.8664
  159SAPE   H3X17790   6.101   6.197   6.891  2.9326 -2.4382  2.5485
  159SAPE   H3Y17791   6.065   6.376   6.891  0.9234  0.8758 -2.4030
  159SAPE   C3417792   6.179   6.303   7.065  0.6686 -0.0721  0.0030
  159SAPE   H4X17793   6.248   6.387   7.085  0.1981  0.1456  0.7247
  159SAPE   H4Y17794   6.232   6.210   7.097 -0.4687 -0.6506  0.2666
  159SAPE   C3517795   6.053   6.332   7.154 -0.2087  0.0267 -0.5005
  159SAPE   H5X17796   5.990   6.241   7.139  0.5798 -0.2208 -2.6085
  159SAPE   H5Y17797   5.990   6.421   7.132 -0.3085 -0.2181 -1.2113
  159SAPE   C3617798   6.096   6.334   7.304  1.3121 -0.9545  0.4274
  159SAPE   H6X17799   6.129   6.438   7.323  0.7627 -0.6818 -0.0775
  159SAPE   H6Y17800   6.187   6.271   7.302  0.8575 -1.6321  0.5044
  159SAPE   C3717801   6.010   6.260   7.403 -0.1489  0.6749  1.1859
  159SAPE   H7X17802   5.987   6.158   7.364 -1.0005  1.9131 -1.8685
  159SAPE   H7Y17803   5.910   6.304   7.423 -1.3236 -0.9742 -0.6693
  159SAPE   C3817804   6.096   6.260   7.530 -0.7523 -0.4784  0.0957
  159SAPE   H8X17805   6.113   6.365   7.562  0.4205 -0.5110 -0.3797
  159SAPE   H8Y17806   6.195   6.210   7.517 -0.5162 -0.4089  1.4640
  159SAPE   C3917807   6.015   6.209   7.647 -0.4088  0.2392 -0.6660
  159SAPE   H9X17808   5.984   6.103   7.638  1.2139 -0.3564  0.3320
  159SAPE   H9Y17809   5.923   6.271   7.654 -0.0190  0.6523  1.8811
  159SAPE  C31017810   6.090   6.213   7.781  0.4036  0.6176 -0.1122
  159SAPE  H10X17811   6.139   6.310   7.806 -0.7571  1.1749  0.0743
  159SAPE  H10Y17812   6.161   6.128   7.769 -1.0025 -0.6718  0.3929
  159SAPE  C31117813   5.992   6.179   7.893  0.3351 -0.1572 -0.2760
  159SAPE  H11X17814   5.922   6.096   7.870  2.3256 -1.5820 -1.4862
  159SAPE  H11Y17815   5.924   6.267   7.899 -1.1046 -1.2343 -0.3838
  159SAPE  C31217816   6.061   6.155   8.024 -0.9510 -0.7221 -0.0235
  159SAPE  H12X17817   5.988   6.161   8.107 -2.1319 -1.1175 -1.0015
  159SAPE  H12Y17818   6.125   6.245   8.039 -2.0593  0.5792 -2.5001
  159SAPE  C31317819   6.147   6.029   8.022  0.5190  0.3912  0.2945
  159SAPE  H13X17820   6.227   6.040   7.945  0.9621  2.2664  0.9433
  159SAPE  H13Y17821   6.090   5.946   7.977  0.8742  0.3729 -0.1379
  159SAPE  C31417822   6.210   5.983   8.152  0.1895  0.6105 -0.0068
  159SAPE  H14X17823   6.254   6.059   8.220  0.9939 -0.0756  0.2648
  159SAPE  H14Y17824   6.302   5.923   8.132 -0.1643 -1.2175  3.2183
  159SAPE  C31517825   6.112   5.884   8.220  0.0710 -0.5067  0.1259
  159SAPE  H15X17826   6.092   5.811   8.138  0.1952 -1.7929  1.2018
  159SAPE  H15Y17827   6.011   5.916   8.254 -0.2906 -1.4580 -0.0282
  159SAPE  C31617828   6.176   5.797   8.336 -0.4139  0.1733 -0.0508
  159SAPE  H16X17829   6.094   5.752   8.396 -0.2309  1.5631  1.2823
  159SAPE  H16Y17830   6.229   5.866   8.405  0.0023  0.6945 -0.8682
  159SAPE  C31717831   6.268   5.688   8.301 -0.0877 -0.2008  0.6377
  159SAPE  H17X17832   6.352   5.734   8.245 -0.8612  1.5148  0.8094
  159SAPE  H17Y17833   6.217   5.614   8.237 -0.7435 -0.8750  1.9009
  159SAPE  C31817834   6.326   5.606   8.418 -0.8011 -0.1618  0.1574
  159SAPE  H18X17835   6.249   5.550   8.476 -1.7714 -0.3472 -1.2707
  159SAPE  H18Y17836   6.364   5.683   8.488  0.3788 -0.3569 -0.2419
  159SAPE  H18Z17837   6.411   5.543   8.383 -0.4006  0.1753  0.5081
  160SAPE     N17838   2.601   2.582   6.142  0.0279 -0.1062  0.0217
  160SAPE   HN117839   2.516   2.642   6.147  0.9661  1.2194  0.6989
  160SAPE   HN217840   2.668   2.618   6.071 -0.2838  0.1012 -0.1734
  160SAPE   HN317841   2.561   2.489   6.120 -1.3624  0.4326  0.1294
  160SAPE   C1217842   2.661   2.577   6.278 -0.1779 -0.1389  0.1294
  160SAPE  H12A17843   2.766   2.540   6.268  0.5386  1.4905  1.1809
  160SAPE  H12B17844   2.596   2.508   6.336  0.3377  0.5433  1.5758
  160SAPE   C1117845   2.640   2.713   6.348  0.3736  0.5514  0.0346
  160SAPE  H11A17846   2.674   2.791   6.277 -0.7783 -0.2909 -1.5268
  160SAPE  H11B17847   2.692   2.708   6.445 -0.0941 -2.1765  0.2102
  160SAPE     P17848   2.432   2.857   6.424 -0.2731  0.3448 -0.1310
  160SAPE   O1317849   2.507   2.976   6.377  0.0884 -0.3536 -0.4480
  160SAPE   O1417850   2.280   2.856   6.411  0.4609  0.7137 -0.0310
  160SAPE   O1217851   2.500   2.733   6.361 -0.1587 -0.5962  0.1150
  160SAPE   O1117852   2.466   2.830   6.577 -0.3189 -0.5031 -0.1704
  160SAPE    C117853   2.439   2.703   6.638  0.0761 -0.3243  0.2071
  160SAPE    HA17854   2.329   2.695   6.640 -0.0616  0.7239 -1.5992
  160SAPE    HB17855   2.467   2.616   6.574  1.2865  1.7223 -2.2291
  160SAPE    C217856   2.509   2.692   6.784  0.7725 -0.0634  0.6848
  160SAPE    HS17857   2.489   2.597   6.836 -0.1838 -1.2595 -1.6985
  160SAPE   O2117858   2.471   2.810   6.858 -0.5405  0.6257 -0.8027
  160SAPE   C2117859   2.350   2.798   6.923 -0.8056 -0.1102 -0.6415
  160SAPE   O2217860   2.291   2.691   6.931 -0.3234 -0.5426 -0.2368
  160SAPE   C2217861   2.330   2.924   7.005  0.3877 -0.0441 -0.6101
  160SAPE   H2R17862   2.399   2.922   7.093  0.1536  0.7673 -0.3964
  160SAPE   H2S17863   2.376   3.014   6.959  0.4699  1.1968  1.7397
  160SAPE    C317864   2.660   2.696   6.752 -0.6405 -0.2606  0.2583
  160SAPE    HX17865   2.677   2.761   6.663 -1.9098 -2.2241 -1.5066
  160SAPE    HY17866   2.683   2.591   6.725 -0.3221 -0.2345  0.4275
  160SAPE   O3117867   2.737   2.729   6.872  0.3966  0.3503 -0.1118
  160SAPE   C3117868   2.820   2.832   6.862  0.0657 -0.0476 -0.2690
  160SAPE   O3217869   2.841   2.893   6.761 -0.6391 -0.2861 -0.4699
  160SAPE   C3217870   2.881   2.856   6.999 -0.0682 -0.7154  0.3502
  160SAPE   H2X17871   2.985   2.888   6.974  0.2611 -3.2191 -1.8931
  160SAPE   H2Y17872   2.882   2.765   7.062  0.6837 -1.9917 -1.4472
  160SAPE   C2317873   2.180   2.960   7.039 -0.3155 -0.2204  0.3463
  160SAPE   H3R17874   2.118   2.877   7.078 -1.1758 -0.6424 -1.7779
  160SAPE   H3S17875   2.143   2.958   6.934 -1.9660 -0.9155  0.9047
  160SAPE   C2417876   2.160   3.098   7.102 -0.0389 -0.4444  0.9643
  160SAPE   H4R17877   2.050   3.116   7.092  0.2508  0.3713 -1.6985
  160SAPE   H4S17878   2.205   3.175   7.036 -1.9405  0.5589  0.7529
  160SAPE   C2517879   2.205   3.098   7.241  0.0416 -0.6016  0.0382
  160SAPE   H5R17880   2.313   3.112   7.256 -0.1187 -0.0762  0.7332
  160SAPE   C2617881   2.130   3.095   7.347  0.6701 -0.4729 -0.2721
  160SAPE   H6R17882   2.171   3.101   7.448  1.1814 -0.9976 -0.4433
  160SAPE   C2717883   1.984   3.074   7.343  0.0549  0.0197  0.1412
  160SAPE   H7R17884   1.955   2.998   7.268  1.3521 -0.9115  0.5460
  160SAPE   H7S17885   1.941   3.170   7.305  1.2104  0.2780 -0.5744
  160SAPE   C2817886   1.920   3.045   7.474 -0.1081  0.4186 -0.0017
  160SAPE   H8R17887   1.950   2.950   7.519 -1.1835  0.9874  2.0210
  160SAPE   C2917888   1.836   3.118   7.548  0.5764  0.6613  0.4708
  160SAPE   H9R17889   1.804   3.087   7.648 -0.5645 -2.1834 -0.6757
  160SAPE  C21017890   1.798   3.258   7.518  0.4961 -0.2168  0.9565
  160SAPE  H10R17891   1.884   3.325   7.503  0.7283 -1.0270 -2.2761
  160SAPE  H10S17892   1.746   3.299   7.607 -2.6863 -0.0237 -0.8166
  160SAPE  C21117893   1.703   3.263   7.400 -0.3046 -0.4236 -0.9678
  160SAPE  H11R17894   1.730   3.192   7.321 -0.1894 -1.2790 -0.1778
  160SAPE  C21217895   1.606   3.352   7.373  0.5996 -0.9429  0.0903
  160SAPE  H12R17896   1.556   3.350   7.275  1.9998  0.6795 -0.7155
  160SAPE  C21317897   1.560   3.467   7.460  0.0818  0.3717  0.6878
  160SAPE  H13R17898   1.542   3.420   7.559  0.4680 -1.0209  0.1306
  160SAPE  H13S17899   1.465   3.503   7.416  0.9126  1.4460 -0.2663
  160SAPE  C21417900   1.666   3.574   7.466 -0.5464 -0.6773  0.0239
  160SAPE  H14R17901   1.760   3.541   7.418  0.2158 -0.2337  1.1890
  160SAPE  C21517902   1.668   3.703   7.528 -0.1003  0.2962  0.4374
  160SAPE  H15R17903   1.749   3.772   7.501  0.5921 -1.0810 -1.2125
  160SAPE  C21617904   1.554   3.772   7.597  0.2850  0.5556  0.3945
  160SAPE  H16R17905   1.456   3.719   7.590  0.0064  1.2772 -2.1696
  160SAPE  H16S17906   1.526   3.864   7.540 -0.9823  1.3882  2.2741
  160SAPE  C21717907   1.586   3.811   7.741  0.0599 -0.3247  0.5724
  160SAPE  H17R17908   1.695   3.827   7.757  0.0986  0.4111 -0.3047
  160SAPE  H17S17909   1.542   3.732   7.806 -0.4983  1.7535  2.8613
  160SAPE  C21817910   1.508   3.934   7.785  0.0760 -0.4331  0.8368
  160SAPE  H18R17911   1.402   3.917   7.754  0.0659  0.8057  0.1233
  160SAPE  H18S17912   1.528   4.025   7.725 -1.9255 -0.9369 -0.7635
  160SAPE  C21917913   1.509   3.978   7.933  0.4669  0.6238  0.1413
  160SAPE  H19R17914   1.617   3.989   7.959  0.7226 -3.6996  1.7345
  160SAPE  H19S17915   1.472   3.892   7.992  1.8441 -0.0807  0.0359
  160SAPE  C22017916   1.421   4.092   7.977  0.2035 -0.2038 -0.1285
  160SAPE  H20R17917   1.314   4.064   7.979 -0.2629  1.4822  0.2691
  160SAPE  H20S17918   1.436   4.178   7.908 -1.7645 -0.2824 -0.7037
  160SAPE  H20T17919   1.453   4.127   8.078 -1.8392  1.4733  0.0039
  160SAPE   C3317920   2.833   2.988   7.073  0.1869 -1.0123  0.8872
  160SAPE   H3X17921   2.739   2.981   7.132 -0.0735 -1.5415  0.4186
  160SAPE   H3Y17922   2.812   3.059   6.990  0.0369 -1.5730  0.4384
  160SAPE   C3417923   2.943   3.041   7.157 -0.2958  0.2405 -0.3993
  160SAPE   H4X17924   3.039   3.056   7.105 -0.1134 -0.0196 -0.1415
  160SAPE   H4Y17925   2.953   2.961   7.234 -2.0203 -0.4170 -0.7956
  160SAPE   C3517926   2.915   3.170   7.233 -0.0481 -0.8570 -0.2476
  160SAPE   H5X17927   2.823   3.152   7.292  0.3599 -1.3248  0.2580
  160SAPE   H5Y17928   2.893   3.244   7.153 -0.6176 -0.4874  0.2484
  160SAPE   C3617929   3.034   3.222   7.320 -0.3403  0.2170  0.2029
  160SAPE   H6X17930   2.989   3.314   7.365 -0.1348  0.9019 -0.9630
  160SAPE   H6Y17931   3.115   3.241   7.247 -0.3911  3.8642  0.9212
  160SAPE   C3717932   3.083   3.136   7.435  0.6279 -0.3507 -0.0658
  160SAPE   H7X17933   3.116   3.041   7.388 -0.0736 -0.5959 -0.0748
  160SAPE   H7Y17934   2.995   3.116   7.501  2.7286  2.3045  3.9261
  160SAPE   C3817935   3.185   3.224   7.511  0.0974  0.0522  0.0055
  160SAPE   H8X17936   3.135   3.318   7.541  1.2775  0.8046 -0.3306
  160SAPE   H8Y17937   3.258   3.253   7.433  0.5667  0.3704  0.5546
  160SAPE   C3917938   3.245   3.162   7.632 -0.1342 -0.4001  0.2077
  160SAPE   H9X17939   3.328   3.222   7.675  1.0552 -2.8671  1.6036
  160SAPE   H9Y17940   3.292   3.067   7.600  1.3832  0.6939 -0.9474
  160SAPE  C31017941   3.150   3.133   7.743  0.0379 -0.8661 -0.2968
  160SAPE  H10X17942   3.084   3.050   7.709  2.8282 -2.2903 -2.5913
  160SAPE  H10Y17943   3.082   3.217   7.770 -1.0424 -1.7261 -0.2730
  160SAPE  C31117944   3.230   3.090   7.865  0.4662 -0.4165 -0.0702
  160SAPE  H11X17945   3.283   3.182   7.897  3.4401 -2.0230 -0.0897
  160SAPE  H11Y17946   3.308   3.018   7.835 -1.1965 -1.8466 -1.1616
  160SAPE  C31217947   3.141   3.040   7.984  0.4165 -1.0414 -0.4605
  160SAPE  H12X17948   3.208   3.016   8.069  1.2962 -0.1265 -0.8851
  160SAPE  H12Y17949   3.089   2.948   7.946  0.4756 -1.2214 -0.1055
  160SAPE  C31317950   3.033   3.136   8.040 -0.7347  0.6261 -0.4567
  160SAPE  H13X17951   2.974   3.185   7.959 -0.5019 -0.2725 -1.1819
  160SAPE  H13Y17952   3.085   3.224   8.083  0.9318 -0.1745 -0.7607
  160SAPE  C31417953   2.929   3.070   8.130 -0.1813  0.3593 -0.6842
  160SAPE  H14X17954   2.882   3.152   8.188  0.4113  0.0653  0.2257
  160SAPE  H14Y17955   2.971   2.989   8.194 -0.8809 -0.3457 -1.0984
  160SAPE  C31517956   2.805   3.013   8.055 -0.0718 -0.6705  0.1070
  160SAPE  H15X17957   2.847   2.937   7.986  2.1431 -0.4027  1.0867
  160SAPE  H15Y17958   2.759   3.090   7.989  0.1898  0.1330  0.8587
  160SAPE  C31617959   2.695   2.952   8.150  0.2383 -0.3434  0.0535
  160SAPE  H16X17960   2.611   2.907   8.092 -1.0976 -0.7716  2.2311
  160SAPE  H16Y17961   2.639   3.022   8.215 -4.0221 -1.5812 -1.9368
  160SAPE  C31717962   2.750   2.828   8.227 -0.1607  0.0451 -0.5566
  160SAPE  H17X17963   2.810   2.860   8.315 -1.8219 -1.9629  1.4254
  160SAPE  H17Y17964   2.815   2.767   8.160  2.1220  2.0452 -0.3233
  160SAPE  C31817965   2.641   2.727   8.268 -0.4586 -0.2206  0.2615
  160SAPE  H18X17966   2.579   2.692   8.182  0.4372 -1.3435  0.0435
  160SAPE  H18Y17967   2.561   2.774   8.329 -0.6537  0.3543 -0.4244
  160SAPE  H18Z17968   2.680   2.634   8.314 -0.5923 -0.8472 -0.8444
  161SOPE     N17969   3.811   0.612  10.650 -0.8511  0.2824  0.6360
  161SOPE   HN117970   3.874   0.691  10.627 -0.0979 -0.1671  1.0895
  161SOPE   HN217971   3.859   0.534  10.600 -0.0691  0.9853  0.2741
  161SOPE   HN317972   3.720   0.641  10.610  0.0150 -0.0675 -1.7385
  161SOPE   C1217973   3.805   0.577  10.786  0.2003  0.0977 -0.4610
  161SOPE  H12A17974   3.721   0.509  10.807  0.0785  0.6911  1.1073
  161SOPE  H12B17975   3.794   0.675  10.838  0.1064 -1.2130  2.1211
  161SOPE   C1117976   3.932   0.508  10.838  0.6709  0.0319  0.0858
  161SOPE  H11A17977   3.929   0.409  10.789 -1.6985 -0.6360  1.3903
  161SOPE  H11B17978   3.947   0.481  10.945  0.0361  0.6554  0.3419
  161SOPE     P17979   4.193   0.514  10.778 -0.0469 -0.1552 -0.0291
  161SOPE   O1317980   4.255   0.495  10.914  0.0178 -0.1927 -0.4419
  161SOPE   O1417981   4.273   0.592  10.681 -0.0898  0.1913  0.1695
  161SOPE   O1217982   4.044   0.575  10.791 -0.4088 -0.1957  0.6913
  161SOPE   O1117983   4.180   0.370  10.713  0.3905 -0.1316 -0.0831
  161SOPE    C117984   4.261   0.320  10.605  0.9451  0.1137  0.8823
  161SOPE    HA17985   4.287   0.212  10.618  0.3021 -0.2781 -0.7752
  161SOPE    HB17986   4.361   0.367  10.602  0.9878  0.0098  0.6077
  161SOPE    C217987   4.197   0.330  10.467 -0.2106  0.3733  0.3483
  161SOPE    HS17988   4.155   0.430  10.444  1.0236  0.8094 -0.0885
  161SOPE   O2117989   4.095   0.232  10.449  0.2837 -0.0480 -0.8731
  161SOPE   C2117990   3.971   0.269  10.474 -0.0133 -0.9539  0.8142
  161SOPE   O2217991   3.933   0.378  10.512 -0.1441 -0.5548  0.8556
  161SOPE   C2217992   3.875   0.153  10.438 -0.8920 -0.3080  0.5659
  161SOPE   H2R17993   3.768   0.184  10.443 -0.3565  1.5575  1.5043
  161SOPE   H2S17994   3.875   0.085  10.526 -0.1994 -0.4405  0.4710
  161SOPE    C317995   4.310   0.307  10.360 -0.5931  0.0945  0.3677
  161SOPE    HX17996   4.345   0.201  10.354 -0.9499  0.0217 -0.9799
  161SOPE    HY17997   4.401   0.360  10.393  0.9441 -2.2319  0.1494
  161SOPE   O3117998   4.255   0.346  10.234 -0.0697 -0.0521  0.4869
  161SOPE   C3117999   4.321   0.294  10.134 -0.1763  0.3359 -0.4738
  161SOPE   O3218000   4.425   0.230  10.144  0.6964  0.4507  0.0485
  161SOPE   C3218001   4.239   0.320  10.014 -0.3126  0.3519 -0.6791
  161SOPE   H2X18002   4.191   0.420  10.022  3.0627  1.9901  1.1989
  161SOPE   H2Y18003   4.152   0.251  10.014 -0.4059  0.4566  0.2049
  161SOPE   C2318004   3.914   0.076  10.315  0.5922 -0.5341 -0.2256
  161SOPE   H3R18005   3.885  -0.030  10.332 -1.5750 -0.0688 -0.7883
  161SOPE   H3S18006   4.023   0.069  10.296  0.6791 -0.2029  0.1353
  161SOPE   C2418007   3.835   0.114  10.199 -0.7210  0.5268  0.3448
  161SOPE   H4R18008   3.734   0.067  10.196  0.0253 -1.1315 -2.5082
  161SOPE   H4S18009   3.822   0.223  10.183 -1.7389  1.0799  3.9684
  161SOPE   C2518010   3.900   0.031  10.084  1.5925  0.2928  0.7417
  161SOPE   H5R18011   4.001   0.076  10.070  1.6247 -0.2160 -0.7612
  161SOPE   H5S18012   3.912  -0.070  10.127  1.0537 -0.6839 -1.2708
  161SOPE   C2618013   3.817   0.022   9.954 -0.1176  0.5522 -0.0556
  161SOPE   H6R18014   3.882  -0.050   9.898 -1.5159  0.2059 -1.2960
  161SOPE   H6S18015   3.713  -0.007   9.981 -0.2597  2.1426  1.2664
  161SOPE   C2718016   3.817   0.149   9.857  0.2385  0.4968 -0.2859
  161SOPE   H7R18017   3.787   0.238   9.916  3.2638 -0.2795  2.7151
  161SOPE   H7S18018   3.923   0.156   9.825  0.3937  0.0321  0.1111
  161SOPE   C2818019   3.720   0.138   9.736 -0.0382  0.7493 -0.3708
  161SOPE   H8R18020   3.616   0.128   9.775  0.5825  1.1794  1.4750
  161SOPE   H8S18021   3.709   0.226   9.669 -1.2831 -0.1869 -1.4491
  161SOPE   C2918022   3.748   0.005   9.666  0.6964  1.0033  0.5467
  161SOPE   H9118023   3.732  -0.088   9.723  1.4409  0.1330 -0.6045
  161SOPE  C21018024   3.781  -0.008   9.536 -0.3184 -0.0108  0.2049
  161SOPE  H10118025   3.810  -0.103   9.488 -1.7505 -1.9583  2.9375
  161SOPE  C21118026   3.805   0.114   9.442  0.0429 -0.0482 -1.2727
  161SOPE  H11R18027   3.895   0.087   9.382  0.1414 -3.3010  0.1088
  161SOPE  H11S18028   3.850   0.197   9.501 -0.7498  0.5032 -1.4307
  161SOPE  C21218029   3.690   0.157   9.357 -0.1311  0.4007 -0.1292
  161SOPE  H12R18030   3.596   0.176   9.413  0.2350  0.3840  0.5074
  161SOPE  H12S18031   3.660   0.073   9.290  0.6641  0.7053 -0.8932
  161SOPE  C21318032   3.726   0.271   9.260  0.1799  0.9566  0.4976
  161SOPE  H13R18033   3.653   0.275   9.177 -2.6678 -0.1822  2.7809
  161SOPE  H13S18034   3.825   0.245   9.217 -0.5624 -2.4486  0.5504
  161SOPE  C21418035   3.728   0.417   9.309 -0.1974 -0.1229  0.2656
  161SOPE  H14R18036   3.811   0.433   9.381  0.6866 -1.4054 -0.4118
  161SOPE  H14S18037   3.632   0.447   9.358 -0.7383 -1.2176 -0.0849
  161SOPE  C21518038   3.728   0.513   9.186  0.2148 -0.2463  0.0274
  161SOPE  H15R18039   3.679   0.607   9.218  1.0777 -0.3918  1.9109
  161SOPE  H15S18040   3.684   0.464   9.097  0.2912  1.3355 -0.9230
  161SOPE  C21618041   3.864   0.561   9.145 -0.4819 -0.1284  0.5639
  161SOPE  H16R18042   3.934   0.476   9.130 -1.3369 -0.9517  1.1367
  161SOPE  H16S18043   3.909   0.619   9.228  1.0441  1.0199 -1.0014
  161SOPE  C21718044   3.863   0.648   9.021 -0.2966  0.2275 -0.6720
  161SOPE  H17R18045   3.939   0.729   9.027  0.4658 -0.4712 -0.8087
  161SOPE  H17S18046   3.765   0.701   9.020 -0.4083  0.0232 -1.0433
  161SOPE  C21818047   3.898   0.581   8.891 -0.3026  0.9383 -0.0603
  161SOPE  H18R18048   3.860   0.646   8.809 -1.5661  1.2166  0.7055
  161SOPE  H18S18049   3.848   0.482   8.883  0.7133  0.5014 -1.3119
  161SOPE  H18T18050   4.007   0.569   8.874 -0.3821  2.6728 -2.2370
  161SOPE   C3318051   4.321   0.323   9.877 -0.1707 -0.9712  0.3179
  161SOPE   H3X18052   4.399   0.244   9.883  0.5408 -0.3245 -0.3099
  161SOPE   H3Y18053   4.371   0.422   9.868  0.6016 -1.5260 -2.3077
  161SOPE   C3418054   4.228   0.313   9.755  0.6201 -0.3157  0.0572
  161SOPE   H4X18055   4.170   0.405   9.733  1.5856  0.2436 -0.2112
  161SOPE   H4Y18056   4.149   0.236   9.760  0.4384 -0.1667 -0.4619
  161SOPE   C3518057   4.308   0.279   9.622  0.1214  0.2393  0.0554
  161SOPE   H5X18058   4.373   0.190   9.633  0.5486  0.5987  0.4283
  161SOPE   H5Y18059   4.363   0.372   9.600 -1.4244  1.1630 -0.0801
  161SOPE   C3618060   4.219   0.245   9.497 -0.2365  0.0569 -1.2499
  161SOPE   H6X18061   4.135   0.315   9.515 -0.1124 -0.2051  0.5672
  161SOPE   H6Y18062   4.182   0.140   9.501 -0.0452  0.0022 -0.7325
  161SOPE   C3718063   4.283   0.270   9.364 -0.0841 -0.0213  0.3886
  161SOPE   H7X18064   4.377   0.212   9.350  0.8327  0.7214  2.8990
  161SOPE   H7Y18065   4.322   0.374   9.374  1.9228 -0.6291 -0.6192
  161SOPE   C3818066   4.187   0.254   9.249  0.2963 -0.5834  0.4601
  161SOPE   H8X18067   4.128   0.348   9.250 -2.1798 -2.0575  1.7501
  161SOPE   H8Y18068   4.110   0.180   9.277 -1.2492  1.0722  0.7768
  161SOPE   C3918069   4.257   0.224   9.114  0.3743  1.1055  0.2407
  161SOPE   H9X18070   4.180   0.249   9.039 -1.7485 -1.4845  1.3892
  161SOPE   H9Y18071   4.276   0.115   9.112 -0.9796  0.8541  0.4472
  161SOPE  C31018072   4.383   0.311   9.089  0.3585  0.0041 -0.6250
  161SOPE  H10X18073   4.459   0.281   9.165 -1.5255  0.8483  1.7214
  161SOPE  H10Y18074   4.364   0.419   9.108 -0.5402 -0.1600 -0.5691
  161SOPE  C31118075   4.439   0.292   8.947  0.4230  0.1391  0.2159
  161SOPE  H11X18076   4.372   0.350   8.880  0.0591  1.7497  1.9021
  161SOPE  H11Y18077   4.420   0.185   8.924 -1.2709  0.5101 -0.2717
  161SOPE  C31218078   4.581   0.341   8.927 -0.8521 -0.8627 -0.4987
  161SOPE  H12X18079   4.623   0.304   8.831 -0.4806 -1.3620 -0.1571
  161SOPE  H12Y18080   4.648   0.298   9.004  0.4245  1.4115 -0.2590
  161SOPE  C31318081   4.610   0.490   8.932 -0.4954  0.1642  0.5254
  161SOPE  H13X18082   4.591   0.530   9.034  1.4548 -2.0303  1.8542
  161SOPE  H13Y18083   4.540   0.546   8.866  2.1396  0.0168 -2.6262
  161SOPE  C31418084   4.754   0.526   8.887  0.1758 -0.1061 -0.5301
  161SOPE  H14X18085   4.779   0.474   8.793  1.7968 -1.0608  0.3733
  161SOPE  H14Y18086   4.820   0.484   8.966  0.3660 -0.4477 -0.8742
  161SOPE  C31518087   4.773   0.670   8.863 -0.6587 -0.1092 -0.1930
  161SOPE  H15X18088   4.771   0.731   8.956  1.2413  1.5740 -1.1767
  161SOPE  H15Y18089   4.683   0.701   8.805  0.2867  1.4242 -0.8989
  161SOPE  C31618090   4.894   0.712   8.777  0.3427 -0.2111 -0.9542
  161SOPE  H16X18091   4.895   0.822   8.764  3.1071  0.2769  2.0417
  161SOPE  H16Y18092   4.879   0.666   8.677 -1.8626 -1.2180 -0.2250
  161SOPE  C31718093   5.039   0.679   8.835  0.4768 -0.4557  0.2314
  161SOPE  H17X18094   5.031   0.578   8.881 -0.1056 -0.3837  0.2888
  161SOPE  H17Y18095   5.063   0.753   8.914 -1.8129  3.0017 -2.0464
  161SOPE  C31818096   5.153   0.675   8.720  0.6429 -0.3568 -0.0458
  161SOPE  H18X18097   5.158   0.585   8.655 -0.4953  1.3177 -2.6178
  161SOPE  H18Y18098   5.253   0.693   8.765  0.1305  4.7421 -0.3974
  161SOPE  H18Z18099   5.142   0.755   8.645  0.0213 -2.3279 -2.1655
  162SOPE     N18100   2.089   6.412  11.093  0.0099 -0.4936  0.8062
  162SOPE   HN118101   1.987   6.405  11.107 -0.0639 -0.0115  0.5193
  162SOPE   HN218102   2.114   6.460  11.004  2.6106 -1.3965  0.9722
  162SOPE   HN318103   2.126   6.315  11.087 -0.8401 -0.7940  0.3332
  162SOPE   C1218104   2.147   6.493  11.201 -0.1303 -0.0582  0.4808
  162SOPE  H12A18105   2.110   6.440  11.291  0.2825 -2.0611 -0.4691
  162SOPE  H12B18106   2.089   6.588  11.202 -0.7739 -0.4279 -0.3922
  162SOPE   C1118107   2.299   6.499  11.180  0.7077  0.4467  0.4245
  162SOPE  H11A18108   2.341   6.396  11.177 -1.3505 -0.4851  1.4374
  162SOPE  H11B18109   2.336   6.542  11.276  0.8387 -1.8760  1.4950
  162SOPE     P18110   2.490   6.596  11.028  0.1885  0.0338 -0.2733
  162SOPE   O1318111   2.571   6.501  11.106  0.0456 -0.2858  0.7791
  162SOPE   O1418112   2.531   6.737  11.024  0.5627  0.0091 -0.0503
  162SOPE   O1218113   2.332   6.583  11.065  0.3080 -0.1874  0.1318
  162SOPE   O1118114   2.477   6.536  10.875 -0.2834 -0.5143  0.4263
  162SOPE    C118115   2.346   6.496  10.827 -0.5497 -0.2502 -0.6499
  162SOPE    HA18116   2.271   6.578  10.824 -3.5166 -2.8038 -1.6555
  162SOPE    HB18117   2.310   6.421  10.901  0.0138  1.2402  1.2062
  162SOPE    C218118   2.363   6.434  10.686 -0.2429  0.2201  0.1636
  162SOPE    HS18119   2.426   6.344  10.694 -1.9494 -1.1950 -1.2843
  162SOPE   O2118120   2.409   6.536  10.603  0.7379 -0.2160 -0.4208
  162SOPE   C2118121   2.492   6.494  10.501  0.4304  0.0453 -0.3138
  162SOPE   O2218122   2.524   6.382  10.479 -0.3915 -0.4267  0.1572
  162SOPE   C2218123   2.539   6.622  10.422 -0.0231 -0.3544  0.0577
  162SOPE   H2R18124   2.608   6.672  10.494 -0.8256 -0.3100  0.8179
  162SOPE   H2S18125   2.445   6.681  10.415  0.2911  0.0827 -0.5374
  162SOPE    C318126   2.222   6.394  10.628  0.2858  0.3961 -0.4011
  162SOPE    HX18127   2.160   6.485  10.643 -0.9773 -0.4544 -0.2775
  162SOPE    HY18128   2.179   6.318  10.697  2.0647 -1.0217 -0.7667
  162SOPE   O3118129   2.222   6.347  10.493 -0.1908 -0.5998 -0.5651
  162SOPE   C3118130   2.267   6.219  10.481  0.4092 -0.1496  1.0324
  162SOPE   O3218131   2.287   6.141  10.570  0.1487  0.1071 -0.2776
  162SOPE   C3218132   2.261   6.187  10.338 -0.5748 -0.1862  0.2803
  162SOPE   H2X18133   2.245   6.281  10.280 -4.3964 -2.1437 -2.2492
  162SOPE   H2Y18134   2.165   6.135  10.320 -0.5853 -0.0625 -0.0338
  162SOPE   C2318135   2.597   6.591  10.283 -0.7694  0.4856 -0.5207
  162SOPE   H3R18136   2.687   6.528  10.297  0.8943  2.5578 -1.3907
  162SOPE   H3S18137   2.637   6.683  10.235 -0.3051 -0.7421 -2.6433
  162SOPE   C2418138   2.496   6.525  10.189 -0.1923 -0.3758  0.1194
  162SOPE   H4R18139   2.451   6.433  10.232 -0.1521 -0.1601  0.6243
  162SOPE   H4S18140   2.408   6.593  10.182 -1.6962 -2.3281 -1.3066
  162SOPE   C2518141   2.554   6.500  10.048 -0.5993 -0.2945  0.7104
  162SOPE   H5R18142   2.623   6.581  10.016  1.0234 -2.0163 -0.3569
  162SOPE   H5S18143   2.613   6.406  10.053  0.5166  0.1897 -1.8578
  162SOPE   C2618144   2.451   6.487   9.938 -0.1617 -0.0042  0.1323
  162SOPE   H6R18145   2.407   6.385   9.936 -0.7371  0.2295  0.4468
  162SOPE   H6S18146   2.364   6.556   9.949 -0.0819  0.2667 -0.8746
  162SOPE   C2718147   2.521   6.507   9.805 -0.3718 -0.7804 -0.7379
  162SOPE   H7R18148   2.532   6.616   9.785  0.8722 -0.7603 -0.0082
  162SOPE   H7S18149   2.619   6.455   9.803 -0.0240 -0.1572 -0.2312
  162SOPE   C2818150   2.433   6.447   9.684 -0.0248 -0.0148 -0.9941
  162SOPE   H8R18151   2.341   6.507   9.669  0.7874  1.7060  0.4933
  162SOPE   H8S18152   2.501   6.451   9.596 -0.9580 -2.0767 -1.8669
  162SOPE   C2918153   2.399   6.302   9.705  0.1679 -0.4654 -0.2117
  162SOPE   H9118154   2.446   6.255   9.792  1.6386 -2.3938 -1.9540
  162SOPE  C21018155   2.330   6.234   9.613 -0.3365 -0.2351  0.4896
  162SOPE  H10118156   2.313   6.127   9.635 -0.4361  0.2193  3.0073
  162SOPE  C21118157   2.270   6.285   9.485 -0.3747 -0.5106 -0.2719
  162SOPE  H11R18158   2.215   6.380   9.502  0.5545  0.5073 -2.5233
  162SOPE  H11S18159   2.191   6.220   9.441 -1.5409  2.0192 -2.1788
  162SOPE  C21218160   2.378   6.305   9.375  0.5569 -0.0754 -0.0314
  162SOPE  H12R18161   2.417   6.205   9.347  0.4682 -0.4839  1.2609
  162SOPE  H12S18162   2.460   6.374   9.402  0.4896  0.2896 -0.7317
  162SOPE  C21318163   2.314   6.372   9.247 -0.3358 -0.0561  0.3377
  162SOPE  H13R18164   2.251   6.460   9.273  0.7905  1.0280 -0.4940
  162SOPE  H13S18165   2.250   6.296   9.197  2.2519 -2.3203  0.2889
  162SOPE  C21418166   2.413   6.432   9.143 -0.5559  1.4089 -0.1434
  162SOPE  H14R18167   2.481   6.346   9.125 -1.7076  0.9320 -2.5442
  162SOPE  H14S18168   2.471   6.518   9.183 -2.7795  2.0551  1.8828
  162SOPE  C21518169   2.351   6.467   9.007 -0.5980 -0.1763 -1.1169
  162SOPE  H15R18170   2.296   6.380   8.967 -0.7261  0.0263 -1.3835
  162SOPE  H15S18171   2.431   6.486   8.932  1.7137 -0.1632  1.1964
  162SOPE  C21618172   2.254   6.587   9.020  0.1163  0.1140  0.4812
  162SOPE  H16R18173   2.305   6.680   9.051 -1.3371  0.2502  2.7138
  162SOPE  H16S18174   2.179   6.565   9.099  1.0029 -2.0634  0.7869
  162SOPE  C21718175   2.173   6.623   8.903 -0.1900  0.8079 -0.5529
  162SOPE  H17R18176   2.241   6.671   8.830  0.0482 -0.8977 -1.5155
  162SOPE  H17S18177   2.101   6.699   8.941 -1.0803 -1.1248  1.8953
  162SOPE  C21818178   2.089   6.514   8.841  0.5193  0.0695  0.4071
  162SOPE  H18R18179   2.153   6.431   8.805  0.5216  0.3202 -0.1844
  162SOPE  H18S18180   2.047   6.564   8.751  1.8341  1.8082  0.6897
  162SOPE  H18T18181   2.009   6.485   8.912  0.8183  1.7416  1.4845
  162SOPE   C3318182   2.388   6.103  10.303  0.7207  0.5626  0.7224
  162SOPE   H3X18183   2.383   6.004  10.353  0.1448 -0.2829 -0.9131
  162SOPE   H3Y18184   2.482   6.149  10.342  1.0048  0.9151 -0.3383
  162SOPE   C3418185   2.403   6.077  10.153  0.1114 -0.4344 -0.1270
  162SOPE   H4X18186   2.406   6.178  10.106  0.7539 -1.0450 -1.4297
  162SOPE   H4Y18187   2.317   6.023  10.110 -1.1080  0.3096  1.2642
  162SOPE   C3518188   2.528   6.000  10.116  0.9167 -0.1048 -0.2654
  162SOPE   H5X18189   2.523   5.896  10.154 -2.5942 -0.4775 -1.3792
  162SOPE   H5Y18190   2.611   6.052  10.169 -0.4316  1.4783  0.3897
  162SOPE   C3618191   2.535   5.995   9.964 -0.3556 -0.2540  0.2177
  162SOPE   H6X18192   2.610   6.072   9.934  2.1730 -2.2730  0.9431
  162SOPE   H6Y18193   2.443   6.025   9.910 -0.2897 -2.8658 -1.5171
  162SOPE   C3718194   2.575   5.856   9.907  0.1887  0.4025  0.0157
  162SOPE   H7X18195   2.492   5.792   9.945  0.5973 -0.0602  0.1353
  162SOPE   H7Y18196   2.678   5.833   9.940  0.3768  1.3343  0.0954
  162SOPE   C3818197   2.584   5.872   9.754 -0.3149 -0.6599 -0.3317
  162SOPE   H8X18198   2.686   5.898   9.718 -0.7933  1.5437 -0.1898
  162SOPE   H8Y18199   2.525   5.961   9.725  2.3522  1.0965 -0.7403
  162SOPE   C3918200   2.544   5.756   9.662 -0.2764 -0.1173  0.5904
  162SOPE   H9X18201   2.442   5.718   9.684 -0.3898  0.0969  0.4386
  162SOPE   H9Y18202   2.614   5.675   9.690  0.4071  0.4428  0.5212
  162SOPE  C31018203   2.568   5.789   9.516 -0.0405 -1.1717  0.6944
  162SOPE  H10X18204   2.594   5.699   9.455  0.1099 -0.6370 -0.0391
  162SOPE  H10Y18205   2.643   5.870   9.512 -1.4137  0.3247  3.1489
  162SOPE  C31118206   2.441   5.863   9.457 -0.6860 -0.2219  0.0633
  162SOPE  H11X18207   2.421   5.953   9.519  3.4077 -0.3514  1.8720
  162SOPE  H11Y18208   2.352   5.796   9.464 -1.8240  0.7804 -3.2428
  162SOPE  C31218209   2.453   5.898   9.309  0.0804 -0.3634 -0.2293
  162SOPE  H12X18210   2.373   5.969   9.279  0.3139  0.0967  0.2173
  162SOPE  H12Y18211   2.431   5.809   9.247  0.6700  0.3010 -1.4246
  162SOPE  C31318212   2.581   5.964   9.255 -0.2673  0.2749 -0.1886
  162SOPE  H13X18213   2.654   5.882   9.267 -2.0146 -1.3083 -0.0404
  162SOPE  H13Y18214   2.617   6.037   9.331  0.7736 -0.1953 -0.2168
  162SOPE  C31418215   2.565   6.021   9.115  0.4554  0.9155 -0.3108
  162SOPE  H14X18216   2.515   6.120   9.127 -1.1770  0.4133 -2.3625
  162SOPE  H14Y18217   2.501   5.954   9.054 -0.2883  0.2552  1.1545
  162SOPE  C31518218   2.700   6.033   9.044  0.2163  0.1245 -0.0885
  162SOPE  H15X18219   2.730   5.932   9.008  1.1041  0.2734  0.2092
  162SOPE  H15Y18220   2.780   6.073   9.110  0.5442  2.5734 -1.8148
  162SOPE  C31618221   2.701   6.131   8.928 -0.0409  1.2750 -0.1380
  162SOPE  H16X18222   2.668   6.233   8.958 -0.9855  0.4736  1.7104
  162SOPE  H16Y18223   2.625   6.097   8.855  1.3377 -1.7233 -0.3359
  162SOPE  C31718224   2.825   6.135   8.838 -0.1236 -0.9481  0.8254
  162SOPE  H17X18225   2.842   6.037   8.788  1.4592  0.9182 -2.6331
  162SOPE  H17Y18226   2.912   6.139   8.906  0.4277 -0.7989  0.1216
  162SOPE  C31818227   2.805   6.254   8.743 -0.7253 -0.3024 -0.3500
  162SOPE  H18X18228   2.738   6.240   8.656 -1.7222  0.7534  0.2328
  162SOPE  H18Y18229   2.907   6.280   8.706  0.3802 -1.5967  1.5832
  162SOPE  H18Z18230   2.763   6.335   8.806 -1.7684  0.6564 -2.2135
  163SOPE     N18231   1.000   3.651  10.760 -0.1908 -0.3834 -0.2752
  163SOPE   HN118232   0.987   3.688  10.664 -2.9221  0.6900  0.4017
  163SOPE   HN218233   0.995   3.728  10.829  0.4489 -1.6094  1.2037
  163SOPE   HN318234   1.096   3.615  10.774 -0.3682 -0.5745  0.5327
  163SOPE   C1218235   0.882   3.563  10.776 -1.1581  0.3078 -0.3344
  163SOPE  H12A18236   0.786   3.613  10.751 -0.3955  1.9493 -0.1515
  163SOPE  H12B18237   0.883   3.536  10.883 -2.3385 -0.1033 -0.4159
  163SOPE   C1118238   0.889   3.433  10.696  0.5315 -0.4277  0.2416
  163SOPE  H11A18239   0.871   3.462  10.590 -3.0689  0.1716  0.8673
  163SOPE  H11B18240   0.807   3.370  10.737  1.5704 -1.5119  0.7113
  163SOPE     P18241   1.029   3.216  10.724 -0.2659 -0.5751 -0.3159
  163SOPE   O1318242   0.957   3.177  10.848  0.0240  0.2457 -0.0255
  163SOPE   O1418243   1.170   3.168  10.711  0.2873  0.2732  0.0963
  163SOPE   O1218244   1.017   3.374  10.712  0.6960 -0.1509  0.1133
  163SOPE   O1118245   0.947   3.186  10.598  0.2442 -0.2589  0.1002
  163SOPE    C118246   0.967   3.220  10.461  0.0032  0.5635 -0.2578
  163SOPE    HA18247   0.982   3.330  10.453 -0.6992  0.7246  0.5234
  163SOPE    HB18248   0.871   3.202  10.408  0.7769 -3.0311 -0.6598
  163SOPE    C218249   1.077   3.137  10.392  0.7917  0.4818 -0.4064
  163SOPE    HS18250   1.176   3.168  10.431 -0.7250  1.6162  2.8680
  163SOPE   O2118251   1.066   3.143  10.249  0.3813 -0.9546 -0.2800
  163SOPE   C2118252   1.091   3.261  10.205  0.0209 -0.3950  0.0248
  163SOPE   O2218253   1.145   3.353  10.268  0.8252 -0.1970 -0.4971
  163SOPE   C2218254   1.049   3.275  10.060  0.1046 -0.1493 -0.0907
  163SOPE   H2R18255   0.938   3.282  10.055 -0.0265 -2.5230 -2.9708
  163SOPE   H2S18256   1.086   3.188  10.001  1.0340 -1.6300  2.5251
  163SOPE    C318257   1.057   2.984  10.435  0.2599  0.1893  0.4420
  163SOPE    HX18258   0.949   2.957  10.427  0.1098  0.4694  1.4031
  163SOPE    HY18259   1.088   2.962  10.539 -1.4399 -2.6747  0.4621
  163SOPE   O3118260   1.116   2.898  10.336 -0.6166  0.4385  0.4278
  163SOPE   C3118261   1.248   2.912  10.316 -0.5206 -0.2568  0.4759
  163SOPE   O3218262   1.322   2.984  10.378 -0.7181  0.3123 -0.3427
  163SOPE   C3218263   1.286   2.822  10.197  0.2329  0.1083  0.6923
  163SOPE   H2X18264   1.262   2.718  10.228  2.9859 -0.6046  0.7010
  163SOPE   H2Y18265   1.393   2.834  10.169 -0.0142 -1.3761 -1.0798
  163SOPE   C2318266   1.094   3.396   9.975  0.0804 -0.1851 -0.7765
  163SOPE   H3R18267   1.205   3.407   9.972  0.3792 -2.3336  0.5589
  163SOPE   H3S18268   1.047   3.486  10.019 -2.4627 -1.1073 -1.4127
  163SOPE   C2418269   1.031   3.405   9.827  0.0139  0.4317 -0.0009
  163SOPE   H4R18270   1.045   3.302   9.787  0.6806  0.4461  0.1843
  163SOPE   H4S18271   0.922   3.424   9.835 -0.1614 -1.0245  1.3877
  163SOPE   C2518272   1.104   3.516   9.756  0.4271  0.1157 -0.3130
  163SOPE   H5R18273   1.084   3.615   9.803 -0.1933 -0.0039 -0.3160
  163SOPE   H5S18274   1.214   3.504   9.754  0.3766 -0.8027  1.1565
  163SOPE   C2618275   1.063   3.531   9.606 -0.4847  0.1384  0.7612
  163SOPE   H6R18276   1.091   3.435   9.556 -0.1065  1.6539 -2.1330
  163SOPE   H6S18277   0.954   3.548   9.594 -0.7501 -1.2351  1.0163
  163SOPE   C2718278   1.135   3.647   9.531 -0.3672  0.3728 -0.5546
  163SOPE   H7R18279   1.089   3.742   9.566  0.4333  1.2125 -1.6858
  163SOPE   H7S18280   1.245   3.655   9.550 -0.1729 -0.2893 -1.3641
  163SOPE   C2818281   1.122   3.621   9.383  0.6136 -0.0101  0.2382
  163SOPE   H8R18282   1.202   3.550   9.352 -0.0533  0.1663 -2.0160
  163SOPE   H8S18283   1.026   3.570   9.363  0.1445  0.8714  0.1988
  163SOPE   C2918284   1.150   3.751   9.312  0.3713  0.2216  0.4122
  163SOPE   H9118285   1.128   3.848   9.360  0.3548  1.2154 -1.5254
  163SOPE  C21018286   1.198   3.773   9.187 -0.2723  0.2156 -0.0347
  163SOPE  H10118287   1.211   3.876   9.151  1.7667 -0.2503 -0.7311
  163SOPE  C21118288   1.231   3.672   9.078  0.2808 -0.4026  0.2113
  163SOPE  H11R18289   1.185   3.576   9.109 -0.6439 -1.2732 -3.4057
  163SOPE  H11S18290   1.340   3.649   9.082 -0.1284 -2.4696  0.2307
  163SOPE  C21218291   1.184   3.704   8.928 -0.4334  0.0843  0.8086
  163SOPE  H12R18292   1.219   3.614   8.872  0.3993  1.7149 -1.4228
  163SOPE  H12S18293   1.240   3.794   8.894  1.2925 -1.5507 -0.9252
  163SOPE  C21318294   1.032   3.708   8.922  0.2871  0.5236 -0.1248
  163SOPE  H13R18295   0.991   3.795   8.978 -1.3607  0.8079 -1.6637
  163SOPE  H13S18296   0.989   3.613   8.960 -1.2002  0.1695 -2.5090
  163SOPE  C21418297   0.982   3.723   8.777 -0.2970 -1.0027  0.1778
  163SOPE  H14R18298   0.874   3.697   8.790 -0.8290  1.0818  0.3500
  163SOPE  H14S18299   1.026   3.657   8.699  3.5723  1.0437  0.3964
  163SOPE  C21518300   0.973   3.874   8.733 -0.4602  0.7228 -0.3307
  163SOPE  H15R18301   1.075   3.918   8.735  0.0066 -0.3108 -0.6668
  163SOPE  H15S18302   0.909   3.934   8.801 -0.8637 -0.5054  0.4150
  163SOPE  C21618303   0.922   3.877   8.588 -0.2601  0.9009 -0.3684
  163SOPE  H16R18304   0.994   3.817   8.527 -2.9388 -1.7590 -1.1645
  163SOPE  H16S18305   0.941   3.978   8.545  1.5222  0.2870 -1.1356
  163SOPE  C21718306   0.785   3.813   8.553 -0.5669  0.7969 -0.4311
  163SOPE  H17R18307   0.765   3.712   8.594  1.8624 -0.6211 -2.4118
  163SOPE  H17S18308   0.774   3.814   8.442  0.6771  3.0154 -0.5982
  163SOPE  C21818309   0.677   3.890   8.617  0.3604  0.2429 -0.0165
  163SOPE  H18R18310   0.670   3.873   8.727  1.3079 -0.3882 -0.0442
  163SOPE  H18S18311   0.581   3.844   8.585  0.3684 -0.4709  0.9275
  163SOPE  H18T18312   0.671   3.992   8.575 -0.5650 -0.3107 -1.2824
  163SOPE   C3318313   1.203   2.854  10.066 -0.2457  0.4404 -0.2144
  163SOPE   H3X18314   1.211   2.960  10.035 -1.1475  0.9514  1.2544
  163SOPE   H3Y18315   1.100   2.812  10.071  0.1146 -0.4659 -0.2051
  163SOPE   C3418316   1.244   2.782   9.936 -0.5913 -0.3913 -0.3734
  163SOPE   H4X18317   1.352   2.790   9.908 -0.8170  0.1411 -1.1235
  163SOPE   H4Y18318   1.196   2.837   9.853  0.7097  2.1370  0.4300
  163SOPE   C3518319   1.193   2.638   9.927 -0.8096 -0.0909 -0.1765
  163SOPE   H5X18320   1.083   2.637   9.940 -0.8524 -1.0408 -0.5462
  163SOPE   H5Y18321   1.238   2.569  10.002  0.3127  2.4589  1.6449
  163SOPE   C3618322   1.230   2.583   9.793  0.2831 -0.7953 -0.3555
  163SOPE   H6X18323   1.306   2.653   9.753 -0.7990  0.7588  0.1878
  163SOPE   H6Y18324   1.142   2.576   9.726  1.3565 -1.3910 -1.7426
  163SOPE   C3718325   1.287   2.442   9.816 -0.0837 -0.4135  0.3344
  163SOPE   H7X18326   1.213   2.381   9.873 -0.6645  0.8163  0.9446
  163SOPE   H7Y18327   1.382   2.440   9.874  0.8446  2.3358 -0.9488
  163SOPE   C3818328   1.340   2.383   9.678 -0.0232 -0.1041 -0.0804
  163SOPE   H8X18329   1.360   2.279   9.711 -0.3906 -0.2200 -0.2272
  163SOPE   H8Y18330   1.441   2.424   9.655  0.3311 -0.6787  0.4130
  163SOPE   C3918331   1.246   2.384   9.555 -0.2216  0.4732 -0.3120
  163SOPE   H9X18332   1.243   2.483   9.506  0.4002 -0.3050 -1.9954
  163SOPE   H9Y18333   1.142   2.369   9.589 -0.8602  2.1544 -1.3956
  163SOPE  C31018334   1.279   2.274   9.461 -0.1648 -0.8691 -0.1984
  163SOPE  H10X18335   1.194   2.251   9.393 -1.4414  2.5449  0.0623
  163SOPE  H10Y18336   1.302   2.181   9.518 -1.1290 -0.8918  0.1657
  163SOPE  C31118337   1.413   2.294   9.370  0.1140 -0.2298 -0.6819
  163SOPE  H11X18338   1.484   2.317   9.453 -0.0010 -1.1303 -0.3299
  163SOPE  H11Y18339   1.398   2.389   9.313 -0.4048  0.6443  0.8392
  163SOPE  C31218340   1.447   2.163   9.295 -0.3601 -0.2702 -0.6199
  163SOPE  H12X18341   1.355   2.112   9.259 -1.3383  1.5128 -0.7358
  163SOPE  H12Y18342   1.494   2.090   9.364  1.9090  0.5870 -1.1607
  163SOPE  C31318343   1.536   2.187   9.176 -0.4202 -0.1185 -0.2565
  163SOPE  H13X18344   1.632   2.235   9.203  0.5848 -2.0239 -0.3017
  163SOPE  H13Y18345   1.482   2.253   9.105 -2.6874  1.3229  2.6024
  163SOPE  C31418346   1.580   2.055   9.110  0.0563 -0.9638 -0.9176
  163SOPE  H14X18347   1.493   1.986   9.107  1.3342 -2.6720 -0.1659
  163SOPE  H14Y18348   1.663   2.013   9.170  0.0772 -0.0620 -0.3033
  163SOPE  C31518349   1.636   2.077   8.974 -0.2975 -0.1963  0.1122
  163SOPE  H15X18350   1.561   2.134   8.914 -0.3737 -0.1254  0.2767
  163SOPE  H15Y18351   1.664   1.978   8.931  0.7999 -0.8320  2.1638
  163SOPE  C31618352   1.769   2.166   8.979 -0.0783 -0.1203 -0.4665
  163SOPE  H16X18353   1.852   2.103   9.018 -1.3300 -1.2438  0.4588
  163SOPE  H16Y18354   1.763   2.257   9.043  1.8152  1.0389 -1.8377
  163SOPE  C31718355   1.810   2.193   8.835  0.1697  0.4973 -0.1273
  163SOPE  H17X18356   1.725   2.248   8.788 -0.0110  1.3817  1.1770
  163SOPE  H17Y18357   1.825   2.091   8.792 -0.1579  0.0562  0.7708
  163SOPE  C31818358   1.937   2.265   8.814 -0.2337  0.6861  0.6711
  163SOPE  H18X18359   1.941   2.321   8.719  1.6234 -0.4947 -0.0038
  163SOPE  H18Y18360   2.021   2.192   8.811 -1.0567 -0.2587 -0.1043
  163SOPE  H18Z18361   1.956   2.339   8.895 -2.0861  1.8265  0.1280
  164SOPE     N18362   5.260   2.321  10.767 -0.3396 -0.1142 -0.0570
  164SOPE   HN118363   5.326   2.386  10.814 -1.2999  0.5407  0.4331
  164SOPE   HN218364   5.309   2.230  10.781 -0.3193 -0.0731  0.1392
  164SOPE   HN318365   5.263   2.344  10.666  2.5922  2.3948  0.4660
  164SOPE   C1218366   5.123   2.328  10.817  0.0043  0.5140 -0.1136
  164SOPE  H12A18367   5.105   2.436  10.836 -0.3396  0.4529 -0.0836
  164SOPE  H12B18368   5.115   2.261  10.905 -4.2775  0.2035 -0.5349
  164SOPE   C1118369   5.025   2.285  10.710  0.6210 -0.8970 -0.6522
  164SOPE  H11A18370   5.048   2.367  10.638 -0.9859  0.1814  0.0021
  164SOPE  H11B18371   4.923   2.306  10.751  2.1837  2.0687  2.2229
  164SOPE     P18372   4.976   2.030  10.726  0.6454  0.2238  0.4093
  164SOPE   O1318373   4.866   2.084  10.812 -0.2579  0.3799 -0.1108
  164SOPE   O1418374   5.082   1.955  10.795  0.1597  0.0688 -0.1486
  164SOPE   O1218375   5.042   2.156  10.654  0.1669 -0.0328 -0.0162
  164SOPE   O1118376   4.926   1.938  10.610  0.1709 -0.0308  0.1208
  164SOPE    C118377   5.010   1.899  10.507  0.3742 -0.6068  0.6853
  164SOPE    HA18378   5.003   1.789  10.492  0.5313 -0.2369 -2.7559
  164SOPE    HB18379   5.115   1.932  10.521  0.1654 -0.0318  0.9338
  164SOPE    C218380   4.955   1.955  10.376 -0.5828  0.1651  0.9464
  164SOPE    HS18381   4.844   1.963  10.377 -0.8261 -1.2752 -2.0697
  164SOPE   O2118382   5.003   1.881  10.258 -0.4020 -0.1298 -0.7809
  164SOPE   C2118383   4.939   1.780  10.217  0.2870  0.2689  0.8222
  164SOPE   O2218384   4.838   1.729  10.264  0.7350 -0.5239  0.1945
  164SOPE   C2218385   5.014   1.718  10.096  0.1534  0.6050 -0.0083
  164SOPE   H2R18386   4.932   1.667  10.040 -1.1707  0.8991  1.5643
  164SOPE   H2S18387   5.080   1.638  10.136 -0.8023 -0.8106 -1.1506
  164SOPE    C318388   5.001   2.105  10.355  0.0954 -0.6613  0.7004
  164SOPE    HX18389   5.111   2.115  10.364  0.1938  1.9725 -1.9338
  164SOPE    HY18390   4.951   2.167  10.433 -0.3543  0.2064 -0.2525
  164SOPE   O3118391   4.969   2.154  10.222  0.7467  0.7935 -0.3519
  164SOPE   C3118392   4.998   2.282  10.218 -0.9729 -0.4126  0.4879
  164SOPE   O3218393   5.021   2.349  10.318  0.1265 -0.2638  0.4394
  164SOPE   C3218394   5.010   2.334  10.073  0.0239  0.3916 -0.7175
  164SOPE   H2X18395   4.910   2.350  10.028 -0.2871 -2.6127 -1.2874
  164SOPE   H2Y18396   5.064   2.257  10.014 -0.1016  1.2820 -2.0241
  164SOPE   C2318397   5.082   1.824  10.002 -0.2500  0.5662 -0.2927
  164SOPE   H3R18398   5.184   1.859  10.030 -0.4725  1.5345 -0.6457
  164SOPE   H3S18399   5.026   1.919   9.993  0.0928  0.7980 -0.0105
  164SOPE   C2418400   5.086   1.767   9.859 -0.0855 -0.4030 -0.1187
  164SOPE   H4R18401   5.148   1.675   9.858  1.2390  0.4659 -2.1473
  164SOPE   H4S18402   4.981   1.737   9.838 -0.5432  1.3096 -0.3951
  164SOPE   C2518403   5.144   1.867   9.759  0.3788  0.2920  0.8020
  164SOPE   H5R18404   5.098   1.963   9.792 -1.4874 -0.2302 -0.1284
  164SOPE   H5S18405   5.254   1.873   9.758  0.3010  1.9629  0.1221
  164SOPE   C2618406   5.098   1.823   9.616 -0.2913 -0.7474 -0.9743
  164SOPE   H6R18407   5.130   1.717   9.608  1.3630 -0.4701  1.0711
  164SOPE   H6S18408   4.988   1.827   9.602 -0.3172  2.4158 -0.4256
  164SOPE   C2718409   5.147   1.912   9.500 -0.1381 -0.5632 -0.0520
  164SOPE   H7R18410   5.104   2.013   9.509 -0.2124 -0.6384  0.4438
  164SOPE   H7S18411   5.256   1.908   9.521 -0.0183  1.2850 -0.2309
  164SOPE   C2818412   5.129   1.844   9.362 -0.9115 -0.6408  1.0562
  164SOPE   H8R18413   5.196   1.756   9.359  0.4237  0.2498  2.9171
  164SOPE   H8S18414   5.021   1.819   9.366 -0.9694 -0.6084 -0.0032
  164SOPE   C2918415   5.162   1.930   9.244 -0.7067  0.5160  0.1277
  164SOPE   H9118416   5.175   2.037   9.267 -1.5223  0.9194 -1.1891
  164SOPE  C21018417   5.159   1.905   9.114 -0.4590 -0.1025 -0.9532
  164SOPE  H10118418   5.204   1.987   9.056  0.7465 -0.5949 -0.7514
  164SOPE  C21118419   5.134   1.781   9.030  0.3366  0.8379 -0.4986
  164SOPE  H11R18420   5.025   1.756   9.031  0.9081 -2.6317  2.9627
  164SOPE  H11S18421   5.187   1.690   9.066  0.2752  1.7317  2.0952
  164SOPE  C21218422   5.180   1.801   8.883 -0.2472 -0.0739  0.0843
  164SOPE  H12R18423   5.285   1.836   8.879 -0.4793  1.0834  2.2682
  164SOPE  H12S18424   5.123   1.876   8.824  0.0701  0.3861  0.3580
  164SOPE  C21318425   5.167   1.672   8.796 -0.0202  0.5643 -0.7387
  164SOPE  H13R18426   5.238   1.600   8.840 -1.7745  0.3363  1.9180
  164SOPE  H13S18427   5.191   1.708   8.693 -2.7452 -0.0362 -1.6482
  164SOPE  C21418428   5.030   1.596   8.779 -0.1483  0.4046 -0.4650
  164SOPE  H14R18429   4.960   1.674   8.744  0.2654  0.7709 -0.4863
  164SOPE  H14S18430   5.006   1.557   8.880  0.6932  0.8708 -0.0716
  164SOPE  C21518431   5.049   1.478   8.678 -0.0919 -0.0301  0.6669
  164SOPE  H15R18432   5.126   1.413   8.726  0.4401  0.8942  1.0817
  164SOPE  H15S18433   5.088   1.527   8.586  0.2630  0.4583  1.0738
  164SOPE  C21618434   4.919   1.398   8.658  0.3613 -0.5005  0.4227
  164SOPE  H16R18435   4.939   1.342   8.565 -0.2001  0.1752 -0.1131
  164SOPE  H16S18436   4.841   1.474   8.637  0.4124 -0.0463  1.7518
  164SOPE  C21718437   4.885   1.308   8.777 -0.6539 -0.4230  0.3249
  164SOPE  H17R18438   4.837   1.371   8.856 -2.7029 -2.2207  0.6169
  164SOPE  H17S18439   4.977   1.259   8.812 -0.2141  0.0208 -0.1886
  164SOPE  C21818440   4.809   1.182   8.746  0.6267  0.0645  0.4707
  164SOPE  H18R18441   4.705   1.205   8.714  1.1238  2.3644  0.2902
  164SOPE  H18S18442   4.805   1.123   8.840  0.9910  0.9047  1.0291
  164SOPE  H18T18443   4.862   1.132   8.663 -1.1373  0.8652 -1.2173
  164SOPE   C3318444   5.099   2.464  10.066 -0.4348 -0.2343  0.0686
  164SOPE   H3X18445   5.203   2.443  10.099 -1.0641 -1.0478  1.6618
  164SOPE   H3Y18446   5.061   2.546  10.130 -0.4891  1.6240 -2.2231
  164SOPE   C3418447   5.106   2.514   9.922 -0.3511 -0.1002  0.6340
  164SOPE   H4X18448   5.007   2.511   9.872 -0.6972 -3.3773  1.2655
  164SOPE   H4Y18449   5.158   2.440   9.858 -1.6936  0.6741 -1.4203
  164SOPE   C3518450   5.139   2.669   9.899  0.7365  0.4460  0.0519
  164SOPE   H5X18451   5.240   2.702   9.932  1.0018  0.3921 -0.6682
  164SOPE   H5Y18452   5.074   2.720   9.973 -0.4722  0.7901 -1.2092
  164SOPE   C3618453   5.126   2.719   9.752  0.6813  0.8942  0.3280
  164SOPE   H6X18454   5.159   2.824   9.762 -1.1214  1.4209  1.1453
  164SOPE   H6Y18455   5.022   2.705   9.716  0.6576 -1.2489  1.0668
  164SOPE   C3718456   5.211   2.636   9.651  0.0363 -0.3646 -0.4002
  164SOPE   H7X18457   5.184   2.528   9.661  0.2846 -0.5216 -1.3376
  164SOPE   H7Y18458   5.318   2.653   9.675 -0.4719  0.3470  1.5120
  164SOPE   C3818459   5.188   2.689   9.507 -0.2381 -0.8712  0.7280
  164SOPE   H8X18460   5.182   2.799   9.498 -0.3100 -0.9754 -0.7816
  164SOPE   H8Y18461   5.096   2.640   9.467 -0.2661 -0.2469  0.0037
  164SOPE   C3918462   5.294   2.639   9.405  0.5299  0.1850 -0.7014
  164SOPE   H9X18463   5.314   2.531   9.425  1.0623  0.5957  1.1578
  164SOPE   H9Y18464   5.389   2.685   9.437  0.5478 -0.8881  0.9217
  164SOPE  C31018465   5.258   2.677   9.267  0.2968  0.1419  0.5874
  164SOPE  H10X18466   5.231   2.785   9.274 -0.4078 -0.0535  0.9428
  164SOPE  H10Y18467   5.173   2.625   9.218  2.3749 -0.3886 -2.8142
  164SOPE  C31118468   5.379   2.664   9.180  0.3128 -0.1752 -0.1813
  164SOPE  H11X18469   5.397   2.558   9.153 -3.3469 -0.8853 -0.3774
  164SOPE  H11Y18470   5.466   2.711   9.231 -0.7519 -0.4808  2.0061
  164SOPE  C31218471   5.367   2.735   9.047  0.1053 -0.1109  0.4615
  164SOPE  H12X18472   5.355   2.844   9.065  1.1819 -0.1444  1.4953
  164SOPE  H12Y18473   5.284   2.684   8.994  1.7765 -1.9010 -0.5877
  164SOPE  C31318474   5.490   2.720   8.952  0.6509 -0.1905  0.0186
  164SOPE  H13X18475   5.505   2.610   8.945  3.2972  0.0906  0.4494
  164SOPE  H13Y18476   5.578   2.767   9.001 -0.6466  1.5818  0.7726
  164SOPE  C31418477   5.448   2.765   8.811  0.8444 -0.8813  0.0902
  164SOPE  H14X18478   5.427   2.874   8.815 -0.8525 -1.0998 -1.4485
  164SOPE  H14Y18479   5.356   2.713   8.777  0.0730  0.2446  0.3988
  164SOPE  C31518480   5.556   2.763   8.699  0.9179  0.0694 -0.0135
  164SOPE  H15X18481   5.501   2.804   8.611 -1.4861 -0.7232  1.0370
  164SOPE  H15Y18482   5.593   2.662   8.671 -0.8693 -0.1748 -1.7162
  164SOPE  C31618483   5.680   2.846   8.733 -1.0503 -0.1202  0.2406
  164SOPE  H16X18484   5.714   2.807   8.831 -1.3673  2.2081  1.3492
  164SOPE  H16Y18485   5.652   2.953   8.746 -0.6569  0.3648 -2.2831
  164SOPE  C31718486   5.782   2.847   8.621 -1.0500  0.3730  0.5690
  164SOPE  H17X18487   5.852   2.931   8.640  0.8790 -1.4914  2.2411
  164SOPE  H17Y18488   5.733   2.864   8.523  1.6440 -0.8116 -1.0761
  164SOPE  C31818489   5.879   2.723   8.612 -0.4132 -0.8404  0.4869
  164SOPE  H18X18490   5.929   2.695   8.708  0.2035  0.1781  0.4786
  164SOPE  H18Y18491   5.947   2.734   8.525 -0.0854 -1.0800  0.7082
  164SOPE  H18Z18492   5.824   2.627   8.597  1.6511 -2.1471  0.7871
  165SOPE     N18493   2.766   2.780  10.927  0.9141 -0.1778 -0.1834
  165SOPE   HN118494   2.692   2.840  10.967  2.4705  1.8672 -0.2146
  165SOPE   HN218495   2.735   2.681  10.924 -2.6205  0.8088 -1.1846
  165SOPE   HN318496   2.853   2.793  10.982  2.1405 -0.8797 -1.8431
  165SOPE   C1218497   2.773   2.829  10.787  0.3225  1.2914 -0.0300
  165SOPE  H12A18498   2.680   2.798  10.734  0.7836  0.7370 -0.5344
  165SOPE  H12B18499   2.853   2.766  10.743 -1.4192 -2.6985  1.9994
  165SOPE   C1118500   2.798   2.981  10.787 -0.4024 -0.1450  0.7714
  165SOPE  H11A18501   2.809   3.019  10.683  0.8373 -0.5599  0.7358
  165SOPE  H11B18502   2.889   3.019  10.837 -0.2931  1.9105 -0.8556
  165SOPE     P18503   2.554   3.087  10.781 -0.2914  0.3768  0.6215
  165SOPE   O1318504   2.458   3.113  10.897  0.0508  0.1583 -0.4878
  165SOPE   O1418505   2.524   2.994  10.669 -0.7731  0.3306 -0.6039
  165SOPE   O1218506   2.681   3.036  10.853 -0.5811  0.1786  0.6475
  165SOPE   O1118507   2.605   3.221  10.719 -0.3120  0.3306  0.5853
  165SOPE    C118508   2.567   3.273  10.591 -0.9138  0.0513 -0.8430
  165SOPE    HA18509   2.536   3.379  10.592  0.5931  0.5129 -0.0359
  165SOPE    HB18510   2.483   3.214  10.548  1.5358 -3.9777 -0.7238
  165SOPE    C218511   2.696   3.266  10.505 -0.0776 -0.1462  0.4966
  165SOPE    HS18512   2.717   3.157  10.504  0.2598 -0.0934  1.2528
  165SOPE   O2118513   2.802   3.346  10.567  1.0211 -0.1190 -0.1606
  165SOPE   C2118514   2.927   3.311  10.546 -0.0371 -0.5182 -0.1936
  165SOPE   O2218515   2.956   3.232  10.461 -0.4294  0.3210 -0.0435
  165SOPE   C2218516   3.017   3.363  10.651  0.1025  1.1281  0.2628
  165SOPE   H2R18517   3.002   3.303  10.744 -0.0268  1.4652  0.4649
  165SOPE   H2S18518   3.007   3.469  10.683 -2.1965  0.4832  1.9906
  165SOPE    C318519   2.665   3.320  10.354  0.2650 -0.4491 -0.4063
  165SOPE    HX18520   2.747   3.304  10.281  0.8820  2.3040 -0.4462
  165SOPE    HY18521   2.661   3.430  10.370  1.0765 -0.3955 -0.5170
  165SOPE   O3118522   2.536   3.287  10.305 -0.4497 -0.7027  0.4798
  165SOPE   C3118523   2.522   3.160  10.267  0.4313  0.1696 -0.2812
  165SOPE   O3218524   2.606   3.072  10.279  0.3866  0.0111 -0.3019
  165SOPE   C3218525   2.372   3.135  10.229  0.4145 -0.7122 -0.3566
  165SOPE   H2X18526   2.315   3.230  10.220  1.0126 -0.3542 -0.4195
  165SOPE   H2Y18527   2.325   3.065  10.301  1.9238 -0.5431  0.8437
  165SOPE   C2318528   3.164   3.346  10.601 -0.0567 -0.0024  0.1140
  165SOPE   H3R18529   3.171   3.236  10.584 -0.2621 -0.0823  0.5238
  165SOPE   H3S18530   3.226   3.367  10.690 -0.5162 -1.0826  0.7123
  165SOPE   C2418531   3.210   3.428  10.477 -0.6313 -0.9105 -0.2131
  165SOPE   H4R18532   3.152   3.421  10.383  1.5845 -1.7265 -1.6030
  165SOPE   H4S18533   3.204   3.536  10.505  1.7035 -0.5984 -0.7051
  165SOPE   C2518534   3.354   3.396  10.440 -0.5892 -0.1272  0.3117
  165SOPE   H5R18535   3.427   3.421  10.520  0.0455  0.6301 -0.4795
  165SOPE   H5S18536   3.360   3.288  10.415 -2.3239  0.2584 -2.0750
  165SOPE   C2618537   3.395   3.464  10.304 -0.4144  0.1823  0.1124
  165SOPE   H6R18538   3.309   3.475  10.234  0.0118 -2.5854 -0.9579
  165SOPE   H6S18539   3.415   3.574  10.312  2.0094 -0.0750 -1.2817
  165SOPE   C2718540   3.517   3.400  10.243  0.1116  0.6799  0.4220
  165SOPE   H7R18541   3.615   3.420  10.291  0.5847 -2.2660  0.8626
  165SOPE   H7S18542   3.506   3.290  10.245  0.6911  0.6303  1.2088
  165SOPE   C2818543   3.533   3.455  10.093 -0.0242 -0.1011  0.2580
  165SOPE   H8R18544   3.557   3.560  10.122 -0.4698 -0.0874  0.5950
  165SOPE   H8S18545   3.622   3.409  10.046  0.1726  0.7579 -0.2389
  165SOPE   C2918546   3.419   3.448  10.001 -0.2802 -0.0013  0.3822
  165SOPE   H9118547   3.351   3.367  10.030  0.5192 -0.2861  1.5665
  165SOPE  C21018548   3.390   3.534   9.902 -0.6410  0.6840  0.0316
  165SOPE  H10118549   3.307   3.509   9.833  0.6951  0.5722 -1.6139
  165SOPE  C21118550   3.476   3.646   9.854  0.3701 -0.2179  0.0583
  165SOPE  H11R18551   3.555   3.679   9.925 -1.0988 -1.1817  2.2834
  165SOPE  H11S18552   3.404   3.729   9.838 -1.2522 -1.5933 -0.0762
  165SOPE  C21218553   3.537   3.626   9.712  0.0981  0.3605 -0.7574
  165SOPE  H12R18554   3.489   3.552   9.645  0.6796  0.9563 -1.8435
  165SOPE  H12S18555   3.643   3.594   9.726 -0.5333 -1.1008  1.2696
  165SOPE  C21318556   3.540   3.756   9.639 -0.3576  0.1119  0.5809
  165SOPE  H13R18557   3.582   3.834   9.705 -3.4079  1.2692  1.3364
  165SOPE  H13S18558   3.434   3.781   9.619  0.1232  1.6765 -0.1522
  165SOPE  C21418559   3.623   3.756   9.506  0.1850  0.3332  0.0239
  165SOPE  H14R18560   3.588   3.669   9.447 -0.9230  0.9769 -0.3024
  165SOPE  H14S18561   3.732   3.747   9.523  0.1077 -0.7128 -0.0066
  165SOPE  C21518562   3.613   3.882   9.420 -0.6064  0.2710 -0.3659
  165SOPE  H15R18563   3.630   3.972   9.483  0.4951  0.0108 -0.2720
  165SOPE  H15S18564   3.511   3.892   9.377 -0.6990  0.6226 -0.0735
  165SOPE  C21618565   3.713   3.875   9.302 -0.3075  0.1072 -0.2075
  165SOPE  H16R18566   3.690   3.791   9.233  0.9088  0.2725 -0.8410
  165SOPE  H16S18567   3.814   3.860   9.345 -0.8585  3.4953  2.7847
  165SOPE  C21718568   3.718   4.007   9.226  0.2573 -0.9509 -0.0519
  165SOPE  H17R18569   3.752   4.098   9.281 -0.7242 -0.4804 -0.2019
  165SOPE  H17S18570   3.612   4.025   9.196 -0.5714 -2.2984  1.9106
  165SOPE  C21818571   3.805   4.011   9.102  0.1594  0.2222 -0.4654
  165SOPE  H18R18572   3.909   4.019   9.140  0.2161 -2.1498  0.0533
  165SOPE  H18S18573   3.789   4.103   9.041 -0.2809 -0.4505 -1.3840
  165SOPE  H18T18574   3.801   3.912   9.053  1.3112  0.0788 -0.3083
  165SOPE   C3318575   2.371   3.073  10.093  0.3626 -0.8901  0.5181
  165SOPE   H3X18576   2.269   3.030  10.093 -0.5336  0.9151  3.5566
  165SOPE   H3Y18577   2.452   2.999  10.078  0.3359 -0.6759 -0.8330
  165SOPE   C3418578   2.379   3.180   9.977 -0.5121 -0.2494 -0.0209
  165SOPE   H4X18579   2.355   3.278  10.023  1.0145  0.0971  0.1038
  165SOPE   H4Y18580   2.298   3.151   9.907 -1.1449  3.6991 -1.1356
  165SOPE   C3518581   2.521   3.181   9.915 -0.3820  0.0644 -0.6110
  165SOPE   H5X18582   2.562   3.082   9.886  1.1192 -0.1719  1.9935
  165SOPE   H5Y18583   2.598   3.214   9.989  0.4710 -1.0871 -0.9556
  165SOPE   C3618584   2.525   3.279   9.799 -0.4826 -0.6663  0.4031
  165SOPE   H6X18585   2.503   3.381   9.836 -2.7760 -1.6038  1.8682
  165SOPE   H6Y18586   2.450   3.258   9.720  0.2064 -0.1303 -0.4124
  165SOPE   C3718587   2.664   3.273   9.736 -0.0397 -0.2710 -0.1451
  165SOPE   H7X18588   2.693   3.169   9.712  0.3838 -0.8513  2.5319
  165SOPE   H7Y18589   2.728   3.302   9.822 -0.9461  1.3216  0.0408
  165SOPE   C3818590   2.697   3.366   9.619  0.6178  0.2356 -0.3283
  165SOPE   H8X18591   2.808   3.367   9.609  0.4717  0.2342 -2.4604
  165SOPE   H8Y18592   2.669   3.473   9.629 -0.1045  0.0476 -0.3174
  165SOPE   C3918593   2.647   3.307   9.485 -0.1497 -0.1125  0.8695
  165SOPE   H9X18594   2.536   3.298   9.484 -0.4742  2.9347 -0.9939
  165SOPE   H9Y18595   2.697   3.207   9.481 -0.1434 -0.1188  1.0859
  165SOPE  C31018596   2.683   3.389   9.360 -0.4729 -0.6204 -0.0676
  165SOPE  H10X18597   2.793   3.382   9.353 -0.1825  2.8356 -0.4050
  165SOPE  H10Y18598   2.666   3.498   9.372  1.7420 -0.2453  0.0601
  165SOPE  C31118599   2.620   3.350   9.228 -0.6568  0.3029 -0.9300
  165SOPE  H11X18600   2.511   3.374   9.226 -0.9098 -0.4835  0.8636
  165SOPE  H11Y18601   2.632   3.242   9.204  0.4226 -0.1128  1.2359
  165SOPE  C31218602   2.694   3.423   9.115 -0.2013 -0.1815  0.2778
  165SOPE  H12X18603   2.643   3.398   9.020  0.6108  1.0057 -0.4961
  165SOPE  H12Y18604   2.800   3.388   9.112 -0.3521 -1.2245  3.1616
  165SOPE  C31318605   2.700   3.569   9.116 -0.1563 -0.9303 -0.4140
  165SOPE  H13X18606   2.766   3.603   9.198 -0.1052 -1.4670 -0.2293
  165SOPE  H13Y18607   2.605   3.612   9.154  0.4884  1.5358 -1.3695
  165SOPE  C31418608   2.717   3.622   8.967  0.9589  0.7883 -0.3240
  165SOPE  H14X18609   2.626   3.590   8.911  0.6128 -1.1871  1.2377
  165SOPE  H14Y18610   2.803   3.574   8.917  0.8632  1.3348 -1.0271
  165SOPE  C31518611   2.731   3.772   8.964  1.0914  0.2141  0.5176
  165SOPE  H15X18612   2.640   3.821   9.005  1.2250  1.8084 -0.9763
  165SOPE  H15Y18613   2.731   3.795   8.855 -1.7194 -0.3095  0.3354
  165SOPE  C31618614   2.853   3.822   9.031 -1.1295  0.4507 -0.3918
  165SOPE  H16X18615   2.935   3.747   9.032 -0.9195  0.4130 -4.3937
  165SOPE  H16Y18616   2.838   3.847   9.139 -2.5826 -1.2899 -0.1406
  165SOPE  C31718617   2.902   3.946   8.962  0.0279 -0.4317  0.2760
  165SOPE  H17X18618   2.813   4.004   8.931  0.3443  0.1417  0.4344
  165SOPE  H17Y18619   2.943   3.918   8.862 -3.0423 -2.7266 -0.4877
  165SOPE  C31818620   3.004   4.021   9.040 -0.8236 -0.8391 -0.8777
  165SOPE  H18X18621   3.049   4.098   8.975 -2.7100 -0.3936 -1.7350
  165SOPE  H18Y18622   3.090   3.956   9.065  1.1269  1.4660 -1.2614
  165SOPE  H18Z18623   2.969   4.056   9.140 -3.8816 -1.1123 -1.7516
  166SOPE     N18624   1.003   1.753  11.171  0.5528  0.0319 -0.7389
  166SOPE   HN118625   0.989   1.783  11.072 -0.2979  1.3550 -0.2516
  166SOPE   HN218626   0.928   1.773  11.241  1.3855 -0.9611  0.4763
  166SOPE   HN318627   1.087   1.801  11.209  1.0808 -0.1365 -1.6724
  166SOPE   C1218628   1.049   1.610  11.162 -0.0858 -0.3143 -0.3551
  166SOPE  H12A18629   1.090   1.578  11.260  0.9866  0.8248 -0.4078
  166SOPE  H12B18630   1.129   1.612  11.085  0.0966 -2.7322 -0.3056
  166SOPE   C1118631   0.938   1.512  11.119 -0.3244  0.2516 -0.5862
  166SOPE  H11A18632   0.868   1.566  11.052  0.3507  3.0329  0.8056
  166SOPE  H11B18633   0.873   1.494  11.208 -1.8071  0.6912 -1.5400
  166SOPE     P18634   1.017   1.395  10.896  0.2935 -0.5093  0.1959
  166SOPE   O1318635   1.053   1.257  10.863  0.5812  0.4484  0.8141
  166SOPE   O1418636   1.117   1.502  10.864 -0.2942  0.7329  0.1719
  166SOPE   O1218637   0.997   1.396  11.055  0.3273 -0.3773 -0.1669
  166SOPE   O1118638   0.875   1.428  10.833  0.2209  0.3090  0.2170
  166SOPE    C118639   0.767   1.341  10.813  0.3524 -0.6292  0.2224
  166SOPE    HA18640   0.669   1.386  10.838 -0.9820 -3.9150  1.3878
  166SOPE    HB18641   0.784   1.263  10.890  3.2380  0.5548  0.9305
  166SOPE    C218642   0.767   1.281  10.672 -0.3146  0.2864 -0.0727
  166SOPE    HS18643   0.865   1.231  10.657 -0.1634  0.0494  1.4925
  166SOPE   O2118644   0.743   1.389  10.578 -0.1915 -0.3183 -0.2801
  166SOPE   C2118645   0.828   1.387  10.477 -0.1993 -0.4904  0.2544
  166SOPE   O2218646   0.933   1.325  10.471  0.0268  0.2232  0.7529
  166SOPE   C2218647   0.791   1.514  10.386  0.5201 -0.3650  0.2639
  166SOPE   H2R18648   0.853   1.604  10.403 -1.2677  1.1677 -0.8876
  166SOPE   H2S18649   0.694   1.545  10.430 -0.0870  1.6058 -2.2014
  166SOPE    C318650   0.658   1.168  10.645 -0.8696 -0.7378  0.5546
  166SOPE    HX18651   0.571   1.236  10.636  0.2973  0.6089 -1.1843
  166SOPE    HY18652   0.653   1.100  10.733  2.0226 -3.5480 -1.2392
  166SOPE   O3118653   0.674   1.100  10.516 -0.2477 -0.0494  0.1976
  166SOPE   C3118654   0.765   1.002  10.529  0.0875  0.0809 -0.5596
  166SOPE   O3218655   0.833   0.983  10.630 -0.2051 -0.3551 -0.2466
  166SOPE   C3218656   0.790   0.926  10.397 -0.2858 -0.5845 -0.9657
  166SOPE   H2X18657   0.756   0.821  10.413  0.6687 -0.6653  0.6786
  166SOPE   H2Y18658   0.899   0.917  10.378  0.1654  0.8852  0.6354
  166SOPE   C2318659   0.777   1.473  10.235  0.4214  0.5395  0.0062
  166SOPE   H3R18660   0.865   1.410  10.209 -0.1902  0.3381 -1.7237
  166SOPE   H3S18661   0.768   1.561  10.168  1.0742 -1.3882 -2.8176
  166SOPE   C2418662   0.653   1.393  10.209 -0.4488  1.2339  0.8123
  166SOPE   H4R18663   0.662   1.302  10.272  1.6242  0.9213  0.1483
  166SOPE   H4S18664   0.561   1.443  10.245 -0.7659  0.4822  1.0551
  166SOPE   C2518665   0.631   1.332  10.064  0.5539  0.0528 -0.0160
  166SOPE   H5R18666   0.686   1.239  10.036  0.9017  0.1144  0.4611
  166SOPE   H5S18667   0.521   1.315  10.068 -0.0585  3.4694  0.8882
  166SOPE   C2618668   0.665   1.441   9.950  0.5974  0.6766  1.0589
  166SOPE   H6R18669   0.599   1.528   9.971 -2.5843 -1.5656  1.0805
  166SOPE   H6S18670   0.768   1.481   9.962  0.5798  1.4852 -1.0338
  166SOPE   C2718671   0.630   1.391   9.803 -0.2504 -0.3701  0.2603
  166SOPE   H7R18672   0.681   1.297   9.773 -1.7708 -1.4088  0.8089
  166SOPE   H7S18673   0.519   1.386   9.793 -0.2277  1.5769 -2.0547
  166SOPE   C2818674   0.667   1.500   9.693 -1.0041 -0.4865  0.1169
  166SOPE   H8R18675   0.619   1.456   9.603 -1.1464 -0.2457  0.0720
  166SOPE   H8S18676   0.608   1.590   9.724 -1.0888 -0.3206 -0.5039
  166SOPE   C2918677   0.812   1.539   9.659  0.8355  0.1981 -1.1659
  166SOPE   H9118678   0.876   1.556   9.746 -0.5392 -1.2031  0.1864
  166SOPE  C21018679   0.867   1.550   9.530  0.7774 -0.1568  0.1441
  166SOPE  H10118680   0.976   1.563   9.528  0.9323 -1.1688  1.0549
  166SOPE  C21118681   0.794   1.532   9.397  0.3636  0.7160  0.3691
  166SOPE  H11R18682   0.780   1.633   9.354 -0.8929  1.1219  1.6514
  166SOPE  H11S18683   0.685   1.519   9.415 -0.0554 -0.1385 -2.4389
  166SOPE  C21218684   0.857   1.438   9.290  0.7626  0.2060 -0.3177
  166SOPE  H12R18685   0.855   1.332   9.325  2.1472  0.9226  2.1819
  166SOPE  H12S18686   0.965   1.463   9.276  0.4910  1.2786 -0.5268
  166SOPE  C21318687   0.785   1.451   9.155  0.3562  0.0616 -0.2354
  166SOPE  H13R18688   0.678   1.429   9.176 -0.1886  0.5581 -2.2742
  166SOPE  H13S18689   0.826   1.379   9.081  1.2266  1.5411 -1.2366
  166SOPE  C21418690   0.804   1.586   9.081  0.1542  0.1008  0.2504
  166SOPE  H14R18691   0.912   1.607   9.064 -0.2657  0.5666 -2.2340
  166SOPE  H14S18692   0.771   1.667   9.150 -0.7234  1.6247 -1.8685
  166SOPE  C21518693   0.731   1.579   8.944  0.0429  0.1792 -0.6706
  166SOPE  H15R18694   0.623   1.567   8.966  0.3378  1.9288  2.0473
  166SOPE  H15S18695   0.760   1.485   8.890 -0.7654 -0.9133  0.7333
  166SOPE  C21618696   0.755   1.701   8.854  0.3212 -0.8212  0.3618
  166SOPE  H16R18697   0.863   1.703   8.830  0.0965  0.0975 -0.6362
  166SOPE  H16S18698   0.733   1.790   8.917 -0.6069 -0.1168 -0.9039
  166SOPE  C21718699   0.665   1.705   8.732  0.2825 -0.1311  0.8893
  166SOPE  H17R18700   0.698   1.795   8.677 -1.8732 -0.3262 -0.8596
  166SOPE  H17S18701   0.564   1.729   8.771  0.2740 -0.2962  0.9740
  166SOPE  C21818702   0.674   1.573   8.651  0.3625  0.5521 -0.5945
  166SOPE  H18R18703   0.645   1.486   8.714 -1.4720 -0.5407 -2.8378
  166SOPE  H18S18704   0.780   1.566   8.618  0.2476 -0.3066 -0.8185
  166SOPE  H18T18705   0.602   1.572   8.566  0.1013  0.3488 -0.3737
  166SOPE   C3318706   0.744   0.998  10.262  0.3319 -0.3610 -0.9234
  166SOPE   H3X18707   0.811   1.087  10.266 -0.5405  0.2719  2.2258
  166SOPE   H3Y18708   0.645   1.048  10.268  0.6310  0.1737 -0.2174
  166SOPE   C3418709   0.751   0.918  10.131  0.0338 -0.8918 -0.2651
  166SOPE   H4X18710   0.754   0.978  10.038 -1.8485  1.6695  1.1840
  166SOPE   H4Y18711   0.661   0.853  10.125 -1.8731  1.5033  0.8681
  166SOPE   C3518712   0.891   0.842  10.124  0.3201  0.1529 -0.2981
  166SOPE   H5X18713   0.892   0.765  10.204 -0.4440 -0.3101 -0.7217
  166SOPE   H5Y18714   0.971   0.910  10.158 -1.2076  1.6610  0.3950
  166SOPE   C3618715   0.924   0.791   9.987 -0.6360 -0.1281 -0.3622
  166SOPE   H6X18716   1.028   0.754   9.991 -0.4470  0.4354  0.0607
  166SOPE   H6Y18717   0.914   0.876   9.917 -0.9939  0.2799  0.1712
  166SOPE   C3718718   0.835   0.671   9.953  0.9399  0.5265 -0.3414
  166SOPE   H7X18719   0.733   0.714   9.950  1.9656  3.4120  1.6134
  166SOPE   H7Y18720   0.844   0.598  10.036 -0.3955 -0.9077 -1.4102
  166SOPE   C3818721   0.877   0.606   9.821  0.2926 -0.2136 -0.0887
  166SOPE   H8X18722   0.808   0.523   9.794  0.2764 -0.8737  1.8174
  166SOPE   H8Y18723   0.978   0.560   9.823  0.6831  0.6208  0.0793
  166SOPE   C3918724   0.864   0.698   9.696  0.0614 -0.1666 -0.3990
  166SOPE   H9X18725   0.927   0.788   9.713  0.6406 -0.6002 -0.2129
  166SOPE   H9Y18726   0.758   0.732   9.695  0.2660  0.6114  1.1947
  166SOPE  C31018727   0.898   0.633   9.569 -0.8337  0.3672 -0.1021
  166SOPE  H10X18728   0.839   0.540   9.562 -1.0456  0.5834 -1.3426
  166SOPE  H10Y18729   1.008   0.618   9.563 -0.3754  2.9455  0.4884
  166SOPE  C31118730   0.842   0.718   9.452  0.7296  0.1723  0.4461
  166SOPE  H11X18731   0.914   0.799   9.424 -0.4242  1.3176  0.6779
  166SOPE  H11Y18732   0.744   0.761   9.480  0.1902  0.5318 -1.8309
  166SOPE  C31218733   0.813   0.636   9.322  0.0312  0.5477  0.5628
  166SOPE  H12X18734   0.742   0.555   9.348  0.8634 -0.8450 -1.3596
  166SOPE  H12Y18735   0.918   0.604   9.304  0.3190  1.9485 -0.4041
  166SOPE  C31318736   0.765   0.715   9.197  0.6020 -0.8348 -0.3178
  166SOPE  H13X18737   0.830   0.804   9.179  0.1693 -0.1499  1.2786
  166SOPE  H13Y18738   0.663   0.754   9.222  0.7884  0.1285 -0.9938
  166SOPE  C31418739   0.754   0.620   9.079 -0.1452 -0.0517 -0.3303
  166SOPE  H14X18740   0.709   0.691   9.006  1.2750  2.3296  0.9920
  166SOPE  H14Y18741   0.700   0.524   9.096  0.4416 -0.0676  1.6600
  166SOPE  C31518742   0.885   0.570   9.017 -0.8589 -0.9168 -0.5167
  166SOPE  H15X18743   0.937   0.496   9.081 -0.3782  2.6487  3.7081
  166SOPE  H15Y18744   0.959   0.652   9.021 -1.5151 -0.3420  0.2290
  166SOPE  C31618745   0.860   0.500   8.877  1.1119  0.1674 -0.4836
  166SOPE  H16X18746   0.798   0.566   8.812 -0.0613 -1.2401 -0.8530
  166SOPE  H16Y18747   0.794   0.418   8.913  0.3420  1.5165  1.3875
  166SOPE  C31718748   0.977   0.444   8.806  0.2168 -0.6228 -0.3573
  166SOPE  H17X18749   0.940   0.401   8.711 -0.3536  1.9787 -1.3909
  166SOPE  H17Y18750   1.017   0.363   8.871 -0.8672 -0.3683  0.6831
  166SOPE  C31818751   1.083   0.545   8.766  0.6553 -0.3428  0.0696
  166SOPE  H18X18752   1.121   0.601   8.855  1.0146  0.7972 -0.7734
  166SOPE  H18Y18753   1.038   0.613   8.690 -1.3003 -0.1643  1.3083
  166SOPE  H18Z18754   1.175   0.495   8.730  0.4569  0.9133 -2.3970
  167SOPE     N18755   5.043   3.314   6.380 -0.3405 -0.4196 -0.5826
  167SOPE   HN118756   4.981   3.258   6.442 -2.5350  0.4009 -1.9354
  167SOPE   HN218757   5.109   3.352   6.451 -0.0683  0.0611 -1.0950
  167SOPE   HN318758   4.986   3.392   6.342  2.1163  0.2793 -3.2205
  167SOPE   C1218759   5.106   3.236   6.267  0.1324  0.4180 -0.1967
  167SOPE  H12A18760   5.161   3.150   6.311 -1.2426 -0.1877  0.4342
  167SOPE  H12B18761   5.170   3.306   6.210 -2.2002  1.3908 -1.7938
  167SOPE   C1118762   4.988   3.193   6.178 -0.8617  1.1024  0.9403
  167SOPE  H11A18763   4.913   3.149   6.246  0.2803 -0.0700  1.4767
  167SOPE  H11B18764   5.020   3.114   6.106 -2.4280  1.2726 -0.0022
  167SOPE     P18765   4.783   3.307   6.069 -0.0426  0.0139  0.1188
  167SOPE   O1318766   4.754   3.184   5.991  0.6377  0.0288 -0.3854
  167SOPE   O1418767   4.752   3.439   6.008  0.0675 -0.4468  0.3289
  167SOPE   O1218768   4.936   3.304   6.109 -0.3053 -0.0826 -0.8757
  167SOPE   O1118769   4.698   3.302   6.202 -0.1537  0.3443 -0.3280
  167SOPE    C118770   4.671   3.416   6.278 -0.4566 -0.6398  0.5316
  167SOPE    HA18771   4.570   3.454   6.250  0.5402  2.0261  0.2682
  167SOPE    HB18772   4.734   3.504   6.252 -0.9082 -0.5733 -0.3717
  167SOPE    C218773   4.666   3.395   6.435  0.0208  0.3238  0.2469
  167SOPE    HS18774   4.583   3.452   6.483 -0.3537 -1.1623  1.4678
  167SOPE   O2118775   4.793   3.429   6.494  0.7749 -0.6487 -0.3670
  167SOPE   C2118776   4.794   3.540   6.566  0.4434  0.0461  0.3229
  167SOPE   O2218777   4.707   3.628   6.560 -0.0990  0.5564 -0.4596
  167SOPE   C2218778   4.914   3.542   6.653 -0.3109  0.2492 -0.7641
  167SOPE   H2R18779   4.993   3.592   6.593  0.8326 -2.7196 -1.8978
  167SOPE   H2S18780   4.948   3.440   6.678 -1.4673 -0.9658 -3.7719
  167SOPE    C318781   4.626   3.251   6.469  0.0878  1.0046 -0.3275
  167SOPE    HX18782   4.706   3.178   6.447 -0.5428  0.5901 -1.3253
  167SOPE    HY18783   4.540   3.221   6.405 -0.9415 -1.3343  1.9727
  167SOPE   O3118784   4.582   3.235   6.599  0.0725  0.3697 -1.3253
  167SOPE   C3118785   4.532   3.118   6.634  0.1590  0.0452  1.1763
  167SOPE   O3218786   4.528   3.018   6.561 -0.0178 -0.1259 -0.6381
  167SOPE   C3218787   4.469   3.115   6.771 -0.0232 -0.5058  0.1367
  167SOPE   H2X18788   4.498   3.020   6.822 -0.3817 -1.2365 -0.9690
  167SOPE   H2Y18789   4.359   3.119   6.758  0.0028 -2.1790 -0.9466
  167SOPE   C2318790   4.896   3.613   6.794  0.1978  0.6493  0.3944
  167SOPE   H3R18791   4.823   3.560   6.859 -0.1457  0.7384  0.0895
  167SOPE   H3S18792   4.851   3.713   6.776  1.3787  1.4823  1.8968
  167SOPE   C2418793   5.030   3.634   6.864  0.1119  0.4669 -0.3504
  167SOPE   H4R18794   5.088   3.543   6.892  1.3733  1.1126 -0.7922
  167SOPE   H4S18795   5.089   3.685   6.785 -0.1248  1.7332  0.2732
  167SOPE   C2518796   5.040   3.731   6.984 -0.3331  0.5181 -0.1949
  167SOPE   H5R18797   5.122   3.805   6.971 -0.1678  1.0745  3.0558
  167SOPE   H5S18798   4.952   3.799   6.983 -1.0599 -0.3920  0.5374
  167SOPE   C2618799   5.049   3.654   7.110 -0.0801  0.1231 -0.3358
  167SOPE   H6R18800   4.972   3.574   7.109 -0.6200  0.6029 -2.3394
  167SOPE   H6S18801   5.144   3.597   7.115  0.2344  0.7210  0.9928
  167SOPE   C2718802   5.036   3.750   7.227  0.2574 -0.5343 -0.0001
  167SOPE   H7R18803   5.126   3.814   7.239  1.5037 -2.2160  0.1053
  167SOPE   H7S18804   4.944   3.807   7.202  1.5441  0.8909 -1.7961
  167SOPE   C2818805   5.017   3.665   7.356  0.3101  0.5147  0.0681
  167SOPE   H8R18806   5.075   3.570   7.357  0.5906  0.6841  0.8619
  167SOPE   H8S18807   5.063   3.721   7.440  0.8868  0.0080  0.0973
  167SOPE   C2918808   4.880   3.621   7.397 -0.1700  0.1429 -0.6961
  167SOPE   H9118809   4.800   3.617   7.322  1.2240  0.0436 -2.2141
  167SOPE  C21018810   4.839   3.610   7.519 -0.3886  0.6074 -1.1187
  167SOPE  H10118811   4.741   3.571   7.548  0.2519  1.0209  1.9254
  167SOPE  C21118812   4.911   3.628   7.649  0.1624  0.2389  0.9238
  167SOPE  H11R18813   4.961   3.727   7.652  1.8802 -0.5556  0.4175
  167SOPE  H11S18814   4.983   3.543   7.658 -0.4558 -0.5595 -1.2211
  167SOPE  C21218815   4.804   3.627   7.765 -0.8763 -0.1274 -0.2845
  167SOPE  H12R18816   4.752   3.530   7.752 -1.6643  0.5352 -2.5576
  167SOPE  H12S18817   4.730   3.709   7.764 -2.4428 -1.4866  0.0067
  167SOPE  C21318818   4.875   3.631   7.905  0.6796 -0.4557 -0.2634
  167SOPE  H13R18819   4.937   3.719   7.931  2.8827 -1.8369 -0.5829
  167SOPE  H13S18820   4.949   3.549   7.898  0.2108 -0.7943 -1.6765
  167SOPE  C21418821   4.785   3.608   8.027  0.1399 -0.9937  0.0069
  167SOPE  H14R18822   4.721   3.519   8.004  0.1946 -1.5423  1.8406
  167SOPE  H14S18823   4.729   3.700   8.052  1.5726 -0.3384  0.9343
  167SOPE  C21518824   4.865   3.572   8.154  0.1984 -0.3196 -0.7493
  167SOPE  H15R18825   4.937   3.654   8.173 -0.2676 -0.5815  2.7759
  167SOPE  H15S18826   4.913   3.472   8.146 -0.0095 -0.5745  0.8836
  167SOPE  C21618827   4.783   3.575   8.282 -0.2393 -0.0448  0.5426
  167SOPE  H16R18828   4.717   3.485   8.287 -1.1476  0.5446 -0.4099
  167SOPE  H16S18829   4.716   3.664   8.287  0.3979  0.4885 -0.0913
  167SOPE  C21718830   4.869   3.567   8.400 -0.2131  0.0900  0.1585
  167SOPE  H17R18831   4.953   3.638   8.386  0.2663 -0.5561 -0.2764
  167SOPE  H17S18832   4.913   3.465   8.407  0.1780  0.2698  0.3901
  167SOPE  C21818833   4.789   3.588   8.527  0.1455  0.7447 -0.0216
  167SOPE  H18R18834   4.711   3.509   8.522  0.0337  0.7810  1.0284
  167SOPE  H18S18835   4.739   3.687   8.536  1.2604  1.4880 -1.5098
  167SOPE  H18T18836   4.848   3.560   8.616  1.5325 -1.7239 -1.6047
  167SOPE   C3318837   4.520   3.234   6.858 -0.3002 -0.2654  0.0691
  167SOPE   H3X18838   4.479   3.331   6.821 -0.0621 -0.6364 -1.2182
  167SOPE   H3Y18839   4.630   3.246   6.854 -0.4624  1.2875 -1.1753
  167SOPE   C3418840   4.468   3.219   7.000  0.1114  0.1525  0.8544
  167SOPE   H4X18841   4.502   3.123   7.045  1.8182  1.4257  2.4415
  167SOPE   H4Y18842   4.357   3.219   6.994  0.1760  1.4368 -0.8465
  167SOPE   C3518843   4.499   3.332   7.094 -0.2577 -0.0567 -0.1010
  167SOPE   H5X18844   4.438   3.316   7.186 -1.7364 -0.3172 -1.0784
  167SOPE   H5Y18845   4.467   3.424   7.041 -0.8675 -1.2380 -1.8868
  167SOPE   C3618846   4.643   3.328   7.134 -0.2507  0.4546 -0.2732
  167SOPE   H6X18847   4.700   3.403   7.074 -0.3799 -0.5828 -1.7331
  167SOPE   H6Y18848   4.699   3.236   7.106 -0.3632  1.0117 -2.4984
  167SOPE   C3718849   4.660   3.351   7.290  0.5214  0.5484  0.1513
  167SOPE   H7X18850   4.597   3.435   7.325  2.6468  1.9597  0.8155
  167SOPE   H7Y18851   4.769   3.367   7.306  0.0511  2.4054  1.7923
  167SOPE   C3818852   4.634   3.230   7.381 -0.0977  0.4662 -0.0252
  167SOPE   H8X18853   4.705   3.147   7.359  0.5977  1.1998 -0.6159
  167SOPE   H8Y18854   4.532   3.187   7.368 -0.8361  2.0595  0.3186
  167SOPE   C3918855   4.668   3.254   7.528  0.4074 -0.1954 -0.2766
  167SOPE   H9X18856   4.622   3.352   7.553 -1.4618 -0.7470 -1.3323
  167SOPE   H9Y18857   4.778   3.259   7.543  0.5879  0.3759 -1.6214
  167SOPE  C31018858   4.607   3.156   7.622 -0.4992  0.4631 -0.5366
  167SOPE  H10X18859   4.637   3.053   7.594 -2.1961 -0.4619  0.8288
  167SOPE  H10Y18860   4.496   3.152   7.628 -0.4528 -2.4028 -0.4276
  167SOPE  C31118861   4.656   3.197   7.758  0.7702  0.1846  0.3797
  167SOPE  H11X18862   4.587   3.281   7.777 -0.4093 -0.5889 -0.3890
  167SOPE  H11Y18863   4.757   3.244   7.762  0.4237  0.9417  0.4671
  167SOPE  C31218864   4.660   3.087   7.865  0.2039  0.0508  0.2492
  167SOPE  H12X18865   4.747   3.021   7.846 -0.6555 -0.7873 -0.8919
  167SOPE  H12Y18866   4.567   3.027   7.857  0.5859 -0.4175 -0.8602
  167SOPE  C31318867   4.652   3.155   8.006 -0.9793 -0.9055 -0.0524
  167SOPE  H13X18868   4.547   3.185   8.028  0.1671  1.7315  2.5013
  167SOPE  H13Y18869   4.711   3.249   7.997 -2.8168  0.1532 -1.9001
  167SOPE  C31418870   4.701   3.067   8.117  0.5253 -0.0899 -0.5058
  167SOPE  H14X18871   4.807   3.042   8.097  1.6741  1.5481  2.7991
  167SOPE  H14Y18872   4.641   2.974   8.112  0.8854 -0.2694 -1.9716
  167SOPE  C31518873   4.708   3.130   8.263 -0.1411  0.3434  0.6451
  167SOPE  H15X18874   4.612   3.103   8.312 -2.7107  3.1635 -2.3751
  167SOPE  H15Y18875   4.711   3.241   8.260  0.9528  0.3643  1.5942
  167SOPE  C31618876   4.835   3.084   8.335 -0.3937  0.1764 -0.4681
  167SOPE  H16X18877   4.916   3.125   8.271  0.0098  0.5493  0.2698
  167SOPE  H16Y18878   4.854   2.975   8.342 -0.2485  0.2319  0.0248
  167SOPE  C31718879   4.853   3.149   8.474  0.6925 -0.7661 -0.7977
  167SOPE  H17X18880   4.825   3.257   8.468 -4.2325 -1.7538  0.1909
  167SOPE  H17Y18881   4.958   3.137   8.510  0.9710  1.0714 -0.8779
  167SOPE  C31818882   4.774   3.089   8.589 -0.8925  0.3995  0.3646
  167SOPE  H18X18883   4.801   3.152   8.676  0.9107 -0.3406  0.3823
  167SOPE  H18Y18884   4.801   2.983   8.609 -1.3425  0.1797 -0.1512
  167SOPE  H18Z18885   4.663   3.084   8.590 -0.8477 -1.0970  1.0050
  168SOPE     N18886   1.337   4.285   6.483 -0.5989 -0.8369  0.2070
  168SOPE   HN118887   1.416   4.352   6.470  1.3345 -3.3378 -1.9416
  168SOPE   HN218888   1.386   4.194   6.476 -0.9140 -0.8884 -1.9643
  168SOPE   HN318889   1.273   4.296   6.402  1.1680  0.4981 -1.1120
  168SOPE   C1218890   1.252   4.308   6.606 -0.3975  0.9789  0.6076
  168SOPE  H12A18891   1.324   4.348   6.681  1.8377  0.2950 -1.0733
  168SOPE  H12B18892   1.202   4.213   6.636  1.2932 -0.7749 -1.7609
  168SOPE   C1118893   1.159   4.426   6.586 -0.0240 -0.5175 -0.0659
  168SOPE  H11A18894   1.086   4.417   6.669 -0.3183 -2.0415 -0.4561
  168SOPE  H11B18895   1.109   4.427   6.487 -1.7324  0.5253  0.7586
  168SOPE     P18896   1.153   4.689   6.548 -0.1722  0.4136  0.3874
  168SOPE   O1318897   1.110   4.657   6.414  0.1204  0.4056 -0.1940
  168SOPE   O1418898   1.240   4.803   6.563  0.0472  0.1880 -0.0310
  168SOPE   O1218899   1.225   4.555   6.612 -0.4579  0.0794  0.4899
  168SOPE   O1118900   1.022   4.704   6.634 -0.2904  0.5376 -0.8406
  168SOPE    C118901   1.014   4.684   6.775 -0.5118  0.2342 -0.2199
  168SOPE    HA18902   1.095   4.613   6.802  0.3793  0.7931 -1.3045
  168SOPE    HB18903   0.918   4.640   6.809  0.0560 -0.0793  1.0197
  168SOPE    C218904   1.040   4.816   6.845 -0.4811  0.6674 -0.0454
  168SOPE    HS18905   1.136   4.855   6.807 -0.6022  0.7221 -0.2983
  168SOPE   O2118906   1.046   4.791   6.985  0.2621  0.0945 -0.1592
  168SOPE   C2118907   1.163   4.765   7.046  0.9081 -0.2779  0.2057
  168SOPE   O2218908   1.270   4.791   6.994  0.5541  0.9488  0.8562
  168SOPE   C2218909   1.137   4.732   7.196  0.6070 -0.2127  0.5837
  168SOPE   H2R18910   1.068   4.645   7.209 -0.1314  0.1822 -0.5019
  168SOPE   H2S18911   1.089   4.824   7.234 -1.2181 -1.2467  0.9209
  168SOPE    C318912   0.930   4.916   6.815  0.1567 -0.2289 -0.5280
  168SOPE    HX18913   0.850   4.866   6.874  0.0816 -1.5942 -1.7375
  168SOPE    HY18914   0.900   4.919   6.708 -1.4349  0.5954 -0.0979
  168SOPE   O3118915   0.974   5.044   6.869  0.2262 -0.6826 -0.6331
  168SOPE   C3118916   0.883   5.105   6.941  0.8169 -0.0611  0.3177
  168SOPE   O3218917   0.767   5.068   6.953 -0.9228  0.1515  0.0448
  168SOPE   C3218918   0.946   5.228   7.005  0.4437  0.7857 -0.9077
  168SOPE   H2X18919   0.874   5.307   6.977  0.8356  1.2392 -0.6421
  168SOPE   H2Y18920   1.042   5.249   6.954  0.0003  1.2956 -1.5543
  168SOPE   C2318921   1.259   4.707   7.285  0.1896  0.1354  0.0197
  168SOPE   H3R18922   1.322   4.799   7.291  1.6891 -0.9140  1.4486
  168SOPE   H3S18923   1.333   4.636   7.243 -1.1881  0.1463 -2.5924
  168SOPE   C2418924   1.230   4.658   7.434 -0.0970  1.4505 -0.1903
  168SOPE   H4R18925   1.211   4.551   7.412 -0.5786  1.2103  1.2868
  168SOPE   H4S18926   1.329   4.650   7.485 -0.4130 -0.3544  0.2128
  168SOPE   C2518927   1.132   4.736   7.516  0.4135 -0.4913  0.0011
  168SOPE   H5R18928   1.160   4.841   7.536 -0.3341 -0.2830 -0.0260
  168SOPE   H5S18929   1.031   4.752   7.474  0.0415 -0.9403  0.7043
  168SOPE   C2618930   1.136   4.677   7.657 -0.2614 -0.0588 -0.5389
  168SOPE   H6R18931   1.084   4.579   7.666 -1.5299  0.5770 -0.8676
  168SOPE   H6S18932   1.243   4.666   7.686 -0.4658 -2.3238 -0.4343
  168SOPE   C2718933   1.063   4.769   7.753 -0.7192  0.3232  0.8042
  168SOPE   H7R18934   1.094   4.874   7.732  1.4455 -0.1765  1.1958
  168SOPE   H7S18935   0.958   4.767   7.717  0.3523 -0.8153 -2.6975
  168SOPE   C2818936   1.069   4.731   7.901  0.1649  0.3312 -0.1937
  168SOPE   H8R18937   1.025   4.630   7.907  0.4863  0.2922  3.0921
  168SOPE   H8S18938   1.174   4.719   7.935 -0.2945  1.2576  1.6895
  168SOPE   C2918939   1.000   4.831   7.992  0.5611  0.5437  1.0380
  168SOPE   H9118940   1.021   4.938   7.980  0.0879  0.7478  1.9965
  168SOPE  C21018941   0.902   4.801   8.076 -0.5420 -0.2296  0.6168
  168SOPE  H10118942   0.858   4.891   8.121  1.1275  1.3685 -0.7894
  168SOPE  C21118943   0.855   4.664   8.106 -0.0508 -0.0420 -0.4345
  168SOPE  H11R18944   0.907   4.582   8.052  0.5389  0.2892 -0.3747
  168SOPE  H11S18945   0.747   4.650   8.087 -0.5625 -0.6546  2.4338
  168SOPE  C21218946   0.879   4.640   8.259  0.1909  0.1023 -0.2890
  168SOPE  H12R18947   0.791   4.686   8.309  1.2306  3.1756 -1.0686
  168SOPE  H12S18948   0.967   4.703   8.284  0.6477 -0.0340 -1.5050
  168SOPE  C21318949   0.907   4.494   8.294 -0.1935 -0.2902 -0.4740
  168SOPE  H13R18950   1.015   4.487   8.269 -0.0115  0.7640 -0.0403
  168SOPE  H13S18951   0.855   4.427   8.222  0.9264  0.2702 -1.8579
  168SOPE  C21418952   0.890   4.462   8.439 -0.7339  0.3902 -1.0379
  168SOPE  H14R18953   0.886   4.351   8.443 -0.5318  0.3966 -0.6591
  168SOPE  H14S18954   0.796   4.510   8.473 -1.2468 -0.1603 -1.6375
  168SOPE  C21518955   1.003   4.525   8.529 -0.1721  0.3185  0.1300
  168SOPE  H15R18956   1.004   4.636   8.533 -1.0283  0.3041  1.0314
  168SOPE  H15S18957   1.099   4.488   8.487 -0.8501 -0.1305 -1.0936
  168SOPE  C21618958   0.995   4.465   8.678  0.3575  0.4399 -0.1361
  168SOPE  H16R18959   0.976   4.356   8.670 -1.5373  0.7736 -0.7280
  168SOPE  H16S18960   0.901   4.502   8.722  0.1992 -0.1228  0.0069
  168SOPE  C21718961   1.108   4.501   8.784  0.0727 -0.6439  0.3294
  168SOPE  H17R18962   1.059   4.491   8.882 -0.5295 -0.2765  0.0698
  168SOPE  H17S18963   1.132   4.605   8.753 -2.3178 -0.1150  0.0707
  168SOPE  C21818964   1.232   4.402   8.779 -0.0252  0.2318  0.4152
  168SOPE  H18R18965   1.300   4.430   8.862  1.9356 -0.3380 -0.9358
  168SOPE  H18S18966   1.296   4.418   8.689 -0.0331  0.4346  0.4444
  168SOPE  H18T18967   1.200   4.296   8.785  0.3103  0.1526  0.8631
  168SOPE   C3318968   0.946   5.230   7.159 -0.7739  0.6357  0.1521
  168SOPE   H3X18969   0.842   5.200   7.187 -1.0763  0.7112 -0.8395
  168SOPE   H3Y18970   0.945   5.336   7.193  0.9767  1.2099 -1.4504
  168SOPE   C3418971   1.048   5.137   7.230  0.6036 -0.1877 -0.3011
  168SOPE   H4X18972   1.148   5.155   7.186  0.6164 -0.7528 -0.5120
  168SOPE   H4Y18973   1.013   5.037   7.197 -1.0416  0.1303  0.3851
  168SOPE   C3518974   1.054   5.150   7.380  0.0497 -0.2298  0.1964
  168SOPE   H5X18975   1.127   5.071   7.408 -1.8505 -2.6252 -1.1364
  168SOPE   H5Y18976   0.953   5.130   7.422 -0.1462  1.5255  0.6141
  168SOPE   C3618977   1.076   5.287   7.433 -0.8244  0.0959 -0.2867
  168SOPE   H6X18978   1.001   5.359   7.392  0.9243  0.4438 -3.1366
  168SOPE   H6Y18979   1.175   5.336   7.428 -0.8936  0.3636  0.7097
  168SOPE   C3718980   1.045   5.286   7.589 -0.3116 -0.2604  0.6187
  168SOPE   H7X18981   0.942   5.251   7.610 -0.6119 -0.7067 -1.4424
  168SOPE   H7Y18982   1.052   5.392   7.624  0.0427  0.5804 -1.8237
  168SOPE   C3818983   1.141   5.191   7.662 -0.4170  1.2728  0.6777
  168SOPE   H8X18984   1.246   5.224   7.649 -0.3413  0.8414  0.1397
  168SOPE   H8Y18985   1.139   5.092   7.611 -1.0679  3.0506 -3.0142
  168SOPE   C3918986   1.105   5.181   7.813 -0.2632  0.1067  0.3262
  168SOPE   H9X18987   1.152   5.086   7.847  1.1655  0.9960  0.9776
  168SOPE   H9Y18988   0.996   5.165   7.822 -0.2320  0.4901  1.5178
  168SOPE  C31018989   1.164   5.295   7.895 -0.3561  0.6056 -0.9628
  168SOPE  H10X18990   1.152   5.269   8.002  0.6348 -1.0777 -1.2145
  168SOPE  H10Y18991   1.113   5.391   7.873 -0.4606  0.9750  0.7447
  168SOPE  C31118992   1.320   5.313   7.882 -0.5246 -0.2618 -0.1724
  168SOPE  H11X18993   1.330   5.384   7.797  0.0371  0.2628  0.3241
  168SOPE  H11Y18994   1.368   5.218   7.850  1.3636  0.0088  1.6452
  168SOPE  C31218995   1.394   5.351   8.009 -0.5408 -0.5490 -0.2882
  168SOPE  H12X18996   1.500   5.366   7.977 -1.4209  0.4918 -3.0028
  168SOPE  H12Y18997   1.387   5.268   8.081 -1.1679 -1.6078 -1.5246
  168SOPE  C31318998   1.341   5.472   8.090 -0.0575 -0.2895  0.6357
  168SOPE  H13X18999   1.232   5.465   8.111  0.3739 -2.7051  2.5239
  168SOPE  H13Y19000   1.361   5.557   8.021  4.1988 -0.9842  0.7375
  168SOPE  C31419001   1.413   5.495   8.219  0.5712  0.3224 -0.4304
  168SOPE  H14X19002   1.395   5.601   8.247 -0.6239  0.2647 -0.9069
  168SOPE  H14Y19003   1.520   5.476   8.196  0.7767 -0.5266  1.1348
  168SOPE  C31519004   1.357   5.411   8.336 -0.1798 -0.2664 -0.4651
  168SOPE  H15X19005   1.379   5.303   8.349 -0.8748 -0.1560  2.4976
  168SOPE  H15Y19006   1.247   5.397   8.342 -0.0920 -0.6622  0.4161
  168SOPE  C31619007   1.383   5.490   8.469  0.0667  0.1343 -0.1132
  168SOPE  H16X19008   1.319   5.580   8.481  1.4615  0.9791  1.2328
  168SOPE  H16Y19009   1.490   5.518   8.468  0.1301  0.0290  1.3734
  168SOPE  C31719010   1.361   5.397   8.591 -0.3226 -0.7596  0.3876
  168SOPE  H17X19011   1.411   5.457   8.670 -1.2395  3.9783 -2.1908
  168SOPE  H17Y19012   1.402   5.299   8.560  2.2023  0.3593 -0.0309
  168SOPE  C31819013   1.211   5.387   8.623 -0.5548 -0.1237  0.2009
  168SOPE  H18X19014   1.149   5.349   8.539  0.3853  1.1721 -1.1241
  168SOPE  H18Y19015   1.161   5.480   8.656  0.5381  0.8108 -0.7022
  168SOPE  H18Z19016   1.211   5.304   8.697 -3.2722 -0.1158  0.3281
  169SOPE     N19017   2.737   5.636   6.178  0.1111 -0.7083  0.3027
  169SOPE   HN119018   2.767   5.719   6.123  0.1837 -0.2258  1.0539
  169SOPE   HN219019   2.801   5.562   6.144  0.0444 -1.1019  1.0178
  169SOPE   HN319020   2.638   5.609   6.163  0.1756 -0.2108 -1.1769
  169SOPE   C1219021   2.752   5.664   6.327  0.7524 -0.1332  0.5907
  169SOPE  H12A19022   2.801   5.579   6.378  0.1922 -0.4555  0.5970
  169SOPE  H12B19023   2.649   5.689   6.361  0.7885  1.0465 -0.0974
  169SOPE   C1119024   2.837   5.786   6.368 -0.1704 -0.0121  0.0311
  169SOPE  H11A19025   2.942   5.756   6.344 -0.9178 -1.4301 -1.7632
  169SOPE  H11B19026   2.834   5.806   6.477 -1.3612  0.4177 -0.0715
  169SOPE     P19027   2.739   6.028   6.337  0.0189  0.2108 -0.1429
  169SOPE   O1319028   2.615   6.042   6.253  0.1285 -0.6821  0.3181
  169SOPE   O1419029   2.839   6.131   6.331 -0.2514  0.3812  0.1511
  169SOPE   O1219030   2.818   5.898   6.288 -0.1719  0.5408  0.1763
  169SOPE   O1119031   2.694   6.011   6.490  1.0272 -0.6265 -0.4636
  169SOPE    C119032   2.726   6.102   6.590 -0.5327 -0.3967 -0.8076
  169SOPE    HA19033   2.818   6.163   6.574 -0.4385  0.4206  2.2194
  169SOPE    HB19034   2.733   6.049   6.688 -3.6940  1.7036  0.7140
  169SOPE    C219035   2.613   6.210   6.602  0.4114 -0.1878 -0.5161
  169SOPE    HS19036   2.618   6.253   6.500  2.2081 -1.1356 -0.8761
  169SOPE   O2119037   2.645   6.308   6.702  0.6837 -0.3547 -0.3929
  169SOPE   C2119038   2.606   6.429   6.673 -0.3828 -0.2230  0.2296
  169SOPE   O2219039   2.537   6.464   6.576 -0.2845 -0.0733  0.8692
  169SOPE   C2219040   2.661   6.519   6.787  0.3426  0.4024 -0.2240
  169SOPE   H2R19041   2.770   6.513   6.768  0.6325  0.3478  1.3748
  169SOPE   H2S19042   2.626   6.478   6.883  0.7772 -0.5657 -0.4633
  169SOPE    C319043   2.475   6.142   6.627  0.8199  0.3867  0.4077
  169SOPE    HX19044   2.457   6.078   6.538  0.3201  1.7390 -0.5175
  169SOPE    HY19045   2.396   6.221   6.630 -0.8067 -1.1266 -0.6783
  169SOPE   O3119046   2.467   6.056   6.741 -0.2903 -0.0667 -0.7021
  169SOPE   C3119047   2.349   5.988   6.748  0.0265  0.2721 -0.3898
  169SOPE   O3219048   2.257   6.014   6.670  0.1173 -0.5095  0.1661
  169SOPE   C3219049   2.345   5.887   6.856  0.2187 -0.4127  0.1992
  169SOPE   H2X19050   2.436   5.902   6.919  1.7811 -0.4283 -1.9616
  169SOPE   H2Y19051   2.344   5.783   6.816 -1.2749 -0.2113 -0.3498
  169SOPE   C2319052   2.618   6.667   6.781  0.0316  0.1529  0.0865
  169SOPE   H3R19053   2.516   6.673   6.824  1.6116 -0.6797  4.4405
  169SOPE   H3S19054   2.625   6.708   6.678 -1.5338  1.6199  0.5169
  169SOPE   C2419055   2.723   6.743   6.863  0.0997  0.0503  0.4732
  169SOPE   H4R19056   2.716   6.709   6.969 -0.2237  0.6210  0.6397
  169SOPE   H4S19057   2.820   6.716   6.815 -0.7722 -0.8294 -0.8408
  169SOPE   C2519058   2.705   6.896   6.865  0.6076  0.3021  0.3868
  169SOPE   H5R19059   2.808   6.936   6.880  0.0556  1.3105  1.7084
  169SOPE   H5S19060   2.661   6.939   6.772  0.1191  0.9331  0.8956
  169SOPE   C2619061   2.600   6.941   6.952  0.6272 -0.0983 -0.5522
  169SOPE   H6R19062   2.499   6.926   6.906 -0.0364 -1.3746  1.2102
  169SOPE   H6S19063   2.589   6.898   7.053  0.2375 -0.6443 -0.8178
  169SOPE   C2719064   2.616   7.091   6.974  0.1055  0.2721  0.6686
  169SOPE   H7R19065   2.720   7.100   7.012  0.3035 -2.6646  1.0935
  169SOPE   H7S19066   2.621   7.129   6.870  0.3612 -0.6765  0.3192
  169SOPE   C2819067   2.531   7.158   7.079  0.8045 -0.7517  0.8424
  169SOPE   H8R19068   2.553   7.103   7.172  0.9107 -0.6579  0.8725
  169SOPE   H8S19069   2.559   7.264   7.091 -0.1508 -0.5127  1.0531
  169SOPE   C2919070   2.380   7.153   7.053 -0.4548 -0.6266 -0.4275
  169SOPE   H9119071   2.350   7.207   6.961  0.6316  0.1497 -0.3461
  169SOPE  C21019072   2.284   7.103   7.133 -0.3188  0.5314  0.6547
  169SOPE  H10119073   2.178   7.118   7.109  0.1714  1.2493 -1.2809
  169SOPE  C21119074   2.320   7.031   7.258 -0.4167  0.4870 -0.1025
  169SOPE  H11R19075   2.429   7.013   7.266 -0.5552 -0.5616 -0.3472
  169SOPE  H11S19076   2.259   6.939   7.266 -1.9931  1.5044  0.0474
  169SOPE  C21219077   2.262   7.115   7.382 -0.0080 -0.0004 -0.0802
  169SOPE  H12R19078   2.254   7.055   7.475  0.9207  2.4382  1.6805
  169SOPE  H12S19079   2.163   7.154   7.352  0.3272  2.1347  1.3037
  169SOPE  C21319080   2.360   7.232   7.417 -0.3604 -0.2788 -0.1717
  169SOPE  H13R19081   2.320   7.304   7.492  1.2837  1.1897 -0.6352
  169SOPE  H13S19082   2.381   7.292   7.326  0.2126  0.8199  0.6442
  169SOPE  C21419083   2.491   7.194   7.477 -0.3471 -0.3155 -0.0083
  169SOPE  H14R19084   2.537   7.123   7.406 -0.6442  2.2646 -2.9761
  169SOPE  H14S19085   2.468   7.148   7.576  0.9970 -2.6253 -0.6885
  169SOPE  C21519086   2.596   7.308   7.488  0.3055 -0.2465  0.1774
  169SOPE  H15R19087   2.570   7.374   7.573  0.7351  0.5608 -0.3112
  169SOPE  H15S19088   2.597   7.364   7.391  1.4769 -0.7198 -0.1077
  169SOPE  C21619089   2.729   7.246   7.513 -0.0538 -0.2038 -0.0643
  169SOPE  H16R19090   2.760   7.197   7.418 -2.2497 -1.5095 -0.1815
  169SOPE  H16S19091   2.706   7.168   7.590  0.6761  0.9959  1.4183
  169SOPE  C21719092   2.841   7.351   7.549  0.0937 -0.2747  0.3209
  169SOPE  H17R19093   2.815   7.430   7.622 -0.5131 -0.2010  0.0326
  169SOPE  H17S19094   2.852   7.403   7.452 -3.6273 -0.3581 -0.2844
  169SOPE  C21819095   2.972   7.298   7.595 -0.3864  0.2218 -1.1011
  169SOPE  H18R19096   2.956   7.227   7.680 -2.3828 -0.3084 -1.8760
  169SOPE  H18S19097   3.050   7.374   7.617 -0.1206 -0.3348  0.0097
  169SOPE  H18T19098   3.009   7.233   7.514 -2.5996  0.1296 -2.1097
  169SOPE   C3319099   2.216   5.899   6.959 -0.2094 -0.8846  0.4625
  169SOPE   H3X19100   2.211   5.810   7.026 -1.6934 -1.8799 -0.8826
  169SOPE   H3Y19101   2.117   5.903   6.908  0.7078  0.8127 -1.3274
  169SOPE   C3419102   2.230   6.025   7.038  0.1394 -0.6217 -0.3147
  169SOPE   H4X19103   2.225   6.108   6.964 -1.3180 -0.4427 -0.0319
  169SOPE   H4Y19104   2.318   6.041   7.104  0.1725 -0.1650 -0.4679
  169SOPE   C3519105   2.124   6.040   7.144 -0.3375  0.3487 -0.0780
  169SOPE   H5X19106   2.138   5.956   7.216 -0.1235 -1.3729 -2.0433
  169SOPE   H5Y19107   2.024   6.034   7.097 -0.1690  2.2322 -0.7299
  169SOPE   C3619108   2.141   6.172   7.231  0.0106  0.3629  0.2331
  169SOPE   H6X19109   2.165   6.260   7.166  1.0053 -0.5689 -0.7032
  169SOPE   H6Y19110   2.237   6.158   7.286  0.1807  0.6283  0.0145
  169SOPE   C3719111   2.024   6.195   7.321 -0.4287 -0.1639  0.9393
  169SOPE   H7X19112   1.931   6.189   7.260 -0.5482  0.6934  1.0201
  169SOPE   H7Y19113   2.042   6.298   7.359  1.1716 -0.2058  0.3591
  169SOPE   C3819114   2.026   6.106   7.443 -0.3484 -0.6427 -0.0464
  169SOPE   H8X19115   1.928   6.107   7.495  0.3306  1.7491  1.3461
  169SOPE   H8Y19116   2.046   5.998   7.427  3.0868 -0.1520  0.1261
  169SOPE   C3919117   2.140   6.138   7.542  0.1614 -0.0683 -0.1620
  169SOPE   H9X19118   2.166   6.246   7.532 -2.4850  0.5976 -0.6510
  169SOPE   H9Y19119   2.228   6.072   7.534 -1.4794 -2.2343 -1.3355
  169SOPE  C31019120   2.088   6.133   7.685 -0.6197 -0.7247 -0.1882
  169SOPE  H10X19121   2.023   6.043   7.694 -0.1393 -1.0142  0.5512
  169SOPE  H10Y19122   2.021   6.219   7.705 -0.4101 -1.0767  2.3602
  169SOPE  C31119123   2.199   6.130   7.792 -0.1848  0.2029  0.3644
  169SOPE  H11X19124   2.247   6.228   7.771 -2.2460  1.0055 -0.8213
  169SOPE  H11Y19125   2.263   6.041   7.772  1.9956  1.5689  0.8296
  169SOPE  C31219126   2.143   6.131   7.931  0.1295 -0.2066 -0.2804
  169SOPE  H12X19127   2.087   6.037   7.953  3.4501 -1.9564  1.4532
  169SOPE  H12Y19128   2.068   6.212   7.943  1.1304  0.8226 -0.8130
  169SOPE  C31319129   2.260   6.144   8.034  0.2692  0.5108 -0.5380
  169SOPE  H13X19130   2.351   6.191   7.991  1.4920 -1.7290 -0.5817
  169SOPE  H13Y19131   2.294   6.040   8.055  2.2359  1.2248  0.1194
  169SOPE  C31419132   2.226   6.214   8.169  0.7251  0.1549  0.1729
  169SOPE  H14X19133   2.148   6.153   8.218  1.6003  0.4952  2.0554
  169SOPE  H14Y19134   2.170   6.307   8.143 -1.7367 -1.7298 -1.6700
  169SOPE  C31519135   2.343   6.232   8.260  0.3117  0.3569  0.1066
  169SOPE  H15X19136   2.416   6.301   8.211  1.8624 -1.4367 -0.2380
  169SOPE  H15Y19137   2.396   6.135   8.270  0.0178  0.3211  1.3541
  169SOPE  C31619138   2.318   6.288   8.400 -0.1405  0.1857 -0.3708
  169SOPE  H16X19139   2.228   6.235   8.439 -1.0698  2.1342  0.2374
  169SOPE  H16Y19140   2.299   6.397   8.400 -1.4755 -0.0072  1.4192
  169SOPE  C31719141   2.434   6.263   8.496  0.0825 -0.0134  0.2329
  169SOPE  H17X19142   2.520   6.329   8.472  0.1024  0.9522  2.7369
  169SOPE  H17Y19143   2.461   6.156   8.481 -0.4604  0.0429 -1.4111
  169SOPE  C31819144   2.407   6.276   8.645 -0.4765 -0.2162  0.3207
  169SOPE  H18X19145   2.499   6.257   8.705  0.5604 -1.1760 -1.4865
  169SOPE  H18Y19146   2.326   6.207   8.675 -0.6544  0.8824  2.6315
  169SOPE  H18Z19147   2.369   6.377   8.674 -1.5321 -0.3312 -0.6188
  170SOPE     N19148   4.712   0.328   6.058  0.0160 -0.3937  0.3786
  170SOPE   HN119149   4.644   0.249   6.052  0.9640 -1.2772  0.9814
  170SOPE   HN219150   4.675   0.414   6.013 -0.3272 -0.4916  0.4713
  170SOPE   HN319151   4.788   0.284   6.002  0.9462 -0.2382  1.4839
  170SOPE   C1219152   4.738   0.361   6.199 -0.0209 -0.0230  0.2087
  170SOPE  H12A19153   4.676   0.286   6.253  0.7012 -0.5488  0.3188
  170SOPE  H12B19154   4.711   0.465   6.226  0.7151 -0.1145  1.3592
  170SOPE   C1119155   4.888   0.324   6.220 -0.2413  0.6929 -0.7454
  170SOPE  H11A19156   4.914   0.364   6.321 -0.2869  0.9003 -0.8151
  170SOPE  H11B19157   4.947   0.360   6.133  1.3409  0.1150  0.0503
  170SOPE     P19158   5.010   0.103   6.292 -0.3949 -0.1346  0.3842
  170SOPE   O1319159   5.140   0.144   6.232 -0.0858  0.1348 -0.1161
  170SOPE   O1419160   4.978  -0.047   6.295 -0.1716 -0.1840  0.3668
  170SOPE   O1219161   4.894   0.182   6.218  0.6181  0.9033 -0.1033
  170SOPE   O1119162   4.991   0.161   6.436 -0.3220 -0.0222  0.7076
  170SOPE    C119163   4.868   0.131   6.501  1.0341 -0.9725  0.2929
  170SOPE    HA19164   4.862   0.031   6.550  1.2028 -2.1511 -1.9568
  170SOPE    HB19165   4.779   0.162   6.442  2.4210  1.3533 -0.7361
  170SOPE    C219166   4.857   0.219   6.626  0.3852 -0.2411  0.6756
  170SOPE    HS19167   4.857   0.317   6.573  0.1601 -0.7788 -0.3455
  170SOPE   O2119168   4.974   0.191   6.704  0.0483 -0.4611 -0.6190
  170SOPE   C2119169   5.035   0.286   6.769 -0.0509 -0.1732  0.1426
  170SOPE   O2219170   5.007   0.402   6.759 -0.1400 -0.4689  0.2183
  170SOPE   C2219171   5.145   0.225   6.860  0.1938 -0.0886  0.2878
  170SOPE   H2R19172   5.226   0.182   6.797  0.8591  2.6328 -0.8667
  170SOPE   H2S19173   5.095   0.142   6.913 -1.3306 -0.5996 -1.8256
  170SOPE    C319174   4.726   0.189   6.709  0.0472  0.5400 -0.5550
  170SOPE    HX19175   4.743   0.084   6.741  1.6911  0.7306 -0.7140
  170SOPE    HY19176   4.640   0.201   6.641 -0.5632 -1.9055 -0.2743
  170SOPE   O3119177   4.722   0.268   6.828 -0.2536 -0.5635  0.4010
  170SOPE   C3119178   4.712   0.402   6.803  0.2981 -0.1285 -0.3738
  170SOPE   O3219179   4.693   0.449   6.699 -0.6081  0.1617  0.6218
  170SOPE   C3219180   4.704   0.483   6.932 -0.5089 -0.3882  0.3467
  170SOPE   H2X19181   4.749   0.410   7.003 -0.4169 -1.5191 -0.8337
  170SOPE   H2Y19182   4.597   0.494   6.958 -0.5479  0.3963 -0.1176
  170SOPE   C2319183   5.199   0.318   6.966 -0.3353  0.7539  1.2972
  170SOPE   H3R19184   5.231   0.405   6.905  0.5438 -0.3085  0.1904
  170SOPE   H3S19185   5.291   0.287   7.020 -1.2423  0.6566  2.8551
  170SOPE   C2419186   5.094   0.343   7.069 -0.1264  1.0512  0.5148
  170SOPE   H4R19187   5.016   0.408   7.023  0.5921  0.7292 -1.2303
  170SOPE   H4S19188   5.058   0.243   7.101 -0.3920 -0.4659 -3.8618
  170SOPE   C2519189   5.165   0.416   7.186  0.1267 -0.4029  0.2727
  170SOPE   H5R19190   5.243   0.349   7.230  0.7347  0.6196  0.7983
  170SOPE   H5S19191   5.207   0.510   7.143  0.7437  1.3598  4.2108
  170SOPE   C2619192   5.068   0.458   7.300  0.4522 -0.3204  0.7788
  170SOPE   H6R19193   5.002   0.539   7.260  2.1260  0.9445  0.4947
  170SOPE   H6S19194   5.035   0.363   7.348  4.1796 -1.1087  2.0715
  170SOPE   C2719195   5.147   0.530   7.407  0.5721 -0.9263 -0.5270
  170SOPE   H7R19196   5.235   0.466   7.431  0.3495 -0.9905  0.1373
  170SOPE   H7S19197   5.185   0.631   7.379  2.0246 -0.5607  2.3847
  170SOPE   C2819198   5.061   0.559   7.527  0.0931  0.3242 -0.4457
  170SOPE   H8R19199   4.964   0.602   7.495  0.3503 -0.1401 -1.9525
  170SOPE   H8S19200   5.031   0.465   7.579 -0.2770  0.5334 -0.2782
  170SOPE   C2919201   5.139   0.643   7.625 -0.2979 -0.1823 -0.2886
  170SOPE   H9119202   5.248   0.635   7.620 -0.1578 -0.3302  1.9511
  170SOPE  C21019203   5.091   0.740   7.707  0.3098  0.3458 -0.1609
  170SOPE  H10119204   5.156   0.779   7.786 -1.7087 -2.2807  3.0780
  170SOPE  C21119205   4.949   0.787   7.732 -0.3384  0.2832  0.7310
  170SOPE  H11R19206   4.873   0.751   7.660  1.3922  1.8482 -2.0812
  170SOPE  H11S19207   4.940   0.897   7.717  1.0284  0.3134 -0.0745
  170SOPE  C21219208   4.901   0.750   7.874  0.5251  0.7247 -0.4465
  170SOPE  H12R19209   4.816   0.812   7.910 -0.8780 -0.4000 -1.6909
  170SOPE  H12S19210   4.969   0.781   7.956 -0.0955 -0.1387  0.4134
  170SOPE  C21319211   4.851   0.601   7.896 -0.4144 -0.4438  0.5285
  170SOPE  H13R19212   4.923   0.534   7.845  0.5395 -1.6777  3.2488
  170SOPE  H13S19213   4.753   0.588   7.846  0.0244  1.0792 -0.7786
  170SOPE  C21419214   4.846   0.555   8.042  0.3773  0.0518  0.0626
  170SOPE  H14R19215   4.941   0.575   8.096 -0.8474 -1.9999  3.2493
  170SOPE  H14S19216   4.837   0.444   8.040 -0.1310  0.0850  0.2592
  170SOPE  C21519217   4.740   0.627   8.114  0.1137  0.1561  0.3202
  170SOPE  H15R19218   4.648   0.608   8.054  1.8905  1.0840 -2.8804
  170SOPE  H15S19219   4.747   0.738   8.113  0.4862  0.1295  0.1337
  170SOPE  C21619220   4.720   0.588   8.265  0.7148  0.5523 -0.1902
  170SOPE  H16R19221   4.751   0.483   8.284  0.9114  0.7848  0.8031
  170SOPE  H16S19222   4.609   0.590   8.275  0.8466  1.9465  1.4572
  170SOPE  C21719223   4.783   0.689   8.357 -0.1215  1.1225  0.3377
  170SOPE  H17R19224   4.716   0.681   8.446  0.1145 -1.3421  0.3622
  170SOPE  H17S19225   4.769   0.792   8.319 -0.4308  0.7063 -0.7284
  170SOPE  C21819226   4.929   0.667   8.410 -0.5211 -0.2315 -0.0757
  170SOPE  H18R19227   5.005   0.666   8.330 -2.0253  0.4591 -1.5790
  170SOPE  H18S19228   4.939   0.574   8.470 -1.3253 -1.2663 -1.4863
  170SOPE  H18T19229   4.951   0.752   8.479 -1.2784 -1.3296  1.5857
  170SOPE   C3319230   4.794   0.608   6.926  0.1944 -0.2287 -0.5319
  170SOPE   H3X19231   4.759   0.691   6.860  1.7427 -0.5108 -1.7691
  170SOPE   H3Y19232   4.898   0.585   6.896  0.6816  1.4338 -0.2119
  170SOPE   C3419233   4.815   0.677   7.067  0.3314  0.2714  0.6544
  170SOPE   H4X19234   4.835   0.594   7.137  0.5272 -1.2057 -1.0728
  170SOPE   H4Y19235   4.718   0.722   7.097 -1.0392  0.6720 -3.6808
  170SOPE   C3519236   4.923   0.787   7.056  0.0248  0.8584  0.4419
  170SOPE   H5X19237   4.894   0.866   6.983  0.3246  1.8855  1.3979
  170SOPE   H5Y19238   5.013   0.733   7.021 -1.1343  0.5797 -2.4376
  170SOPE   C3619239   4.947   0.861   7.189  0.0692  0.5472  0.3366
  170SOPE   H6X19240   5.041   0.920   7.193  0.2794  0.7473 -3.3718
  170SOPE   H6Y19241   4.946   0.789   7.273 -0.4349  0.7303  0.4956
  170SOPE   C3719242   4.827   0.955   7.215  0.3825 -0.2096  0.2413
  170SOPE   H7X19243   4.733   0.905   7.184 -0.1280  0.2053  1.0597
  170SOPE   H7Y19244   4.820   1.037   7.141 -0.0694 -0.4123  0.0592
  170SOPE   C3819245   4.814   1.018   7.348  0.4768 -0.2819  0.4983
  170SOPE   H8X19246   4.915   1.050   7.381  0.8678  0.2918 -1.1283
  170SOPE   H8Y19247   4.783   0.937   7.417  1.9113 -0.1427  1.3388
  170SOPE   C3919248   4.708   1.123   7.360 -0.0205  0.3026 -0.7731
  170SOPE   H9X19249   4.601   1.091   7.355 -0.2446  1.0057 -0.5934
  170SOPE   H9Y19250   4.732   1.192   7.277  2.2019  0.4216 -0.0813
  170SOPE  C31019251   4.718   1.203   7.490 -0.3342 -0.3871  0.7761
  170SOPE  H10X19252   4.634   1.275   7.491  0.5375  0.6788 -0.1509
  170SOPE  H10Y19253   4.810   1.265   7.502 -2.8444  3.8591 -0.0180
  170SOPE  C31119254   4.699   1.116   7.607  0.2506  0.1433  0.1491
  170SOPE  H11X19255   4.779   1.039   7.608  1.0637  0.9386 -0.8930
  170SOPE  H11Y19256   4.603   1.062   7.614  0.0314  0.4657 -0.3783
  170SOPE  C31219257   4.726   1.189   7.748 -0.0068 -0.5648 -0.9055
  170SOPE  H12X19258   4.656   1.275   7.757  0.0505 -0.4673 -1.3762
  170SOPE  H12Y19259   4.827   1.229   7.728 -0.5931  0.7291 -1.3950
  170SOPE  C31319260   4.735   1.094   7.870 -0.7037 -0.0864  0.9584
  170SOPE  H13X19261   4.789   1.151   7.949 -0.8951  2.0367 -0.3512
  170SOPE  H13Y19262   4.790   1.005   7.834  0.5215  1.1364 -0.3152
  170SOPE  C31419263   4.600   1.055   7.923  0.9162  0.1480  0.9421
  170SOPE  H14X19264   4.570   0.964   7.867  0.0799 -0.6711  2.6509
  170SOPE  H14Y19265   4.527   1.138   7.919 -1.3201 -1.7405  0.7641
  170SOPE  C31519266   4.615   1.013   8.076  0.4763  0.5626  0.1282
  170SOPE  H15X19267   4.662   1.104   8.119  1.7761 -0.6422  1.3318
  170SOPE  H15Y19268   4.679   0.923   8.075  2.7084  1.9505 -3.7997
  170SOPE  C31619269   4.480   0.993   8.154 -0.6237 -0.5498 -0.7795
  170SOPE  H16X19270   4.429   0.903   8.113  0.0825 -1.2965 -0.0486
  170SOPE  H16Y19271   4.408   1.078   8.153 -1.0911 -0.6700  3.5036
  170SOPE  C31719272   4.505   0.965   8.302 -0.2846  0.5104  0.0511
  170SOPE  H17X19273   4.540   1.059   8.349  1.4054  0.0687 -0.2530
  170SOPE  H17Y19274   4.597   0.905   8.317 -0.0796  1.5021  3.5324
  170SOPE  C31819275   4.384   0.909   8.363 -0.3288  0.5340  0.7544
  170SOPE  H18X19276   4.362   0.815   8.308 -1.4184 -0.0127  2.0635
  170SOPE  H18Y19277   4.300   0.982   8.372 -0.2693  0.6003  0.7734
  170SOPE  H18Z19278   4.396   0.877   8.468 -0.9229 -1.0388  0.3661
  171SOPE     N19279   5.352   6.115   6.400  0.6298 -0.5704 -0.5732
  171SOPE   HN119280   5.313   6.125   6.496 -2.0754 -1.5054 -1.4771
  171SOPE   HN219281   5.269   6.090   6.342 -0.7499 -1.6492  1.7108
  171SOPE   HN319282   5.411   6.029   6.404  1.2980 -0.0816  0.3186
  171SOPE   C1219283   5.426   6.238   6.351 -0.4407 -0.2168 -0.1434
  171SOPE  H12A19284   5.353   6.320   6.334  0.1152  0.2726 -0.1642
  171SOPE  H12B19285   5.477   6.217   6.255  0.5438  0.1264  0.2929
  171SOPE   C1119286   5.516   6.294   6.459 -0.2509 -0.0579 -0.3788
  171SOPE  H11A19287   5.465   6.281   6.557  0.1681 -0.1923 -0.1715
  171SOPE  H11B19288   5.531   6.403   6.444 -1.0936 -0.2905 -3.5003
  171SOPE     P19289   5.763   6.254   6.390 -0.1529  0.3106 -0.1918
  171SOPE   O1319290   5.734   6.299   6.254 -0.3635 -0.2037 -0.6374
  171SOPE   O1419291   5.857   6.137   6.403  0.4385  0.0292  0.0413
  171SOPE   O1219292   5.636   6.219   6.472 -0.1313 -0.3831  0.2438
  171SOPE   O1119293   5.822   6.378   6.470  0.2584 -0.3147  0.2908
  171SOPE    C119294   5.831   6.364   6.613 -0.3409  0.3559 -0.0987
  171SOPE    HA19295   5.929   6.392   6.655 -0.0706  0.8226 -1.0158
  171SOPE    HB19296   5.811   6.261   6.651 -2.6259  0.1645 -1.5927
  171SOPE    C219297   5.738   6.460   6.686  0.4130  0.0119  0.3393
  171SOPE    HS19298   5.636   6.433   6.650  0.5587  0.5681 -0.5084
  171SOPE   O2119299   5.762   6.603   6.656  0.4529 -0.4384  0.5460
  171SOPE   C2119300   5.655   6.676   6.633 -1.0315  0.0347 -0.2980
  171SOPE   O2219301   5.539   6.635   6.631 -0.5153  0.7745 -0.1544
  171SOPE   C2219302   5.698   6.819   6.604  0.3265 -0.2732  0.1342
  171SOPE   H2R19303   5.674   6.842   6.498 -1.1246  1.1242  0.7115
  171SOPE   H2S19304   5.809   6.827   6.612  0.2965 -0.8188  1.2349
  171SOPE    C319305   5.739   6.431   6.835  0.0023  0.8522 -0.1090
  171SOPE    HX19306   5.842   6.398   6.860 -0.0712 -0.0295 -0.9384
  171SOPE    HY19307   5.664   6.351   6.853  1.4267 -0.2224  1.3743
  171SOPE   O3119308   5.700   6.557   6.906 -0.7945  0.4593 -0.3488
  171SOPE   C3119309   5.651   6.540   7.025  0.3426 -0.8119  0.3193
  171SOPE   O3219310   5.640   6.437   7.087 -0.1348  0.1269  0.0154
  171SOPE   C3219311   5.604   6.674   7.076 -0.1802 -0.0615 -0.4209
  171SOPE   H2X19312   5.597   6.753   6.998 -0.7192  0.1760 -0.1411
  171SOPE   H2Y19313   5.672   6.717   7.153 -0.5408  0.8458 -0.5909
  171SOPE   C2319314   5.624   6.933   6.681 -0.1204 -0.9115  0.3430
  171SOPE   H3R19315   5.529   6.894   6.725 -0.0876  0.6479  1.9267
  171SOPE   H3S19316   5.583   7.010   6.612  0.9335  0.1741  0.8910
  171SOPE   C2419317   5.710   7.004   6.787  0.2658  0.4715 -0.2003
  171SOPE   H4R19318   5.774   6.923   6.829  1.9942  2.2487  0.7016
  171SOPE   H4S19319   5.775   7.085   6.749  1.9291 -0.6258  0.1961
  171SOPE   C2519320   5.617   7.070   6.893  0.0337 -0.8256 -0.2451
  171SOPE   H5R19321   5.581   7.164   6.846  0.4195  0.6517  2.2194
  171SOPE   H5S19322   5.525   7.013   6.914 -0.3467 -0.3118 -0.4834
  171SOPE   C2619323   5.685   7.107   7.022  0.0058  0.7774  0.4857
  171SOPE   H6R19324   5.731   7.013   7.060 -1.2440 -1.3294 -2.7615
  171SOPE   H6S19325   5.770   7.175   7.003  0.8493 -0.3379  0.1367
  171SOPE   C2719326   5.591   7.174   7.117  0.5793 -0.2382 -0.0363
  171SOPE   H7R19327   5.557   7.272   7.077  0.4890 -0.1035  0.3629
  171SOPE   H7S19328   5.515   7.095   7.133  0.0167  0.4913  1.0211
  171SOPE   C2819329   5.662   7.199   7.256 -0.3239  0.5048  0.0015
  171SOPE   H8R19330   5.694   7.100   7.296  0.1639  0.6805  0.0506
  171SOPE   H8S19331   5.758   7.254   7.245 -1.4061  2.2002 -1.5301
  171SOPE   C2919332   5.572   7.274   7.356  0.0095  0.1607 -0.0102
  171SOPE   H9119333   5.530   7.369   7.319  1.9066  0.6250 -1.0834
  171SOPE  C21019334   5.529   7.230   7.474 -0.2543  0.3149 -0.6176
  171SOPE  H10119335   5.474   7.302   7.537  0.0089 -0.4878  0.5650
  171SOPE  C21119336   5.562   7.101   7.552  0.0022 -0.4578 -0.5495
  171SOPE  H11R19337   5.624   7.022   7.505  1.1587 -0.9618  1.7040
  171SOPE  H11S19338   5.466   7.049   7.574 -0.8801  0.9915 -0.7905
  171SOPE  C21219339   5.646   7.151   7.669  0.4696  0.7288 -0.2687
  171SOPE  H12R19340   5.603   7.236   7.726  0.1109  0.5110 -0.2095
  171SOPE  H12S19341   5.735   7.204   7.630  1.0127  2.4002  2.9054
  171SOPE  C21319342   5.674   7.035   7.767  0.7562  0.5678  0.2957
  171SOPE  H13R19343   5.710   6.947   7.709 -3.4574 -1.7695  0.7751
  171SOPE  H13S19344   5.571   7.007   7.798  1.0922 -2.9660 -1.2886
  171SOPE  C21419345   5.767   7.067   7.888  0.2403  0.1268  1.2331
  171SOPE  H14R19346   5.871   7.099   7.863  0.1682  0.1419  0.9496
  171SOPE  H14S19347   5.769   6.972   7.944 -0.1284 -0.8350 -0.3335
  171SOPE  C21519348   5.705   7.174   7.979  0.5403  0.0936  1.2566
  171SOPE  H15R19349   5.605   7.133   8.004  0.2604  0.1099  0.2119
  171SOPE  H15S19350   5.703   7.259   7.907  1.2514 -1.5386 -0.7895
  171SOPE  C21619351   5.788   7.197   8.110 -0.3806  0.3126 -0.6541
  171SOPE  H16R19352   5.882   7.250   8.085 -0.2771 -0.1265 -1.2152
  171SOPE  H16S19353   5.817   7.102   8.161 -1.2999  0.6367  0.5037
  171SOPE  C21719354   5.704   7.285   8.209 -0.6228  1.1148 -0.0838
  171SOPE  H17R19355   5.605   7.241   8.235 -0.6082  0.5998 -0.8443
  171SOPE  H17S19356   5.683   7.376   8.149 -1.1597  1.7650  1.0643
  171SOPE  C21819357   5.765   7.345   8.331 -0.5004 -0.0702  0.9921
  171SOPE  H18R19358   5.780   7.273   8.414  0.5956  0.2588  1.0992
  171SOPE  H18S19359   5.687   7.419   8.360 -2.4861 -1.0947 -1.3548
  171SOPE  H18T19360   5.865   7.390   8.312 -1.2431  0.4952 -2.1268
  171SOPE   C3319361   5.465   6.670   7.137  0.4090  0.9332 -0.2078
  171SOPE   H3X19362   5.397   6.611   7.072  0.2954  1.0578 -0.2019
  171SOPE   H3Y19363   5.425   6.773   7.152  0.1915  0.5667  2.0648
  171SOPE   C3419364   5.460   6.628   7.282  0.8977 -0.4370 -0.3538
  171SOPE   H4X19365   5.544   6.558   7.301  0.1555 -0.9164  1.3464
  171SOPE   H4Y19366   5.367   6.567   7.292 -0.6285  1.5093 -1.7716
  171SOPE   C3519367   5.466   6.745   7.386 -0.1520 -0.0548  0.0436
  171SOPE   H5X19368   5.364   6.761   7.427  0.3200 -1.2642  1.8032
  171SOPE   H5Y19369   5.515   6.833   7.340  1.4138 -1.5592 -1.3461
  171SOPE   C3619370   5.541   6.693   7.510 -0.5879 -0.3640  0.3012
  171SOPE   H6X19371   5.590   6.774   7.568 -1.2531 -1.8335  3.1146
  171SOPE   H6Y19372   5.615   6.618   7.474 -1.6777 -1.1054 -0.4763
  171SOPE   C3719373   5.449   6.610   7.595 -0.1102 -0.0145  0.5645
  171SOPE   H7X19374   5.423   6.514   7.547  3.3719 -2.6609  3.4197
  171SOPE   H7Y19375   5.358   6.670   7.618 -0.3624  0.9343 -2.4613
  171SOPE   C3819376   5.537   6.562   7.719 -0.1705 -0.2744 -0.0429
  171SOPE   H8X19377   5.582   6.656   7.758  0.2677 -1.0863  1.4698
  171SOPE   H8Y19378   5.616   6.500   7.673  1.3821 -0.3343  2.5187
  171SOPE   C3919379   5.463   6.491   7.832 -0.1407  0.0346  0.2512
  171SOPE   H9X19380   5.447   6.388   7.794  1.1250 -0.2846  0.5409
  171SOPE   H9Y19381   5.360   6.530   7.847 -0.5250 -1.1055  0.6837
  171SOPE  C31019382   5.531   6.484   7.963 -0.5471  0.3150 -0.6032
  171SOPE  H10X19383   5.579   6.584   7.972 -2.3182  1.1351  0.2373
  171SOPE  H10Y19384   5.608   6.404   7.956  0.5815  1.4912 -2.4536
  171SOPE  C31119385   5.428   6.465   8.081 -0.3629 -0.2301 -0.1437
  171SOPE  H11X19386   5.362   6.554   8.075 -1.1663 -0.8632 -1.0458
  171SOPE  H11Y19387   5.481   6.472   8.178 -0.1550  1.9010 -0.3643
  171SOPE  C31219388   5.349   6.335   8.074  0.2658 -0.2988  0.2221
  171SOPE  H12X19389   5.421   6.255   8.099 -0.6842 -0.9784  0.8490
  171SOPE  H12Y19390   5.313   6.318   7.970  2.3554 -2.0890 -0.2650
  171SOPE  C31319391   5.225   6.318   8.165 -0.6638 -0.5815 -0.3812
  171SOPE  H13X19392   5.262   6.319   8.270 -0.1840 -0.8781 -0.5398
  171SOPE  H13Y19393   5.189   6.214   8.152  0.1712 -0.8072 -1.0096
  171SOPE  C31419394   5.107   6.415   8.138 -1.4183 -0.9453  0.4497
  171SOPE  H14X19395   5.077   6.390   8.034  0.4312 -0.0989 -0.3317
  171SOPE  H14Y19396   5.148   6.517   8.128 -2.1474 -0.6321  0.6345
  171SOPE  C31519397   4.994   6.408   8.243  0.3952 -0.1455  0.3249
  171SOPE  H15X19398   4.966   6.301   8.241 -0.7046  0.0021  2.9153
  171SOPE  H15Y19399   4.907   6.466   8.207  1.4231  0.9852 -0.4309
  171SOPE  C31619400   5.021   6.435   8.392  0.5145  0.3991 -0.3355
  171SOPE  H16X19401   5.011   6.542   8.418 -3.7774 -0.2455  1.4812
  171SOPE  H16Y19402   5.125   6.403   8.418  0.1884  0.8607  1.7260
  171SOPE  C31719403   4.936   6.359   8.482  0.1030 -0.0221  0.4985
  171SOPE  H17X19404   4.925   6.258   8.438 -1.9371  0.1596  0.4968
  171SOPE  H17Y19405   4.836   6.407   8.469  1.7167  3.7548  0.6514
  171SOPE  C31819406   4.977   6.356   8.630  0.2219  0.4918 -0.2620
  171SOPE  H18X19407   4.902   6.293   8.681 -2.1934  3.3257 -0.0340
  171SOPE  H18Y19408   4.974   6.460   8.669 -0.3352  1.3816 -2.5161
  171SOPE  H18Z19409   5.076   6.309   8.650 -0.8176 -1.7411 -0.0711
  172SOPE     N19410   3.275   2.708   6.279 -0.2858  0.2852  0.1300
  172SOPE   HN119411   3.367   2.689   6.236 -0.7883  0.7092 -1.1715
  172SOPE   HN219412   3.216   2.757   6.209  1.8176  0.5498 -1.5626
  172SOPE   HN319413   3.278   2.775   6.358 -0.6179 -1.0033  1.2832
  172SOPE   C1219414   3.208   2.574   6.325 -0.4252 -1.4578  0.1947
  172SOPE  H12A19415   3.097   2.584   6.318 -0.3892  0.8787  1.8975
  172SOPE  H12B19416   3.237   2.562   6.431  2.4012  0.5210 -0.2537
  172SOPE   C1119417   3.279   2.449   6.254  0.4153  0.4893 -0.8409
  172SOPE  H11A19418   3.224   2.429   6.160  1.7232 -1.1354 -1.3033
  172SOPE  H11B19419   3.251   2.369   6.324  1.3681  0.4959 -0.4318
  172SOPE     P19420   3.528   2.436   6.330  0.0421  0.2564 -0.2728
  172SOPE   O1319421   3.636   2.531   6.295  0.4064  0.0033 -0.2750
  172SOPE   O1419422   3.559   2.288   6.333  0.4530 -0.2581 -0.3442
  172SOPE   O1219423   3.410   2.461   6.232  0.1210  0.1786 -0.5335
  172SOPE   O1119424   3.466   2.478   6.457  0.1415  0.3204 -0.3655
  172SOPE    C119425   3.517   2.580   6.543  0.1941 -0.1757 -0.2672
  172SOPE    HA19426   3.436   2.586   6.620 -0.0464 -1.4867 -0.4000
  172SOPE    HB19427   3.521   2.683   6.501  2.5555 -0.1376 -0.0494
  172SOPE    C219428   3.650   2.545   6.617 -0.1334 -0.3412  0.7186
  172SOPE    HS19429   3.734   2.556   6.545 -1.5820 -1.0206 -1.1789
  172SOPE   O2119430   3.649   2.405   6.664  0.1972 -0.2907  0.7886
  172SOPE   C2119431   3.748   2.333   6.636 -0.1014  0.6213  0.1312
  172SOPE   O2219432   3.832   2.359   6.551  0.1359  0.8112  0.0727
  172SOPE   C2219433   3.759   2.204   6.721  0.4832 -0.5334 -0.3477
  172SOPE   H2R19434   3.844   2.148   6.675  2.1461  0.5245  1.2711
  172SOPE   H2S19435   3.663   2.149   6.717  0.4993 -0.5168 -1.0816
  172SOPE    C319436   3.669   2.637   6.737 -0.8399 -0.0262  0.9757
  172SOPE    HX19437   3.593   2.615   6.816  0.7290 -1.7073  2.1025
  172SOPE    HY19438   3.657   2.742   6.703 -2.7219 -0.4089  0.3875
  172SOPE   O3119439   3.796   2.600   6.789 -0.1218 -0.0933  0.4482
  172SOPE   C3119440   3.898   2.677   6.736 -0.4676  0.5891  0.1249
  172SOPE   O3219441   3.890   2.746   6.638 -0.0566 -0.0402  0.7194
  172SOPE   C3219442   4.013   2.673   6.840 -0.2701 -0.4023 -0.0584
  172SOPE   H2X19443   4.073   2.583   6.815  1.5502  1.2792 -2.1795
  172SOPE   H2Y19444   3.958   2.669   6.936 -2.4439 -0.1613 -1.2387
  172SOPE   C2319445   3.807   2.234   6.869  0.4717 -0.5185 -0.0636
  172SOPE   H3R19446   3.888   2.311   6.866  1.0064 -0.9910  1.2373
  172SOPE   H3S19447   3.847   2.144   6.921  0.6152  0.2484  1.2116
  172SOPE   C2419448   3.691   2.276   6.957 -0.3580  0.7033  0.2344
  172SOPE   H4R19449   3.663   2.383   6.947 -1.7765  0.3025 -0.2793
  172SOPE   H4S19450   3.613   2.200   6.932  0.3444 -0.6303  1.8634
  172SOPE   C2519451   3.730   2.250   7.105  0.6991 -0.3050 -0.0138
  172SOPE   H5R19452   3.772   2.147   7.108 -0.9892 -1.1001 -1.4820
  172SOPE   H5S19453   3.805   2.324   7.139  0.5055  0.1342 -0.5250
  172SOPE   C2619454   3.614   2.263   7.200 -0.4340  0.2934 -0.3712
  172SOPE   H6R19455   3.529   2.222   7.141  0.0791  1.3357 -1.9121
  172SOPE   H6S19456   3.627   2.208   7.295 -2.2227 -0.1354 -0.3402
  172SOPE   C2719457   3.583   2.406   7.243 -0.2128 -0.3369 -0.2279
  172SOPE   H7R19458   3.655   2.442   7.320  0.6185 -1.6350 -0.3747
  172SOPE   H7S19459   3.582   2.474   7.156  1.0352  0.8925  0.6797
  172SOPE   C2819460   3.445   2.406   7.307  0.1254  0.6741 -0.1812
  172SOPE   H8R19461   3.367   2.389   7.230  0.7547 -0.2573 -0.6374
  172SOPE   H8S19462   3.430   2.317   7.373 -0.8634  1.0713  0.1435
  172SOPE   C2919463   3.407   2.522   7.397  0.2785 -0.0098 -0.5601
  172SOPE   H9119464   3.400   2.621   7.351 -0.4889  0.8922  1.4088
  172SOPE  C21019465   3.351   2.514   7.523 -1.0049 -0.3142 -0.6480
  172SOPE  H10119466   3.336   2.605   7.583  2.0161 -1.5430  2.2789
  172SOPE  C21119467   3.312   2.387   7.606 -0.0286 -0.3951 -0.1523
  172SOPE  H11R19468   3.358   2.295   7.566 -2.3168 -1.8240  0.3109
  172SOPE  H11S19469   3.203   2.370   7.591 -0.2011  1.4505 -1.5407
  172SOPE  C21219470   3.360   2.384   7.750 -0.0402  0.5039  1.0112
  172SOPE  H12R19471   3.463   2.427   7.752 -0.2486  1.0143  1.0666
  172SOPE  H12S19472   3.374   2.282   7.791  3.1478  0.4518  0.0824
  172SOPE  C21319473   3.269   2.467   7.853  0.0352 -0.2256 -0.6464
  172SOPE  H13R19474   3.172   2.414   7.864  0.5494 -0.8788  1.0034
  172SOPE  H13S19475   3.252   2.570   7.815  2.1577  0.3122 -0.2648
  172SOPE  C21419476   3.317   2.477   8.000  0.0329 -0.3507  0.1463
  172SOPE  H14R19477   3.331   2.371   8.029  1.3849 -0.0556  0.6349
  172SOPE  H14S19478   3.245   2.524   8.071 -0.2483 -0.2499 -0.2073
  172SOPE  C21519479   3.457   2.537   8.021  0.8303 -0.0445 -0.0122
  172SOPE  H15R19480   3.457   2.647   8.011  2.4883 -0.1120 -1.1538
  172SOPE  H15S19481   3.521   2.499   7.938 -2.6730  0.7899 -3.4397
  172SOPE  C21619482   3.539   2.501   8.146 -0.1407  0.0594 -0.8899
  172SOPE  H16R19483   3.476   2.528   8.233  0.9933 -0.5536  0.1569
  172SOPE  H16S19484   3.626   2.571   8.144 -0.4962  0.5311 -0.2157
  172SOPE  C21719485   3.563   2.348   8.170 -0.6810 -0.7245 -0.5171
  172SOPE  H17R19486   3.464   2.301   8.186 -0.3454 -0.7309  1.7914
  172SOPE  H17S19487   3.608   2.345   8.271 -2.2986  1.9300  0.3905
  172SOPE  C21819488   3.639   2.278   8.051 -0.2982  0.5471  0.5127
  172SOPE  H18R19489   3.577   2.265   7.960  0.5650  0.0327  0.0004
  172SOPE  H18S19490   3.675   2.181   8.090  2.8760  1.1041 -0.7951
  172SOPE  H18T19491   3.730   2.336   8.025 -1.5260  1.8173 -1.2176
  172SOPE   C3319492   4.106   2.798   6.828  0.2335  0.6574 -0.1963
  172SOPE   H3X19493   4.056   2.897   6.840  2.0969  1.5349  0.8743
  172SOPE   H3Y19494   4.144   2.808   6.724  2.7157  3.1063  0.8108
  172SOPE   C3419495   4.236   2.779   6.910  0.0758 -0.5993 -0.1312
  172SOPE   H4X19496   4.317   2.844   6.871 -1.8088  1.7215 -0.3677
  172SOPE   H4Y19497   4.272   2.674   6.902 -1.3079 -1.3409  2.2177
  172SOPE   C3519498   4.212   2.824   7.052  0.1920  0.1348  0.3365
  172SOPE   H5X19499   4.137   2.753   7.093 -1.2980  1.2921 -0.2681
  172SOPE   H5Y19500   4.154   2.918   7.038 -0.5224 -0.2289  0.7389
  172SOPE   C3619501   4.333   2.828   7.147  0.6847 -0.2233  0.7633
  172SOPE   H6X19502   4.428   2.861   7.099  0.1381  0.2631 -0.0042
  172SOPE   H6Y19503   4.355   2.721   7.165  1.5181 -0.4820 -1.4461
  172SOPE   C3719504   4.312   2.905   7.275  0.0151  0.4168 -0.3594
  172SOPE   H7X19505   4.208   2.882   7.309  0.0998  0.1256 -0.2957
  172SOPE   H7Y19506   4.332   3.014   7.269  0.4830  0.3129 -0.6842
  172SOPE   C3819507   4.399   2.841   7.384 -0.1578  0.1886 -0.0976
  172SOPE   H8X19508   4.503   2.840   7.344 -0.4989 -0.2684 -1.0112
  172SOPE   H8Y19509   4.378   2.732   7.393  1.4302 -0.2352 -1.0978
  172SOPE   C3919510   4.392   2.900   7.522  0.1783 -0.0584  0.3942
  172SOPE   H9X19511   4.418   3.007   7.507 -0.1663 -0.2567 -2.0486
  172SOPE   H9Y19512   4.467   2.862   7.595  0.4518 -1.0638 -0.3741
  172SOPE  C31019513   4.249   2.885   7.588 -0.3555 -0.1713 -0.7766
  172SOPE  H10X19514   4.232   2.776   7.604 -0.7792  0.1450  1.2366
  172SOPE  H10Y19515   4.171   2.921   7.517 -0.8332 -0.4691 -0.4035
  172SOPE  C31119516   4.226   2.958   7.721  0.4314 -0.0389  0.3117
  172SOPE  H11X19517   4.116   2.970   7.734  0.1583  0.2198 -1.8206
  172SOPE  H11Y19518   4.266   3.061   7.726 -2.4572  1.2149 -0.5378
  172SOPE  C31219519   4.281   2.887   7.850 -0.3027 -0.3860  0.9578
  172SOPE  H12X19520   4.389   2.865   7.831 -0.4872 -0.7731  0.3335
  172SOPE  H12Y19521   4.237   2.785   7.847  1.8437 -1.5716 -4.8058
  172SOPE  C31319522   4.276   2.971   7.979 -0.3315 -0.7891 -0.0741
  172SOPE  H13X19523   4.171   3.002   7.996  0.0260  0.7233 -0.5515
  172SOPE  H13Y19524   4.333   3.063   7.955  0.2071 -1.1699 -0.2766
  172SOPE  C31419525   4.331   2.896   8.099  0.0012  0.0322  0.7341
  172SOPE  H14X19526   4.431   2.861   8.066 -0.0465  0.9161 -0.4428
  172SOPE  H14Y19527   4.258   2.813   8.108  0.3216 -0.6297 -1.9400
  172SOPE  C31519528   4.338   2.966   8.240 -0.0220  0.2423 -0.4486
  172SOPE  H15X19529   4.236   2.975   8.283  0.6385 -0.0035  1.2492
  172SOPE  H15Y19530   4.379   3.068   8.220  0.6536 -0.3202 -2.0598
  172SOPE  C31619531   4.415   2.874   8.339 -0.0512 -0.3796  0.1224
  172SOPE  H16X19532   4.519   2.863   8.303  0.0457 -0.6279  0.4764
  172SOPE  H16Y19533   4.368   2.773   8.331  1.8367 -1.2198 -1.0789
  172SOPE  C31719534   4.410   2.911   8.490  0.4254  0.9284 -0.1727
  172SOPE  H17X19535   4.300   2.917   8.507  0.4953  1.2339  0.1702
  172SOPE  H17Y19536   4.455   3.012   8.497  0.0509  1.0651  0.3370
  172SOPE  C31819537   4.474   2.812   8.591 -0.2157 -0.0925  0.1294
  172SOPE  H18X19538   4.532   2.860   8.673  0.3715 -0.5440 -0.0129
  172SOPE  H18Y19539   4.545   2.745   8.538  0.2403  0.4650  0.0302
  172SOPE  H18Z19540   4.405   2.741   8.643 -0.3249 -0.1901 -0.1476
  173SAPI   C1219541   1.214   2.518  10.843  0.5654  0.5314 -0.2079
  173SAPI    H219542   1.162   2.587  10.772 -0.1081  1.4777  1.1572
  173SAPI    O219543   1.144   2.393  10.851 -0.4405 -0.2071  0.3685
  173SAPI   HO219544   1.051   2.410  10.865 -1.4834 -4.8415  0.6353
  173SAPI   C1319545   1.359   2.499  10.814  0.4759  0.1045  0.3870
  173SAPI    H319546   1.410   2.598  10.821  0.7147  0.1569 -1.5317
  173SAPI    O319547   1.385   2.437  10.686  0.1936 -0.7689  0.4484
  173SAPI   HO319548   1.338   2.354  10.692 -1.2408  0.0523  1.2234
  173SAPI   C1419549   1.426   2.415  10.925 -0.1918  0.2809 -1.1214
  173SAPI    H419550   1.377   2.316  10.929  0.3351 -0.0211 -1.9735
  173SAPI    O419551   1.561   2.375  10.908  0.3727 -0.1860 -0.0863
  173SAPI   HO419552   1.603   2.394  10.992 -1.0220  1.4545  0.3049
  173SAPI   C1519553   1.408   2.486  11.059 -0.3526 -0.6243  0.1895
  173SAPI    H519554   1.463   2.582  11.047 -0.4636 -0.5767  0.0600
  173SAPI    O519555   1.469   2.420  11.172  0.1758  0.5395  0.1194
  173SAPI   HO519556   1.430   2.443  11.257  2.9528 -0.5908  1.8770
  173SAPI   C1619557   1.262   2.517  11.096  0.7762  0.2832  0.0950
  173SAPI    H619558   1.206   2.421  11.102  1.0983  0.0487 -0.5642
  173SAPI    O619559   1.253   2.595  11.214  0.6014 -0.1428  0.2387
  173SAPI   HO619560   1.191   2.664  11.189 -0.9905 -1.9023 -1.0531
  173SAPI   C1119561   1.206   2.596  10.972  0.4774  0.6670 -0.7763
  173SAPI    H119562   1.268   2.685  10.948  3.3177 -0.3073  2.2166
  173SAPI     P19563   1.005   2.782  10.950  0.1394 -0.5003 -0.0822
  173SAPI   O1319564   1.087   2.888  11.011 -0.3267 -0.0857  0.8411
  173SAPI   O1419565   0.867   2.790  11.006 -0.3418  0.0183  0.1248
  173SAPI   O1219566   1.067   2.632  10.988  0.0796 -0.1927 -0.4792
  173SAPI   O1119567   1.008   2.796  10.792 -0.3829 -0.0006  0.8130
  173SAPI    C119568   0.905   2.770  10.703  1.0089 -0.3795  0.1536
  173SAPI    HA19569   0.812   2.823  10.732 -0.6891 -3.9859  1.8928
  173SAPI    HB19570   0.942   2.796  10.602 -0.5081 -1.1079 -0.6175
  173SAPI    C219571   0.873   2.618  10.685 -0.1893  0.4787  0.1995
  173SAPI    HS19572   0.891   2.572  10.784  2.1929  1.2104  0.1501
  173SAPI   O2119573   0.970   2.569  10.585  0.6435 -0.0991 -0.1241
  173SAPI   C2119574   0.971   2.433  10.579  0.3556 -0.2322 -0.4574
  173SAPI   O2219575   0.925   2.352  10.658  0.0106 -0.1794  0.0111
  173SAPI   C2219576   1.069   2.386  10.467  0.0925  0.2603 -0.2293
  173SAPI   H2R19577   1.100   2.484  10.425 -0.6584  0.9700  0.8158
  173SAPI   H2S19578   1.159   2.336  10.508 -1.0079 -0.8417  0.9093
  173SAPI    C319579   0.730   2.593  10.648 -0.0543 -0.8075  0.3357
  173SAPI    HX19580   0.661   2.618  10.731 -0.4941 -3.1198  0.7269
  173SAPI    HY19581   0.701   2.487  10.631 -0.2498 -0.6887 -0.0939
  173SAPI   O3119582   0.688   2.677  10.542 -0.0487  0.2017 -0.6129
  173SAPI   C3119583   0.685   2.630  10.419 -0.6595 -0.2924 -0.0662
  173SAPI   O3219584   0.721   2.513  10.390  0.3204 -0.4008  0.6553
  173SAPI   C3219585   0.642   2.748  10.335  0.1366 -0.7104 -0.6550
  173SAPI   H2X19586   0.691   2.838  10.377  0.7353 -1.5713  0.5381
  173SAPI   H2Y19587   0.532   2.762  10.342  0.4224  1.4176  0.4558
  173SAPI   C2319588   1.007   2.292  10.359  0.0505  0.2845  0.1129
  173SAPI   H3R19589   0.905   2.326  10.335  0.0766 -1.1402 -2.3923
  173SAPI   H3S19590   1.000   2.192  10.409 -0.1889  0.6137  0.7492
  173SAPI   C2419591   1.098   2.299  10.231  0.3821 -0.9462  0.0274
  173SAPI   H4R19592   1.205   2.281  10.255  0.2713 -0.7966  0.6348
  173SAPI   H4S19593   1.109   2.407  10.208 -0.4990 -0.4816  1.7035
  173SAPI   C2519594   1.050   2.212  10.116 -0.5663 -0.1734 -1.4264
  173SAPI   H5R19595   1.076   2.105  10.124  0.7590  0.2479  0.6692
  173SAPI   C2619596   0.981   2.252  10.010  0.1559 -0.0025  0.5042
  173SAPI   H6R19597   0.944   2.175   9.941 -0.5613 -0.1889  1.0876
  173SAPI   C2719598   0.938   2.391   9.980 -0.1564 -0.7342  0.1459
  173SAPI   H7R19599   0.987   2.425   9.886 -1.2268  0.6109  0.0386
  173SAPI   H7S19600   0.970   2.463  10.058 -0.9272 -2.3891  2.0757
  173SAPI   C2819601   0.791   2.386   9.983  0.3022  0.7727 -0.4461
  173SAPI   H8R19602   0.747   2.356  10.079  0.9051 -0.3588 -0.5124
  173SAPI   C2919603   0.709   2.420   9.884 -0.2992  0.0084 -0.1921
  173SAPI   H9R19604   0.602   2.401   9.904 -0.0255 -0.3538  0.9800
  173SAPI  C21019605   0.755   2.472   9.749 -0.1216 -0.2713  0.1182
  173SAPI  H10R19606   0.840   2.538   9.775 -0.5744  0.9485 -1.3181
  173SAPI  H10S19607   0.681   2.541   9.704  2.5684  2.2407 -0.7796
  173SAPI  C21119608   0.810   2.370   9.648  0.0912 -0.1340  0.2361
  173SAPI  H11R19609   0.791   2.263   9.665  0.3145  0.0710  1.9625
  173SAPI  C21219610   0.879   2.406   9.537  0.3928 -0.5593  0.0594
  173SAPI  H12R19611   0.915   2.329   9.467 -2.2962 -1.3916 -0.5435
  173SAPI  C21319612   0.910   2.552   9.491  0.4071 -0.4072  0.0239
  173SAPI  H13R19613   0.986   2.545   9.411  0.3310 -2.2608  0.0497
  173SAPI  H13S19614   0.950   2.616   9.572  0.3647 -1.8500  1.2292
  173SAPI  C21419615   0.796   2.627   9.423  0.2336  0.1781  0.1690
  173SAPI  H14R19616   0.735   2.685   9.494  0.0360  0.8802 -0.5475
  173SAPI  C21519617   0.761   2.637   9.297  0.1168 -0.1613  0.7420
  173SAPI  H15R19618   0.671   2.696   9.272 -0.1747  0.2907  2.7268
  173SAPI  C21619619   0.831   2.575   9.184 -0.5307 -0.4747  0.3989
  173SAPI  H16R19620   0.759   2.503   9.139  1.3128 -1.6215 -0.8638
  173SAPI  H16S19621   0.924   2.525   9.220  0.0182  0.6843  0.6131
  173SAPI  C21719622   0.875   2.680   9.078 -0.3562  0.3018  0.0295
  173SAPI  H17R19623   0.929   2.763   9.127 -2.2356  2.6907 -1.7193
  173SAPI  H17S19624   0.783   2.717   9.030  0.0264  0.0303 -0.9342
  173SAPI  C21819625   0.973   2.617   8.968 -0.1542 -0.7296  0.3249
  173SAPI  H18R19626   0.927   2.533   8.913  0.4421  0.6699 -2.5099
  173SAPI  H18S19627   1.067   2.569   9.002 -0.9335 -1.2607  1.8362
  173SAPI  C21919628   1.000   2.714   8.854 -0.7089  0.3510  0.9194
  173SAPI  H19R19629   1.068   2.794   8.892  1.0531  0.2949 -1.8444
  173SAPI  H19S19630   0.909   2.772   8.826  0.1116  1.0817 -0.3395
  173SAPI  C22019631   1.074   2.655   8.732  0.3054 -0.5839 -0.0073
  173SAPI  H20R19632   1.121   2.715   8.651  0.2775 -2.3126 -1.3580
  173SAPI  H20S19633   1.004   2.581   8.688 -1.1559  0.2403  0.8718
  173SAPI  H20T19634   1.158   2.587   8.760 -1.3329 -2.7418 -0.0430
  173SAPI   C3319635   0.684   2.752  10.180 -0.1279  0.2341 -0.0238
  173SAPI   H3X19636   0.599   2.704  10.127  0.8164  0.0308 -1.4196
  173SAPI   H3Y19637   0.775   2.690  10.164  0.5357  1.2050 -0.1243
  173SAPI   C3419638   0.703   2.897  10.145 -0.4916  0.3563 -0.8260
  173SAPI   H4X19639   0.795   2.949  10.178 -0.8517  0.6128 -0.2241
  173SAPI   H4Y19640   0.618   2.961  10.175 -1.2985 -1.2261  0.3718
  173SAPI   C3519641   0.715   2.913   9.990  0.3002 -0.0423  0.3990
  173SAPI   H5X19642   0.724   3.020   9.964  2.0289 -0.0435  0.8745
  173SAPI   H5Y19643   0.623   2.881   9.936  0.2216 -0.0014  0.5061
  173SAPI   C3619644   0.839   2.843   9.925 -0.0860  0.3049 -0.0398
  173SAPI   H6X19645   0.821   2.734   9.935 -1.5284  0.6408  1.6276
  173SAPI   H6Y19646   0.926   2.870   9.989 -0.4753  1.2796  0.0941
  173SAPI   C3719647   0.855   2.851   9.778 -0.2168 -0.2659  0.0484
  173SAPI   H7X19648   0.763   2.824   9.723 -0.4674  1.0679 -0.2161
  173SAPI   H7Y19649   0.935   2.777   9.755  2.1914  1.9689  0.8196
  173SAPI   C3819650   0.900   2.990   9.733  0.4896 -0.6614 -0.5321
  173SAPI   H8X19651   0.990   3.011   9.795 -1.0789 -0.2179  1.7339
  173SAPI   H8Y19652   0.820   3.059   9.766  0.1531 -1.8395  1.2484
  173SAPI   C3919653   0.919   2.991   9.578 -0.6324 -0.3119  0.3023
  173SAPI   H9X19654   0.822   2.971   9.528 -0.5784 -1.7888  0.7450
  173SAPI   H9Y19655   0.980   2.900   9.562  2.2369  1.2654  1.5580
  173SAPI  C31019656   0.972   3.121   9.528  0.3381 -0.1133 -0.5682
  173SAPI  H10X19657   1.083   3.112   9.538  0.5055 -1.1230 -2.7692
  173SAPI  H10Y19658   0.938   3.206   9.591 -2.6364 -0.4947 -1.5403
  173SAPI  C31119659   0.937   3.147   9.381  0.7374  0.2661 -0.0051
  173SAPI  H11X19660   0.968   3.253   9.367  0.2740  0.3393 -0.5112
  173SAPI  H11Y19661   0.826   3.141   9.373  0.4398  3.4671  0.3980
  173SAPI  C31219662   0.990   3.040   9.284 -0.2257 -0.1692 -0.3173
  173SAPI  H12X19663   0.949   2.941   9.312 -1.2478  0.5362  0.7437
  173SAPI  H12Y19664   1.102   3.043   9.282 -0.2207  2.4053  0.1344
  173SAPI  C31319665   0.945   3.066   9.139  0.1925  0.0440  0.0842
  173SAPI  H13X19666   1.016   3.023   9.066  0.2967 -0.8236  0.6884
  173SAPI  H13Y19667   0.954   3.175   9.120  0.9618 -0.1410 -0.6335
  173SAPI  C31419668   0.806   3.013   9.114 -0.3482 -0.1266  0.9688
  173SAPI  H14X19669   0.730   3.080   9.160 -1.2403 -0.8497  0.5812
  173SAPI  H14Y19670   0.786   2.918   9.168  0.3301 -0.7773  0.1029
  173SAPI  C31519671   0.779   3.010   8.960  1.0132 -0.4390 -0.1522
  173SAPI  H15X19672   0.843   2.935   8.910  2.7433  0.7907  0.1625
  173SAPI  H15Y19673   0.795   3.111   8.918  2.1503 -0.2273  0.7561
  173SAPI  C31619674   0.627   2.976   8.928  0.1344  0.1072 -0.3821
  173SAPI  H16X19675   0.567   3.066   8.952 -2.6951 -1.3320 -1.5723
  173SAPI  H16Y19676   0.586   2.897   8.994  3.3698  0.1972  1.9700
  173SAPI  C31719677   0.598   2.949   8.781 -0.1865 -0.0784 -0.4833
  173SAPI  H17X19678   0.664   2.866   8.746  0.0511  0.3815 -1.1298
  173SAPI  H17Y19679   0.637   3.042   8.735  0.0198  1.1156  1.9321
  173SAPI  C31819680   0.465   2.935   8.722  0.4221  0.4323  1.2792
  173SAPI  H18X19681   0.476   2.925   8.612 -0.8699  0.9807  1.0796
  173SAPI  H18Y19682   0.394   3.015   8.752 -2.8243 -2.4807  1.9944
  173SAPI  H18Z19683   0.421   2.844   8.767 -0.1327 -0.2533 -0.5313
  174SAPI   C1219684   2.778   1.973  10.703 -0.7401  0.1205  0.0908
  174SAPI    H219685   2.840   2.030  10.630 -0.4543 -0.3862 -0.0672
  174SAPI    O219686   2.711   2.070  10.790 -0.1533 -0.0031 -0.6302
  174SAPI   HO219687   2.782   2.111  10.840 -0.5775  0.6324 -0.5314
  174SAPI   C1319688   2.679   1.889  10.626 -0.4161 -0.0097  0.0497
  174SAPI    H319689   2.728   1.814  10.560 -1.3727 -0.1492 -0.5150
  174SAPI    O319690   2.611   1.979  10.534 -0.0629  0.2486 -0.1432
  174SAPI   HO319691   2.643   1.979  10.443  1.6996 -1.4988  0.4048
  174SAPI   C1419692   2.579   1.810  10.717  0.0031  0.3003  0.1048
  174SAPI    H419693   2.524   1.882  10.781 -0.1091 -0.2734  0.6640
  174SAPI    O419694   2.485   1.737  10.647 -0.0700 -0.1445  0.1405
  174SAPI   HO419695   2.528   1.695  10.572  0.1744  0.2914  0.0389
  174SAPI   C1519696   2.663   1.725  10.813  0.5100 -0.2916  0.0723
  174SAPI    H519697   2.712   1.644  10.756  0.3617 -1.1157  1.0933
  174SAPI    O519698   2.575   1.661  10.910  0.3143 -0.4055  0.6404
  174SAPI   HO519699   2.602   1.570  10.925  2.4383  0.0471 -0.1379
  174SAPI   C1619700   2.768   1.803  10.884 -0.5582 -0.1895 -0.8475
  174SAPI    H619701   2.719   1.877  10.951  0.8886  1.2788 -1.3271
  174SAPI    O619702   2.849   1.720  10.976 -0.0578 -0.1349  0.7723
  174SAPI   HO619703   2.942   1.739  10.961 -0.4176  1.4501  0.3424
  174SAPI   C1119704   2.862   1.876  10.795  0.4336 -0.0350 -0.1976
  174SAPI    H119705   2.915   1.805  10.728  0.2753 -1.2884  0.9561
  174SAPI     P19706   3.114   1.969  10.812  0.1861  0.2747 -0.1964
  174SAPI   O1319707   3.177   1.834  10.819 -0.5800 -0.1798 -0.3733
  174SAPI   O1419708   3.179   2.077  10.887 -0.0178  0.2902  0.1513
  174SAPI   O1219709   2.961   1.951  10.871  0.1988  0.2407  0.2675
  174SAPI   O1119710   3.091   2.019  10.666  0.2916 -0.2040 -0.4533
  174SAPI    C119711   3.120   2.153  10.637  0.0796  0.3915  0.4075
  174SAPI    HA19712   3.087   2.226  10.714  0.8471  1.7640 -0.5457
  174SAPI    HB19713   3.229   2.168  10.622  0.0967 -0.9519 -1.0803
  174SAPI    C219714   3.030   2.202  10.518  0.3679 -0.5591 -0.7331
  174SAPI    HS19715   2.923   2.205  10.548  0.5451  0.7029 -0.1464
  174SAPI   O2119716   3.056   2.110  10.416 -0.4137  0.0161 -0.0729
  174SAPI   C2119717   2.960   2.108  10.321 -0.2680  0.9651 -0.0277
  174SAPI   O2219718   2.847   2.155  10.333 -0.5531 -0.1125 -0.2018
  174SAPI   C2219719   3.009   2.027  10.205 -0.1208 -0.3181 -0.4031
  174SAPI   H2R19720   3.118   2.045  10.191 -0.3642  0.2863 -1.6738
  174SAPI   H2S19721   3.010   1.919  10.234  0.7197 -0.4086 -0.7371
  174SAPI    C319722   3.075   2.344  10.477  0.1197 -0.3367  0.2306
  174SAPI    HX19723   3.178   2.338  10.436  0.9330  2.1411  1.7153
  174SAPI    HY19724   3.099   2.418  10.556  2.0862 -2.0246  1.3130
  174SAPI   O3119725   2.990   2.388  10.374  0.3407 -0.0935  0.7925
  174SAPI   C3119726   2.872   2.443  10.420 -0.0465 -0.0561  0.9732
  174SAPI   O3219727   2.842   2.453  10.535  0.0068  0.6629 -0.4362
  174SAPI   C3219728   2.793   2.477  10.303  0.7699 -0.3627 -0.1943
  174SAPI   H2X19729   2.710   2.539  10.343 -1.5654 -1.9769 -2.2272
  174SAPI   H2Y19730   2.751   2.380  10.268  0.3858 -0.0037 -0.7346
  174SAPI   C2319731   2.945   2.054  10.068 -0.4054  0.1886 -0.7160
  174SAPI   H3R19732   2.838   2.024  10.071 -1.0293  2.3004  0.5980
  174SAPI   H3S19733   2.995   1.996   9.988 -0.6374 -0.1081 -0.6494
  174SAPI   C2419734   2.951   2.204  10.030  0.5482 -0.5612  1.0539
  174SAPI   H4R19735   2.874   2.267  10.080  0.0353 -0.9756  0.8013
  174SAPI   H4S19736   2.909   2.202   9.928 -1.3592  2.8337  1.6170
  174SAPI   C2519737   3.088   2.264  10.039  0.6829  0.3924  0.6507
  174SAPI   H5R19738   3.114   2.306  10.137 -0.7354  0.7014  0.9269
  174SAPI   C2619739   3.175   2.262   9.940 -0.0095 -0.8908  0.5217
  174SAPI   H6R19740   3.276   2.299   9.963 -1.0522  1.2584  1.8370
  174SAPI   C2719741   3.138   2.201   9.803 -0.1288  0.8696  0.1495
  174SAPI   H7R19742   3.088   2.281   9.744 -0.7104  0.1321 -0.3952
  174SAPI   H7S19743   3.060   2.121   9.807 -1.0749  1.6635 -1.3237
  174SAPI   C2819744   3.263   2.153   9.741 -0.5277 -1.4367 -0.9066
  174SAPI   H8R19745   3.312   2.079   9.806 -1.3768 -1.3705 -0.1672
  174SAPI   C2919746   3.319   2.201   9.625  0.5058  0.1959  0.6497
  174SAPI   H9R19747   3.420   2.168   9.597 -0.0479 -1.2011  0.2303
  174SAPI  C21019748   3.263   2.308   9.532 -0.6225  0.0209 -0.7018
  174SAPI  H10R19749   3.343   2.385   9.524  1.1424 -1.5231  0.9991
  174SAPI  H10S19750   3.185   2.364   9.586  1.3846  1.9169  0.3901
  174SAPI  C21119751   3.213   2.242   9.410  0.1271  0.0188 -0.2265
  174SAPI  H11R19752   3.135   2.167   9.429 -0.4816  0.2453 -1.7321
  174SAPI  C21219753   3.252   2.271   9.282  0.0691 -0.0591 -0.0490
  174SAPI  H12R19754   3.196   2.228   9.198 -1.2860 -1.2125  1.4100
  174SAPI  C21319755   3.358   2.375   9.245  0.3253  0.3922  0.2175
  174SAPI  H13R19756   3.391   2.420   9.341  1.4337 -3.1122  1.6136
  174SAPI  H13S19757   3.322   2.455   9.176 -3.5061 -0.7790  0.6661
  174SAPI  C21419758   3.488   2.318   9.201 -0.7584  0.7818 -0.3808
  174SAPI  H14R19759   3.564   2.302   9.279 -0.4373 -0.6912 -0.9655
  174SAPI  C21519760   3.512   2.259   9.082  0.0094 -0.5452 -0.0947
  174SAPI  H15R19761   3.603   2.201   9.062  0.9515  1.2398 -1.2884
  174SAPI  C21619762   3.410   2.248   8.973 -0.8073 -0.0958  0.5789
  174SAPI  H16R19763   3.334   2.329   8.980  2.8870  3.6649  0.8010
  174SAPI  H16S19764   3.362   2.150   8.995  3.0458 -1.8378  2.0371
  174SAPI  C21719765   3.461   2.243   8.827 -0.2557 -0.0006 -0.2326
  174SAPI  H17R19766   3.383   2.191   8.767 -1.0793 -0.7574  1.4172
  174SAPI  H17S19767   3.548   2.174   8.816  0.2507  0.2932  1.5593
  174SAPI  C21819768   3.500   2.379   8.757  0.8782  0.4489 -0.4251
  174SAPI  H18R19769   3.561   2.442   8.825  1.1663  0.3286 -0.5695
  174SAPI  H18S19770   3.409   2.439   8.736  0.9248  1.0650  1.0035
  174SAPI  C21919771   3.562   2.346   8.620  0.0919 -0.7472 -0.8157
  174SAPI  H19R19772   3.488   2.309   8.547  0.7275 -1.1930 -1.2402
  174SAPI  H19S19773   3.624   2.256   8.637 -1.1042 -1.4642 -0.0606
  174SAPI  C22019774   3.636   2.456   8.553 -1.0104 -0.5762 -0.1947
  174SAPI  H20R19775   3.579   2.518   8.482 -0.5640 -1.1865 -1.1047
  174SAPI  H20S19776   3.720   2.420   8.489 -0.3229  2.8771 -1.4471
  174SAPI  H20T19777   3.670   2.520   8.638 -1.7516 -0.8356  0.3009
  174SAPI   C3319778   2.856   2.559  10.187  0.2456  0.7069  0.1949
  174SAPI   H3X19779   2.943   2.506  10.144  1.1259  2.5758 -0.4479
  174SAPI   H3Y19780   2.895   2.656  10.225 -0.7269  1.1377  0.1271
  174SAPI   C3419781   2.754   2.596  10.082 -0.2055  0.0363  0.5039
  174SAPI   H4X19782   2.698   2.681  10.126  1.4756  1.7215 -0.4625
  174SAPI   H4Y19783   2.682   2.512  10.068 -2.1937  1.6682  0.4883
  174SAPI   C3519784   2.824   2.641   9.953  0.0083  0.2759 -0.0993
  174SAPI   H5X19785   2.869   2.555   9.898 -1.4370  1.1799 -2.9014
  174SAPI   H5Y19786   2.908   2.699   9.995 -0.0957  0.4233 -0.0928
  174SAPI   C3619787   2.750   2.727   9.855 -0.4928 -1.2628  0.7388
  174SAPI   H6X19788   2.719   2.822   9.905 -1.3217 -3.2202  4.3547
  174SAPI   H6Y19789   2.653   2.685   9.820  0.4563 -1.3622 -1.9508
  174SAPI   C3719790   2.826   2.778   9.726  0.5651 -0.4524  0.1600
  174SAPI   H7X19791   2.906   2.706   9.700 -0.5573 -2.2958  1.5921
  174SAPI   H7Y19792   2.880   2.869   9.759  0.0171 -0.3180  0.7019
  174SAPI   C3819793   2.736   2.810   9.610  0.2373  0.1686 -0.0818
  174SAPI   H8X19794   2.665   2.894   9.629 -2.3650 -1.3417 -2.3790
  174SAPI   H8Y19795   2.677   2.718   9.594  0.0685  0.3859 -0.7510
  174SAPI   C3919796   2.807   2.844   9.476  0.1827 -0.1539 -0.1028
  174SAPI   H9X19797   2.867   2.753   9.452 -0.7697 -1.1709  1.2206
  174SAPI   H9Y19798   2.883   2.923   9.496  0.3068 -0.2841 -0.0548
  174SAPI  C31019799   2.716   2.870   9.360 -0.1374  0.7312  1.3550
  174SAPI  H10X19800   2.645   2.954   9.378 -0.9169  0.0761  1.4112
  174SAPI  H10Y19801   2.647   2.787   9.335 -0.6636  1.9918 -1.8297
  174SAPI  C31119802   2.787   2.887   9.221 -0.0755 -0.6549 -0.0103
  174SAPI  H11X19803   2.849   2.799   9.194  2.2793  1.0890 -0.6282
  174SAPI  H11Y19804   2.851   2.978   9.218  1.7959 -1.9198 -3.2715
  174SAPI  C31219805   2.685   2.895   9.106  0.1459 -0.0437  0.1050
  174SAPI  H12X19806   2.611   2.974   9.131  3.4050  2.8815  1.3174
  174SAPI  H12Y19807   2.626   2.801   9.102 -3.3833  1.9232  1.2990
  174SAPI  C31319808   2.745   2.938   8.969  0.6932  0.0155  0.2514
  174SAPI  H13X19809   2.667   2.937   8.890  1.4643  1.2888 -0.5798
  174SAPI  H13Y19810   2.827   2.867   8.943  2.2388  1.8889 -0.2639
  174SAPI  C31419811   2.798   3.080   8.975 -0.0787 -0.0037 -0.4737
  174SAPI  H14X19812   2.894   3.080   9.032 -0.0814  0.8640 -0.4667
  174SAPI  H14Y19813   2.716   3.138   9.022 -0.2018  1.2937 -2.2155
  174SAPI  C31519814   2.829   3.144   8.840  0.5794  0.2452 -0.1216
  174SAPI  H15X19815   2.849   3.251   8.863  0.7153 -0.1760  1.9037
  174SAPI  H15Y19816   2.737   3.141   8.778 -0.0053  2.5140  0.5192
  174SAPI  C31619817   2.942   3.081   8.763  0.2067 -0.1160 -0.2443
  174SAPI  H16X19818   2.935   2.971   8.777 -0.6058  0.2062  2.3937
  174SAPI  H16Y19819   3.039   3.107   8.810 -0.4171  0.2468  0.8550
  174SAPI  C31719820   2.941   3.126   8.617 -0.1506  0.4338 -0.2101
  174SAPI  H17X19821   2.963   3.232   8.590 -0.9152  0.8805  0.8617
  174SAPI  H17Y19822   2.837   3.104   8.584 -0.4287 -0.0886  0.9795
  174SAPI  C31819823   3.039   3.048   8.533  0.2790  0.5915  0.3180
  174SAPI  H18X19824   3.141   3.050   8.577  1.5123  0.1141 -2.3285
  174SAPI  H18Y19825   3.051   3.076   8.427 -0.9656  0.5043  0.1457
  174SAPI  H18Z19826   3.007   2.941   8.534  1.1093  0.3312  0.1152
  175SAPI   C1219827   4.678   5.373   6.391 -0.0860 -0.5019 -0.1068
  175SAPI    H219828   4.607   5.454   6.365  0.1678 -0.5914 -1.0931
  175SAPI    O219829   4.661   5.357   6.531 -0.2364  0.0046  0.2794
  175SAPI   HO219830   4.677   5.444   6.569  0.3718 -0.0601  0.1863
  175SAPI   C1319831   4.643   5.251   6.314  0.3282 -0.5891  0.1727
  175SAPI    H319832   4.657   5.276   6.207 -5.4470  3.0444 -0.1789
  175SAPI    O319833   4.502   5.225   6.323 -0.1027 -0.0807 -0.4397
  175SAPI   HO319834   4.463   5.222   6.411 -1.2974 -1.4141 -0.9661
  175SAPI   C1419835   4.730   5.138   6.361  0.0966 -0.4809  0.0940
  175SAPI    H419836   4.721   5.119   6.470 -0.4057 -1.6893 -0.1300
  175SAPI    O419837   4.686   5.020   6.298 -0.0675 -0.3813 -0.3219
  175SAPI   HO419838   4.730   4.944   6.337  2.2862  0.4509 -1.1800
  175SAPI   C1519839   4.874   5.176   6.325  0.0351 -0.3409 -0.1498
  175SAPI    H519840   4.887   5.197   6.217  0.3153  0.6371  0.0709
  175SAPI    O519841   4.959   5.065   6.356 -0.4595  0.1685 -1.1400
  175SAPI   HO519842   4.968   5.058   6.451  0.4166 -1.0884 -1.2832
  175SAPI   C1619843   4.913   5.306   6.398  0.4640 -0.2178 -0.4313
  175SAPI    H619844   4.906   5.291   6.508 -1.6152 -0.3018 -0.5229
  175SAPI    O619845   5.044   5.350   6.367  0.4071  0.1917  0.0691
  175SAPI   HO619846   5.051   5.438   6.404  3.3005  1.0067 -2.0931
  175SAPI   C1119847   4.819   5.423   6.351 -0.5065  0.3603 -0.3147
  175SAPI    H119848   4.822   5.432   6.241  0.6175  0.0644 -0.3181
  175SAPI     P19849   4.935   5.666   6.348  0.4634  0.3698  0.3299
  175SAPI   O1319850   4.922   5.793   6.424  0.3559 -0.2950 -0.1120
  175SAPI   O1419851   4.912   5.671   6.203  0.3319 -0.2545 -0.3938
  175SAPI   O1219852   4.866   5.533   6.425  0.0288 -0.4439 -0.0410
  175SAPI   O1119853   5.087   5.618   6.361 -0.5046  0.0267 -0.0872
  175SAPI    C119854   5.174   5.689   6.448 -0.1845 -0.5009  0.4672
  175SAPI    HA19855   5.268   5.692   6.390 -0.6558  0.0014 -0.2955
  175SAPI    HB19856   5.148   5.797   6.457 -0.6906 -0.6116  0.3783
  175SAPI    C219857   5.196   5.626   6.595 -0.2235 -0.5800  0.7592
  175SAPI    HS19858   5.254   5.531   6.589 -0.8103 -0.9157  0.0761
  175SAPI   O2119859   5.067   5.617   6.661  0.2320 -0.2900  0.5062
  175SAPI   C2119860   5.037   5.497   6.705  0.2408 -0.0714  0.4323
  175SAPI   O2219861   5.107   5.399   6.689 -0.1616 -0.2034 -0.0652
  175SAPI   C2219862   4.912   5.500   6.786 -0.4024 -0.4057 -0.5878
  175SAPI   H2R19863   4.919   5.568   6.874 -0.5986  1.3852 -1.9212
  175SAPI   H2S19864   4.828   5.540   6.726  1.5462  0.0501 -3.1931
  175SAPI    C319865   5.293   5.713   6.687  0.3934  0.0894  0.2255
  175SAPI    HX19866   5.244   5.812   6.684 -1.2700 -0.6914  0.1372
  175SAPI    HY19867   5.393   5.705   6.639 -0.3636 -1.2547 -1.2402
  175SAPI   O3119868   5.303   5.649   6.810 -0.2052 -0.8700 -0.0985
  175SAPI   C3119869   5.284   5.709   6.920 -0.0559 -1.0451  0.1810
  175SAPI   O3219870   5.271   5.829   6.939 -0.0906 -0.1119 -0.2580
  175SAPI   C3219871   5.273   5.598   7.029 -0.0640  1.0016  0.4800
  175SAPI   H2X19872   5.342   5.517   6.999 -2.1453 -1.3798  1.8063
  175SAPI   H2Y19873   5.178   5.542   7.034  0.5840 -0.1537  0.1950
  175SAPI   C2319874   4.878   5.356   6.832 -0.3834  0.5761  0.2907
  175SAPI   H3R19875   4.945   5.327   6.915  0.2678  0.4431 -0.2722
  175SAPI   H3S19876   4.870   5.276   6.755 -5.0418  0.3351  0.7060
  175SAPI   C2419877   4.735   5.349   6.880 -0.0351  0.0086  0.3242
  175SAPI   H4R19878   4.659   5.375   6.803 -0.0745  0.4370  0.5083
  175SAPI   H4S19879   4.727   5.433   6.953  0.7015  0.2681  0.1088
  175SAPI   C2519880   4.700   5.213   6.941 -0.2548  0.7385  0.0873
  175SAPI   H5R19881   4.686   5.135   6.865 -1.7727  0.0608  1.0125
  175SAPI   C2619882   4.691   5.173   7.066 -0.3898 -0.5809  0.0498
  175SAPI   H6R19883   4.653   5.071   7.076  1.0672 -1.0078  1.6202
  175SAPI   C2719884   4.718   5.260   7.187  0.3091 -0.2847 -0.3163
  175SAPI   H7R19885   4.629   5.272   7.253 -0.0549 -3.8925  0.0779
  175SAPI   H7S19886   4.757   5.361   7.165  0.2046 -0.1804 -0.0342
  175SAPI   C2819887   4.813   5.188   7.279 -0.3974  0.5329 -0.5931
  175SAPI   H8R19888   4.914   5.232   7.271 -0.2360  0.0414 -1.4049
  175SAPI   C2919889   4.780   5.094   7.370  0.3823  0.2161  0.0135
  175SAPI   H9R19890   4.854   5.036   7.427  0.1136 -1.2100 -1.0318
  175SAPI  C21019891   4.647   5.029   7.386  0.3617 -0.1682 -0.6378
  175SAPI  H10R19892   4.589   5.016   7.292 -1.2656  1.3935  0.0720
  175SAPI  H10S19893   4.590   5.105   7.444  0.6628  0.2221 -0.8498
  175SAPI  C21119894   4.658   4.898   7.459 -0.3195  0.2406  0.0214
  175SAPI  H11R19895   4.674   4.813   7.390  0.1921  0.1967  0.1883
  175SAPI  C21219896   4.654   4.880   7.591  0.0417  0.0197 -0.4865
  175SAPI  H12R19897   4.661   4.775   7.623 -0.4518  0.5055  1.3356
  175SAPI  C21319898   4.628   4.987   7.705 -0.5797  0.0351  0.0105
  175SAPI  H13R19899   4.542   4.957   7.769  0.1429 -2.2597 -0.0177
  175SAPI  H13S19900   4.610   5.082   7.651 -1.2217  0.9257  1.6930
  175SAPI  C21419901   4.751   5.010   7.791  0.3362 -0.1315  0.5661
  175SAPI  H14R19902   4.841   4.962   7.751 -0.4807 -0.1087 -1.4325
  175SAPI  C21519903   4.758   5.088   7.903 -0.1530 -0.0712 -0.0594
  175SAPI  H15R19904   4.839   5.093   7.977  0.0870  1.7661 -0.4052
  175SAPI  C21619905   4.632   5.157   7.945  0.9121  0.4612  0.4272
  175SAPI  H16R19906   4.572   5.178   7.854 -1.8537 -0.7545  1.8253
  175SAPI  H16S19907   4.655   5.252   7.998 -0.7032  0.1957  1.6853
  175SAPI  C21719908   4.532   5.089   8.046  0.1682  0.4169 -0.1315
  175SAPI  H17R19909   4.487   4.994   8.009 -1.0912 -0.0934  2.4500
  175SAPI  H17S19910   4.451   5.164   8.060  1.3332  1.4694  1.1402
  175SAPI  C21819911   4.590   5.069   8.185 -0.9641  0.1713 -0.1140
  175SAPI  H18R19912   4.616   5.172   8.217  1.9676  0.0195 -1.6312
  175SAPI  H18S19913   4.685   5.011   8.185 -1.4672 -0.7607  2.0420
  175SAPI  C21919914   4.497   4.993   8.280  0.1665 -0.0659  0.2122
  175SAPI  H19R19915   4.487   4.890   8.239 -0.8182  0.5182 -1.0673
  175SAPI  H19S19916   4.390   5.018   8.269  0.6043  1.0593 -2.3160
  175SAPI  C22019917   4.546   4.978   8.424 -0.5965  0.5085 -0.2471
  175SAPI  H20R19918   4.466   4.948   8.493  0.0421 -3.4705 -0.9935
  175SAPI  H20S19919   4.591   5.067   8.473 -1.7023  0.4211  0.9538
  175SAPI  H20T19920   4.627   4.902   8.434  1.3406  2.6613  1.5603
  175SAPI   C3319921   5.304   5.652   7.165  0.1679 -0.7596  0.8220
  175SAPI   H3X19922   5.224   5.722   7.197  0.2449 -0.3299  0.1089
  175SAPI   H3Y19923   5.390   5.723   7.165  1.3414 -2.0997 -0.7332
  175SAPI   C3419924   5.337   5.547   7.270  0.3044 -0.3235  0.6943
  175SAPI   H4X19925   5.419   5.488   7.224 -1.7826 -1.7336 -1.4468
  175SAPI   H4Y19926   5.241   5.493   7.266 -0.5379  1.2158 -1.1897
  175SAPI   C3519927   5.374   5.609   7.405  0.5373  0.5272  0.1839
  175SAPI   H5X19928   5.283   5.654   7.452 -0.2406 -0.5806 -0.2192
  175SAPI   H5Y19929   5.445   5.691   7.382  0.9382  0.8476  2.3116
  175SAPI   C3619930   5.432   5.524   7.509 -0.3501 -0.4578 -0.2638
  175SAPI   H6X19931   5.492   5.588   7.576  0.3822 -1.0088 -0.3760
  175SAPI   H6Y19932   5.511   5.464   7.459 -0.2821 -0.3516 -0.2824
  175SAPI   C3719933   5.334   5.434   7.588 -0.2473 -0.1751  0.8520
  175SAPI   H7X19934   5.265   5.399   7.509  0.8329 -0.1903 -0.1117
  175SAPI   H7Y19935   5.265   5.488   7.656 -2.1085 -2.4465  0.8731
  175SAPI   C3819936   5.405   5.322   7.663  0.2074 -0.7303 -0.3787
  175SAPI   H8X19937   5.479   5.267   7.601  0.3920 -0.9668  0.0397
  175SAPI   H8Y19938   5.329   5.251   7.704  0.4033 -0.8016 -0.1331
  175SAPI   C3919939   5.484   5.366   7.788  0.2701  0.0924 -0.8830
  175SAPI   H9X19940   5.530   5.467   7.782  1.3206 -0.2053  1.2413
  175SAPI   H9Y19941   5.567   5.293   7.798 -0.1163 -0.3702 -0.9902
  175SAPI  C31019942   5.407   5.359   7.923  0.0448  0.6068 -0.6137
  175SAPI  H10X19943   5.391   5.252   7.951  1.4105  0.3233 -0.8651
  175SAPI  H10Y19944   5.316   5.423   7.918  1.4272  2.5625 -2.0873
  175SAPI  C31119945   5.493   5.414   8.051 -0.1188 -0.4874  0.2362
  175SAPI  H11X19946   5.546   5.508   8.025 -0.2953 -1.0824 -2.5970
  175SAPI  H11Y19947   5.580   5.345   8.061 -0.1182 -0.4082  0.7743
  175SAPI  C31219948   5.417   5.402   8.185  0.6579  0.5231  0.8597
  175SAPI  H12X19949   5.328   5.466   8.167  2.5879  2.5267 -2.4141
  175SAPI  H12Y19950   5.466   5.455   8.269 -0.5359  1.7278  0.8352
  175SAPI  C31319951   5.390   5.256   8.229 -0.9668 -0.1084 -0.1328
  175SAPI  H13X19952   5.484   5.196   8.227 -0.7485  0.2467 -0.8263
  175SAPI  H13Y19953   5.312   5.219   8.159 -2.1850 -0.5616  1.4061
  175SAPI  C31419954   5.339   5.253   8.373 -0.0399 -0.0266 -0.2766
  175SAPI  H14X19955   5.284   5.157   8.379  0.9576 -0.6013 -0.0275
  175SAPI  H14Y19956   5.268   5.338   8.379  0.1850  0.1362  0.1450
  175SAPI  C31519957   5.437   5.272   8.492 -0.5007  0.3275 -0.5883
  175SAPI  H15X19958   5.492   5.368   8.482  3.3269 -1.8020 -2.1326
  175SAPI  H15Y19959   5.510   5.188   8.498  0.6568  1.2864 -0.7542
  175SAPI  C31619960   5.370   5.264   8.633 -0.4034  0.2071 -0.6459
  175SAPI  H16X19961   5.327   5.362   8.663  0.7069  0.7098 -0.6815
  175SAPI  H16Y19962   5.448   5.247   8.710 -0.6650 -1.3647 -0.6795
  175SAPI  C31719963   5.260   5.158   8.650  0.8617 -0.7379  0.3838
  175SAPI  H17X19964   5.173   5.159   8.581 -1.1201 -0.6232  2.7560
  175SAPI  H17Y19965   5.216   5.178   8.750  2.6772  1.1172  0.8822
  175SAPI  C31819966   5.306   5.019   8.661 -0.1546  0.3166 -0.5256
  175SAPI  H18X19967   5.374   5.011   8.749 -1.6641 -1.2509  0.5624
  175SAPI  H18Y19968   5.359   4.991   8.568 -0.1527 -1.1946 -0.0967
  175SAPI  H18Z19969   5.217   4.953   8.664 -0.1266 -0.0077 -3.6103
  176SAPI   C1219970   4.461   4.798   6.618 -0.0616  0.2700  0.0222
  176SAPI    H219971   4.536   4.728   6.575 -1.5358 -0.0600 -2.1586
  176SAPI    O219972   4.454   4.766   6.754 -0.1643  0.2988 -0.1766
  176SAPI   HO219973   4.394   4.691   6.759  1.0602 -0.6299  2.4356
  176SAPI   C1319974   4.514   4.930   6.600 -0.2726 -0.2260 -0.0628
  176SAPI    H319975   4.506   4.956   6.492  0.7224  1.9113  0.3335
  176SAPI    O319976   4.653   4.933   6.636 -0.1055  0.0808 -0.0522
  176SAPI   HO319977   4.716   4.897   6.574  0.6656  2.1114 -0.5272
  176SAPI   C1419978   4.429   5.034   6.677  0.6462  0.5105  0.1483
  176SAPI    H419979   4.413   5.013   6.785 -1.5178 -2.5845 -0.6420
  176SAPI    O419980   4.482   5.169   6.662  0.5256  0.6577 -0.4358
  176SAPI   HO419981   4.578   5.176   6.665  0.4771  1.1180  0.2190
  176SAPI   C1519982   4.296   5.018   6.607  0.0236 -0.4659  0.1317
  176SAPI    H519983   4.324   5.034   6.501 -1.6228 -0.3429 -0.3070
  176SAPI    O519984   4.208   5.122   6.655 -0.2753  0.4693 -0.2832
  176SAPI   HO519985   4.271   5.191   6.678  1.4891 -1.3946  0.8309
  176SAPI   C1619986   4.231   4.889   6.623  0.4251  0.2569 -0.2412
  176SAPI    H619987   4.216   4.872   6.732  2.5093  2.1073  0.4109
  176SAPI    O619988   4.114   4.895   6.552 -0.0166  0.4144  0.1694
  176SAPI   HO619989   4.082   4.986   6.548  0.3791  0.5185 -0.9876
  176SAPI   C1119990   4.323   4.783   6.561  0.2319 -0.0643 -0.0943
  176SAPI    H119991   4.322   4.809   6.453 -0.9283 -0.6216 -0.2338
  176SAPI     P19992   4.340   4.537   6.461 -0.4289  0.6838  0.2743
  176SAPI   O1319993   4.416   4.614   6.358  0.0695 -0.1936 -0.4481
  176SAPI   O1419994   4.231   4.452   6.411 -0.0156 -0.1864 -0.5276
  176SAPI   O1219995   4.271   4.643   6.565  0.3648  0.2970 -0.2135
  176SAPI   O1119996   4.432   4.439   6.543  0.6889  0.0062 -0.0344
  176SAPI    C119997   4.386   4.349   6.635 -0.3318  0.1328 -0.1900
  176SAPI    HA19998   4.277   4.331   6.628 -0.2827  0.3941 -1.9009
  176SAPI    HB19999   4.430   4.249   6.615  1.8961  0.7767  1.0696
  176SAPI    C220000   4.428   4.376   6.786  0.4434 -0.4977 -0.0561
  176SAPI    HS20001   4.401   4.285   6.843  1.6059 -0.3748  0.7308
  176SAPI   O2120002   4.369   4.494   6.848 -0.5290 -0.2832 -0.0380
  176SAPI   C2120003   4.245   4.478   6.871 -0.3057 -0.5819  0.3031
  176SAPI   O2220004   4.167   4.383   6.849  0.2309 -0.2755  0.4495
  176SAPI   C2220005   4.196   4.614   6.922 -0.3239  0.0277 -0.2244
  176SAPI   H2R20006   4.214   4.612   7.031 -3.2021  2.1497  0.4239
  176SAPI   H2S20007   4.247   4.705   6.882  1.7703 -0.2173  1.6873
  176SAPI    C320008   4.580   4.390   6.812  0.6046  0.4742 -0.2341
  176SAPI    HX20009   4.603   4.491   6.770 -0.0275  0.0141 -1.7615
  176SAPI    HY20010   4.632   4.306   6.761  2.7173  0.4625  1.7935
  176SAPI   O3120011   4.599   4.379   6.960 -0.0652 -0.3077  0.1021
  176SAPI   C3120012   4.623   4.490   7.038 -0.8795  0.5458  0.1955
  176SAPI   O3220013   4.653   4.598   6.989  0.2050 -0.1452  0.2401
  176SAPI   C3220014   4.619   4.458   7.189 -0.1556  0.7018 -0.5215
  176SAPI   H2X20015   4.721   4.466   7.233  0.0420  1.2859 -1.0718
  176SAPI   H2Y20016   4.603   4.349   7.177 -0.2128  0.8703 -2.2278
  176SAPI   C2320017   4.038   4.626   6.904 -0.3072 -0.4504 -0.4024
  176SAPI   H3R20018   3.990   4.531   6.936  1.3606 -1.6207 -1.2573
  176SAPI   H3S20019   4.027   4.642   6.795 -0.2232  1.2481 -0.1910
  176SAPI   C2420020   3.973   4.740   6.990 -0.6278  0.2239  0.2651
  176SAPI   H4R20021   3.978   4.722   7.099  4.0144  2.4857  0.6693
  176SAPI   H4S20022   3.863   4.728   6.984 -0.4558 -2.3442  1.2162
  176SAPI   C2520023   4.021   4.880   6.947  0.4045  0.0048 -0.0892
  176SAPI   H5R20024   4.006   4.896   6.839 -1.0194 -1.8913 -0.2279
  176SAPI   C2620025   4.083   4.972   7.020 -0.0830  0.1410  0.2616
  176SAPI   H6R20026   4.110   5.062   6.963 -0.2472  1.0067  1.5138
  176SAPI   C2720027   4.116   4.972   7.168  0.0909  0.1492  0.6297
  176SAPI   H7R20028   4.039   4.909   7.218  0.2212 -0.1635  0.4432
  176SAPI   H7S20029   4.088   5.074   7.201 -1.4155 -0.3096  0.8165
  176SAPI   C2820030   4.248   4.907   7.210 -0.3131 -0.5405  0.4898
  176SAPI   H8R20031   4.337   4.890   7.148 -0.6877  0.7554 -0.4463
  176SAPI   C2920032   4.271   4.877   7.339 -0.5824  0.0194  0.1350
  176SAPI   H9R20033   4.371   4.840   7.363 -0.3240 -0.5855 -1.6734
  176SAPI  C21020034   4.181   4.889   7.454  0.6706  0.7677 -0.6119
  176SAPI  H10R20035   4.161   4.795   7.508  0.9177  0.3637 -1.2098
  176SAPI  H10S20036   4.081   4.916   7.414  1.5122  1.4191 -2.4109
  176SAPI  C21120037   4.230   4.993   7.554 -0.0754 -0.1347  0.1069
  176SAPI  H11R20038   4.324   5.048   7.536  0.8083 -2.3074 -2.5791
  176SAPI  C21220039   4.169   5.001   7.670  0.2444  0.3848 -1.5984
  176SAPI  H12R20040   4.202   5.058   7.758  0.5887 -1.4950 -0.4499
  176SAPI  C21320041   4.047   4.918   7.715 -0.2726  0.0774 -0.2144
  176SAPI  H13R20042   4.054   4.902   7.824  1.7533  1.0195 -0.1498
  176SAPI  H13S20043   4.060   4.818   7.669  1.0119  0.7356 -1.3738
  176SAPI  C21420044   3.916   4.978   7.673  0.0902  0.2701  0.4827
  176SAPI  H14R20045   3.860   4.928   7.593  2.2581 -0.7969 -0.4340
  176SAPI  C21520046   3.853   5.066   7.742  0.3294  0.3754  0.2395
  176SAPI  H15R20047   3.756   5.108   7.713  0.4573  0.0339 -0.7009
  176SAPI  C21620048   3.894   5.123   7.878  0.7263 -0.6089 -0.2983
  176SAPI  H16R20049   3.965   5.208   7.880  1.2603 -1.0413 -0.7242
  176SAPI  H16S20050   3.955   5.051   7.936  1.3150 -1.3874 -1.8123
  176SAPI  C21720051   3.768   5.152   7.975  0.4232 -0.6153  0.5015
  176SAPI  H17R20052   3.688   5.078   7.951 -2.7207  3.0227 -1.2293
  176SAPI  H17S20053   3.729   5.252   7.946 -0.5811 -0.3826  2.4902
  176SAPI  C21820054   3.811   5.149   8.126  0.9647 -0.2178  0.3518
  176SAPI  H18R20055   3.902   5.211   8.142  1.8798 -1.8125  1.6681
  176SAPI  H18S20056   3.849   5.051   8.161  0.4239 -0.8028 -0.6650
  176SAPI  C21920057   3.694   5.177   8.212  0.4449 -0.2147 -0.8808
  176SAPI  H19R20058   3.647   5.273   8.183 -1.2057 -0.6767  0.1642
  176SAPI  H19S20059   3.727   5.194   8.317 -0.3084  0.1403 -0.6954
  176SAPI  C22020060   3.597   5.066   8.208 -0.4488 -0.7328 -0.4020
  176SAPI  H20R20061   3.518   5.089   8.281  1.3003 -0.2110  1.4082
  176SAPI  H20S20062   3.644   4.968   8.231 -0.8205 -0.7500  0.2956
  176SAPI  H20T20063   3.558   5.056   8.104  0.0792 -1.5760 -0.5329
  176SAPI   C3320064   4.511   4.535   7.271 -0.7885  0.1632  0.2751
  176SAPI   H3X20065   4.414   4.514   7.220 -1.5064  2.0707  0.7726
  176SAPI   H3Y20066   4.515   4.646   7.272 -0.0730  0.2394 -2.2651
  176SAPI   C3420067   4.489   4.485   7.410 -0.3902  0.9247  0.2520
  176SAPI   H4X20068   4.587   4.475   7.461 -1.5151 -1.1139  2.2222
  176SAPI   H4Y20069   4.457   4.379   7.424 -0.6909  0.9628 -0.1305
  176SAPI   C3520070   4.403   4.578   7.497  0.2806 -0.3383  0.8099
  176SAPI   H5X20071   4.296   4.584   7.466  0.9542 -1.1764 -1.9522
  176SAPI   H5Y20072   4.447   4.679   7.492 -2.1812  0.7496 -1.8412
  176SAPI   C3620073   4.398   4.549   7.650 -0.6176  0.2734 -0.0767
  176SAPI   H6X20074   4.504   4.535   7.681 -0.6818 -1.0439 -0.3565
  176SAPI   H6Y20075   4.357   4.445   7.652 -1.9180  0.7041 -2.0331
  176SAPI   C3720076   4.317   4.660   7.725 -0.1363  0.3591 -0.8675
  176SAPI   H7X20077   4.212   4.658   7.687  0.3820 -1.6039 -2.4093
  176SAPI   H7Y20078   4.369   4.757   7.710  1.7182 -0.4914 -0.0727
  176SAPI   C3820079   4.308   4.631   7.877 -0.5319 -0.2119  0.0772
  176SAPI   H8X20080   4.414   4.616   7.909 -0.7269  1.6152  1.7982
  176SAPI   H8Y20081   4.263   4.530   7.873 -1.0523 -0.1560 -7.0500
  176SAPI   C3920082   4.244   4.731   7.964 -0.3132  0.0710  0.6285
  176SAPI   H9X20083   4.146   4.750   7.915  0.0870  1.2151  0.2530
  176SAPI   H9Y20084   4.296   4.829   7.958 -1.5230  0.7307  0.6579
  176SAPI  C31020085   4.235   4.698   8.118 -0.4118  0.4266  0.6834
  176SAPI  H10X20086   4.339   4.693   8.158  0.3572 -0.8219 -1.2919
  176SAPI  H10Y20087   4.188   4.598   8.125 -0.1781  0.3588  1.2705
  176SAPI  C31120088   4.163   4.799   8.196 -0.4909 -0.2179  0.2688
  176SAPI  H11X20089   4.058   4.815   8.163 -0.4354 -0.4495 -0.0270
  176SAPI  H11Y20090   4.219   4.894   8.185  0.5309 -1.0043 -1.7693
  176SAPI  C31220091   4.175   4.766   8.343  0.0306  0.6062 -0.1242
  176SAPI  H12X20092   4.283   4.748   8.363 -0.2421  0.6567  1.5336
  176SAPI  H12Y20093   4.125   4.669   8.366  2.2368 -0.5874 -0.0689
  176SAPI  C31320094   4.131   4.882   8.435 -0.5659  0.1086 -0.4598
  176SAPI  H13X20095   4.040   4.934   8.401 -1.6261 -0.3191  1.5469
  176SAPI  H13Y20096   4.209   4.961   8.425 -0.4205 -0.0974 -1.0052
  176SAPI  C31420097   4.117   4.850   8.584 -0.2931  0.2521 -0.1782
  176SAPI  H14X20098   4.162   4.921   8.657  2.3209  0.7131 -2.0905
  176SAPI  H14Y20099   4.157   4.748   8.602 -1.4166  0.2803  3.4156
  176SAPI  C31520100   3.964   4.838   8.616 -0.2410  0.1777  1.2231
  176SAPI  H15X20101   3.936   4.793   8.713  1.5015 -1.8329  0.8608
  176SAPI  H15Y20102   3.916   4.791   8.527  0.1328 -0.7491  1.5106
  176SAPI  C31620103   3.901   4.977   8.624  0.0977 -0.6222 -0.1546
  176SAPI  H16X20104   3.914   5.026   8.526 -0.5378  0.9769  0.5158
  176SAPI  H16Y20105   3.946   5.042   8.703  0.9365 -1.5389  0.1399
  176SAPI  C31720106   3.748   4.984   8.653 -0.1511 -0.1360  0.2614
  176SAPI  H17X20107   3.706   4.954   8.555  0.4570 -2.0607  0.5364
  176SAPI  H17Y20108   3.718   5.089   8.673 -0.2468  0.0159 -0.6289
  176SAPI  C31820109   3.698   4.894   8.767 -0.1401  0.3258 -0.0733
  176SAPI  H18X20110   3.741   4.910   8.868 -2.4043 -2.0792  1.4005
  176SAPI  H18Y20111   3.716   4.791   8.731 -0.0601  1.3876 -3.3434
  176SAPI  H18Z20112   3.590   4.918   8.780  0.2565  1.4803  1.4456
  177SLPC     N20113   4.954   3.040  10.858 -0.2222 -0.3774 -0.5554
  177SLPC   C1320114   4.925   3.107  10.986  0.0562 -0.4335 -0.4090
  177SLPC  H13A20115   4.855   3.053  11.049 -0.6214  1.3330  0.4153
  177SLPC  H13B20116   5.009   3.122  11.053 -0.5270 -1.7464  0.6799
  177SLPC  H13C20117   4.869   3.196  10.963  1.1848  0.1268 -1.1030
  177SLPC   C1420118   5.059   2.930  10.880  0.4997  0.1597 -0.9367
  177SLPC  H14A20119   5.045   2.857  10.801 -1.3526 -1.2968  0.6345
  177SLPC  H14B20120   5.159   2.967  10.895  0.6597 -0.3197 -0.8314
  177SLPC  H14C20121   5.028   2.864  10.959  0.1109 -0.1864 -1.3726
  177SLPC   C1520122   5.014   3.142  10.769  0.3976  0.0875 -0.3326
  177SLPC  H15A20123   4.948   3.227  10.768 -0.8800 -0.7145  3.0694
  177SLPC  H15B20124   5.112   3.180  10.796  0.9443 -0.6840 -1.1701
  177SLPC  H15C20125   5.026   3.115  10.665  0.6903  1.6402 -0.7236
  177SLPC   C1220126   4.831   2.984  10.791 -0.1037 -0.3074 -0.4840
  177SLPC  H12A20127   4.865   2.940  10.698  1.2707 -0.4000  0.0380
  177SLPC  H12B20128   4.763   3.064  10.765  1.7127  1.5933  0.3665
  177SLPC   C1120129   4.737   2.880  10.854 -0.8206 -0.5286 -0.1985
  177SLPC  H11A20130   4.649   2.873  10.787  0.1040 -1.4824 -1.3554
  177SLPC  H11B20131   4.707   2.922  10.953 -0.2139  0.7665 -0.5442
  177SLPC     P20132   4.821   2.658  10.743  0.1782 -0.1848 -0.0020
  177SLPC   O1320133   4.947   2.694  10.680 -0.4688  0.2897 -0.7925
  177SLPC   O1420134   4.798   2.524  10.797  0.0809 -0.0522 -0.2410
  177SLPC   O1220135   4.792   2.752  10.866  0.0135 -0.4573 -0.0402
  177SLPC   O1120136   4.706   2.705  10.641 -0.1927 -0.0127 -0.4554
  177SLPC    C120137   4.584   2.628  10.639  0.0088 -0.2188  0.7298
  177SLPC    HA20138   4.567   2.564  10.729  0.4519  0.9300  1.6617
  177SLPC    HB20139   4.500   2.702  10.637 -0.7747 -1.0873 -2.1360
  177SLPC    C220140   4.576   2.525  10.519  0.4522  0.1458 -0.6262
  177SLPC    HS20141   4.658   2.450  10.522  0.6261  0.2078 -2.5218
  177SLPC   O2120142   4.577   2.595  10.393  0.3418  0.6248 -0.0590
  177SLPC   C2120143   4.675   2.577  10.310 -0.5138 -0.5808 -0.0870
  177SLPC   O2220144   4.778   2.516  10.337 -0.0640 -0.6074 -0.4135
  177SLPC   C2220145   4.639   2.626  10.170 -0.2751  0.4998  0.3667
  177SLPC   H2R20146   4.599   2.534  10.121  2.3831  0.3283 -1.7421
  177SLPC   H2S20147   4.557   2.701  10.172 -1.9522 -1.0806 -2.2156
  177SLPC    C320148   4.446   2.437  10.523  0.6549  0.3849  0.4235
  177SLPC    HX20149   4.365   2.509  10.499 -0.2980 -0.6916  0.3056
  177SLPC    HY20150   4.417   2.381  10.614 -0.7296 -0.1016 -0.2835
  177SLPC   O3120151   4.451   2.343  10.410 -0.3773 -0.0100 -0.3303
  177SLPC   C3120152   4.524   2.241  10.424  0.2916  0.0463 -0.1211
  177SLPC   O3220153   4.588   2.212  10.522  0.2253  0.7897  0.2259
  177SLPC   C3220154   4.517   2.156  10.302  0.3897 -0.0939 -0.0063
  177SLPC   H2X20155   4.421   2.180  10.252  0.0407  0.2596  0.8093
  177SLPC   H2Y20156   4.519   2.049  10.330  0.5199 -0.7481 -2.3625
  177SLPC   C2320157   4.756   2.679  10.078  0.5739  0.0553 -0.2288
  177SLPC   H3R20158   4.816   2.588  10.059 -1.4363 -1.3904 -0.0023
  177SLPC   H3S20159   4.814   2.762  10.125 -0.0963 -0.4660  1.6105
  177SLPC   C2420160   4.705   2.719   9.933 -0.0932 -0.0092 -0.7630
  177SLPC   H4R20161   4.786   2.767   9.873 -0.5284  2.0371  0.1720
  177SLPC   H4S20162   4.631   2.800   9.953  3.1645  2.4386  3.1917
  177SLPC   C2520163   4.640   2.608   9.844  0.4517  0.3699 -0.1214
  177SLPC   H5R20164   4.543   2.589   9.895  1.2293  1.2899  1.8228
  177SLPC   H5S20165   4.707   2.521   9.828  0.1411 -0.1336  1.2008
  177SLPC   C2620166   4.598   2.668   9.703 -0.5984 -0.4697  0.6111
  177SLPC   H6R20167   4.537   2.760   9.716 -0.1860  0.0396 -0.8615
  177SLPC   H6S20168   4.532   2.590   9.660  2.3663 -1.8957 -1.6806
  177SLPC   C2720169   4.720   2.708   9.618  0.5834 -0.2731  0.1284
  177SLPC   H7R20170   4.784   2.617   9.624  0.4601 -0.4829 -1.3330
  177SLPC   H7S20171   4.783   2.783   9.669  1.0773  0.5407 -1.5840
  177SLPC   C2820172   4.686   2.737   9.475  0.0285  0.4895  0.7361
  177SLPC   H8R20173   4.629   2.832   9.475 -0.1956  0.3554  1.1882
  177SLPC   H8S20174   4.614   2.667   9.427 -1.7697  2.1036  0.9550
  177SLPC   C2920175   4.803   2.758   9.386 -0.4308 -0.8407 -0.7369
  177SLPC   H9R20176   4.893   2.791   9.440 -1.6020  2.9618 -0.7957
  177SLPC  C21020177   4.812   2.743   9.252  0.0528  0.0677 -0.5303
  177SLPC  H10R20178   4.911   2.716   9.213  0.3391  0.0161  0.2324
  177SLPC  C21120179   4.698   2.704   9.166  0.6458  0.5549  0.5069
  177SLPC  H11R20180   4.698   2.594   9.183  0.6182  0.3914 -0.5127
  177SLPC  H11S20181   4.601   2.741   9.205 -0.6000  0.7619 -2.5196
  177SLPC  C21220182   4.711   2.743   9.022  0.0195  0.4337 -0.2042
  177SLPC  H12R20183   4.771   2.674   8.961 -0.2645 -0.3017  0.3370
  177SLPC  C21320184   4.685   2.869   8.975 -0.0439 -0.1848  0.0091
  177SLPC  H13R20185   4.712   2.896   8.872  0.5233  0.9357  0.4378
  177SLPC  C21420186   4.636   2.985   9.061 -0.3057  0.2185  0.0737
  177SLPC  H14R20187   4.623   2.952   9.166  0.4796 -1.7754 -0.3921
  177SLPC  H14S20188   4.532   3.000   9.024 -0.1676  2.3122  0.4428
  177SLPC  C21520189   4.713   3.118   9.049 -0.9382  0.2490 -0.6009
  177SLPC  H15R20190   4.699   3.148   8.943  1.2630  1.3661 -0.6200
  177SLPC  H15S20191   4.821   3.106   9.070 -0.9505 -1.6140 -1.4162
  177SLPC  C21620192   4.672   3.229   9.149  0.1065  0.8546 -0.4229
  177SLPC  H16R20193   4.681   3.193   9.254 -2.2037 -0.9152 -0.7627
  177SLPC  H16S20194   4.562   3.242   9.142  0.2576  3.3452  0.6163
  177SLPC  C21720195   4.729   3.371   9.119 -0.3978 -0.2207 -0.1768
  177SLPC  H17R20196   4.838   3.384   9.138  0.1024  1.4485 -3.5029
  177SLPC  H17S20197   4.678   3.440   9.189 -0.5257 -1.4599  1.0013
  177SLPC  C21820198   4.688   3.426   8.984 -0.2331 -0.6768  0.3427
  177SLPC  H18R20199   4.584   3.465   8.976 -0.4867 -1.3002  0.5697
  177SLPC  H18S20200   4.703   3.364   8.893  1.7814  0.5813 -0.2632
  177SLPC  H18T20201   4.749   3.516   8.958 -1.2601 -0.5675 -1.9130
  177SLPC   C3320202   4.637   2.189  10.207 -0.0675 -0.0276  0.1358
  177SLPC   H3X20203   4.734   2.172  10.259  0.9431 -2.1471 -2.2716
  177SLPC   H3Y20204   4.654   2.292  10.170 -0.4195 -0.1126 -0.2693
  177SLPC   C3420205   4.612   2.098  10.088 -0.5524 -0.1158 -0.1026
  177SLPC   H4X20206   4.508   2.087  10.052 -0.2808  0.7542 -1.1938
  177SLPC   H4Y20207   4.636   1.999  10.133 -0.5107 -1.1771 -2.3028
  177SLPC   C3520208   4.721   2.115   9.982 -0.3086  0.2175  0.3230
  177SLPC   H5X20209   4.824   2.109  10.025  0.3832  0.9477 -1.1651
  177SLPC   H5Y20210   4.716   2.218   9.939 -3.3258  0.3144  0.6714
  177SLPC   C3620211   4.719   2.018   9.866 -0.0739 -0.3408  0.8662
  177SLPC   H6X20212   4.624   1.978   9.824 -0.3420  1.0441  0.1068
  177SLPC   H6Y20213   4.765   1.925   9.906  0.5911 -0.3241  0.1642
  177SLPC   C3720214   4.819   2.064   9.753  0.4347  0.7766 -0.1711
  177SLPC   H7X20215   4.843   1.978   9.687 -1.4154 -1.1319  1.4863
  177SLPC   H7Y20216   4.907   2.091   9.816 -0.3983 -0.3239  1.5598
  177SLPC   C3820217   4.767   2.183   9.676 -0.1821  0.8874  0.3135
  177SLPC   H8X20218   4.759   2.278   9.733  0.8675  0.6282  0.8993
  177SLPC   H8Y20219   4.669   2.151   9.633  0.1065  0.6124 -0.1439
  177SLPC   C3920220   4.853   2.209   9.554  0.5854 -0.2236 -0.0459
  177SLPC   H9X20221   4.876   2.119   9.493  1.0386  0.9611 -1.6967
  177SLPC   H9Y20222   4.947   2.257   9.590 -0.8905  1.3243  2.0254
  177SLPC  C31020223   4.783   2.320   9.465 -0.2146 -0.4814  0.6404
  177SLPC  H10X20224   4.734   2.394   9.532 -0.6046  0.9049 -1.0849
  177SLPC  H10Y20225   4.700   2.272   9.409  0.5183 -0.3104 -0.6210
  177SLPC  C31120226   4.880   2.373   9.359 -0.3728 -0.1492  0.8940
  177SLPC  H11X20227   4.962   2.441   9.392  0.2180 -0.4545  0.1022
  177SLPC  H11Y20228   4.806   2.412   9.285 -0.8469 -0.5539  1.1529
  177SLPC  C31220229   4.942   2.248   9.284 -0.0629  0.2512 -0.0191
  177SLPC  H12X20230   4.863   2.171   9.265  0.2825 -0.4656  1.3307
  177SLPC  H12Y20231   5.024   2.209   9.348  1.5880  1.8835 -1.0537
  177SLPC  C31320232   4.991   2.276   9.142  0.3000  0.4039  0.0640
  177SLPC  H13X20233   4.903   2.299   9.079 -0.2033 -0.5388  0.4076
  177SLPC  H13Y20234   5.033   2.186   9.092 -1.8148 -1.6119  1.7125
  177SLPC  C31420235   5.093   2.391   9.131  0.9835 -0.2279 -0.4081
  177SLPC  H14X20236   5.180   2.374   9.197 -0.4660 -2.1076  1.1226
  177SLPC  H14Y20237   5.029   2.476   9.162  0.3618 -0.2497 -1.5457
  177SLPC  C31520238   5.116   2.432   8.979  0.3544 -0.5149 -0.1778
  177SLPC  H15X20239   5.149   2.539   8.983 -2.2743  0.3382  1.3725
  177SLPC  H15Y20240   5.027   2.424   8.914  0.9320 -0.8384 -0.9397
  177SLPC  C31620241   5.232   2.345   8.928  0.6366 -0.3839 -0.0406
  177SLPC  H16X20242   5.196   2.243   8.902  3.4382 -1.5278  0.1828
  177SLPC  H16Y20243   5.313   2.335   9.004  2.2081 -1.7165 -1.8000
  177SLPC  C31720244   5.300   2.394   8.802  0.1814 -0.9132 -0.3968
  177SLPC  H17X20245   5.308   2.505   8.793  0.4358 -0.8168  0.8158
  177SLPC  H17Y20246   5.238   2.368   8.713  0.2325  0.9714 -1.0342
  177SLPC  C31820247   5.438   2.329   8.796  0.2411  0.6590  0.6766
  177SLPC  H18X20248   5.440   2.219   8.783 -1.0587  0.8182 -1.1417
  177SLPC  H18Y20249   5.503   2.340   8.886  0.6018  2.5240  0.2398
  177SLPC  H18Z20250   5.510   2.372   8.723  0.3547 -0.3567  0.1840
  178SLPC     N20251   0.906   5.051  11.283  0.6677  0.6156 -0.3599
  178SLPC   C1320252   0.799   5.018  11.186  0.4352 -0.4434 -0.2795
  178SLPC  H13A20253   0.804   5.068  11.091  1.9262 -0.2016 -0.1110
  178SLPC  H13B20254   0.806   4.918  11.145  0.6346 -1.1278  1.3371
  178SLPC  H13C20255   0.700   5.040  11.224  1.2667  2.4981  0.4300
  178SLPC   C1420256   0.890   4.961  11.403  0.1581 -1.1568 -0.2569
  178SLPC  H14A20257   0.827   5.003  11.480  1.5104 -0.7625  0.6657
  178SLPC  H14B20258   0.858   4.860  11.383  0.4953 -1.2138 -0.5218
  178SLPC  H14C20259   0.981   4.956  11.460 -0.3148 -1.7799  0.4743
  178SLPC   C1520260   0.902   5.189  11.330  0.5284 -0.3305 -0.1174
  178SLPC  H15A20261   0.902   5.266  11.254  1.7363  0.9592  1.1375
  178SLPC  H15B20262   0.818   5.221  11.389  0.8342  2.0456 -0.8750
  178SLPC  H15C20263   0.987   5.210  11.392 -0.2313 -0.3122  0.9365
  178SLPC   C1220264   1.041   5.017  11.218  0.6186  0.0011  0.4352
  178SLPC  H12A20265   1.053   4.912  11.194  1.7409  0.7563 -2.8237
  178SLPC  H12B20266   1.121   5.041  11.286 -0.5332  3.1584  0.8126
  178SLPC   C1120267   1.074   5.091  11.082 -0.1292  0.0180 -1.2412
  178SLPC  H11A20268   1.010   5.050  11.000 -1.3327 -0.1378 -0.2467
  178SLPC  H11B20269   1.171   5.051  11.044 -0.5178 -0.2640 -1.9708
  178SLPC     P20270   1.206   5.322  11.091  0.0522  0.1420 -0.2481
  178SLPC   O1320271   1.173   5.445  11.165 -0.2158 -0.1041 -0.0316
  178SLPC   O1420272   1.321   5.247  11.141  0.0491  0.3991 -0.5368
  178SLPC   O1220273   1.072   5.238  11.080 -0.8567 -0.2970  0.3240
  178SLPC   O1120274   1.233   5.371  10.945 -0.2492 -0.2411 -0.2389
  178SLPC    C120275   1.136   5.456  10.884 -0.6461 -0.0731 -0.0046
  178SLPC    HA20276   1.046   5.394  10.863  1.1720 -2.4408 -1.3337
  178SLPC    HB20277   1.115   5.543  10.950 -0.2658  0.4317 -0.5439
  178SLPC    C220278   1.174   5.529  10.755 -0.1543  0.1106  0.0892
  178SLPC    HS20279   1.116   5.623  10.741  0.1137  0.0335 -1.8224
  178SLPC   O2120280   1.163   5.438  10.638  0.7856 -0.0032 -0.6599
  178SLPC   C2120281   1.037   5.425  10.596 -0.3597  0.1363  0.3415
  178SLPC   O2220282   0.939   5.468  10.648 -0.7947 -0.6340 -0.6130
  178SLPC   C2220283   1.055   5.386  10.457 -0.4801  0.3871 -0.3410
  178SLPC   H2R20284   1.112   5.291  10.448 -1.2140 -0.2298  1.1716
  178SLPC   H2S20285   0.952   5.355  10.430 -0.5488 -0.6617  0.9774
  178SLPC    C320286   1.320   5.575  10.766 -0.3271  0.2384  0.1966
  178SLPC    HX20287   1.385   5.485  10.756  0.5110  0.9057 -0.4706
  178SLPC    HY20288   1.340   5.627  10.862 -1.2976  2.2119 -0.6057
  178SLPC   O3120289   1.342   5.657  10.651 -0.0941  0.1109 -0.5142
  178SLPC   C3120290   1.465   5.655  10.599  0.4550  0.0667  0.3404
  178SLPC   O3220291   1.565   5.611  10.652  0.5450  0.0535  0.1783
  178SLPC   C3220292   1.453   5.720  10.459  0.1920 -0.4725 -0.1784
  178SLPC   H2X20293   1.514   5.812  10.471  1.9296 -1.6326  0.2061
  178SLPC   H2Y20294   1.348   5.749  10.437  1.2279  1.1925 -3.7020
  178SLPC   C2320295   1.112   5.502  10.370 -0.0912  0.3818  0.1727
  178SLPC   H3R20296   1.212   5.522  10.415 -0.2838  1.6939  0.0617
  178SLPC   H3S20297   1.048   5.592  10.382 -0.2086 -0.0140  3.3049
  178SLPC   C2420298   1.143   5.462  10.220  0.8192  0.5617 -0.4736
  178SLPC   H4R20299   1.167   5.553  10.160 -0.2279  0.0191 -1.7375
  178SLPC   H4S20300   1.058   5.410  10.171  0.2881 -0.6873  1.6412
  178SLPC   C2520301   1.261   5.358  10.215  0.3756 -0.4304  0.6687
  178SLPC   H5R20302   1.225   5.259  10.249  0.3774 -0.2294  1.2580
  178SLPC   H5S20303   1.343   5.393  10.282  1.0221  0.4505 -0.5339
  178SLPC   C2620304   1.301   5.346  10.070  0.3583  0.4100 -0.8172
  178SLPC   H6R20305   1.310   5.447  10.025 -1.7372  1.3288  0.6861
  178SLPC   H6S20306   1.215   5.300  10.017  0.0125  1.5919 -1.3045
  178SLPC   C2720307   1.424   5.266  10.056 -0.9327  0.1249  0.4472
  178SLPC   H7R20308   1.415   5.168  10.108  2.1259 -0.7980 -0.5443
  178SLPC   H7S20309   1.506   5.316  10.113 -1.0802  1.1557 -0.2218
  178SLPC   C2820310   1.463   5.241   9.909  0.0768 -0.7255  0.1854
  178SLPC   H8R20311   1.365   5.213   9.865  0.0193 -2.2837  1.2130
  178SLPC   H8S20312   1.524   5.148   9.908 -1.5481 -1.8712  1.6488
  178SLPC   C2920313   1.518   5.359   9.825  0.2734 -0.1138  0.3526
  178SLPC   H9R20314   1.611   5.413   9.848 -0.1699  2.4717 -3.1265
  178SLPC  C21020315   1.465   5.390   9.703 -0.1334  0.3188  0.5714
  178SLPC  H10R20316   1.517   5.470   9.648 -0.9831  0.5423  0.0638
  178SLPC  C21120317   1.349   5.333   9.625  0.5309 -0.0597 -0.2916
  178SLPC  H11R20318   1.340   5.404   9.540  0.5566 -0.8252 -0.9449
  178SLPC  H11S20319   1.259   5.356   9.686 -0.9907 -2.3177 -1.5517
  178SLPC  C21220320   1.362   5.191   9.589  0.7638 -0.1343 -0.3713
  178SLPC  H12R20321   1.419   5.126   9.657 -1.5013  0.1461  1.9547
  178SLPC  C21320322   1.301   5.138   9.481 -0.2085 -0.3763 -0.6743
  178SLPC  H13R20323   1.310   5.029   9.467  0.9386 -0.1532 -1.9102
  178SLPC  C21420324   1.221   5.213   9.379 -0.1270 -0.3593 -0.5570
  178SLPC  H14R20325   1.192   5.310   9.424  1.2446 -0.6813  1.1371
  178SLPC  H14S20326   1.128   5.153   9.373 -0.0851 -0.8291  2.2115
  178SLPC  C21520327   1.287   5.228   9.243 -0.1828  0.5829  0.4439
  178SLPC  H15R20328   1.387   5.271   9.261  0.8295 -1.7349  0.6422
  178SLPC  H15S20329   1.232   5.305   9.186 -3.8109 -0.9917  1.4867
  178SLPC  C21620330   1.291   5.108   9.149 -0.5396  0.6170 -0.3710
  178SLPC  H16R20331   1.330   5.025   9.212 -0.7356  1.1232  0.4385
  178SLPC  H16S20332   1.366   5.135   9.073 -1.7584  2.0144 -1.1318
  178SLPC  C21720333   1.147   5.051   9.113  0.5840 -0.1309  0.1728
  178SLPC  H17R20334   1.101   5.006   9.203  1.3869  0.9696  1.1652
  178SLPC  H17S20335   1.146   4.977   9.030 -2.2666 -0.4408  0.3798
  178SLPC  C21820336   1.033   5.158   9.085  0.5036  0.5140 -1.0674
  178SLPC  H18R20337   0.954   5.105   9.028  0.6379  1.6410 -2.3515
  178SLPC  H18S20338   1.067   5.240   9.018 -1.0499 -0.7979 -3.6419
  178SLPC  H18T20339   0.991   5.194   9.181  1.9620 -1.1888  0.2800
  178SLPC   C3320340   1.525   5.643  10.350  0.0543 -0.0075  0.1270
  178SLPC   H3X20341   1.502   5.534  10.343 -1.2952  0.2145  0.6948
  178SLPC   H3Y20342   1.632   5.644  10.379 -0.4903 -1.6735  2.4566
  178SLPC   C3420343   1.487   5.711  10.222  0.3403 -0.1668  0.1607
  178SLPC   H4X20344   1.504   5.820  10.235 -0.3844 -0.0799  0.4266
  178SLPC   H4Y20345   1.378   5.708  10.202  0.6852  2.3644 -2.8251
  178SLPC   C3520346   1.560   5.675  10.099  0.2019 -0.2804 -0.3691
  178SLPC   H5X20347   1.510   5.585  10.056 -1.1756 -0.1742  0.8919
  178SLPC   H5Y20348   1.661   5.631  10.115  0.4750  0.8644  1.4573
  178SLPC   C3620349   1.552   5.789   9.995 -0.0616 -0.6092 -0.6831
  178SLPC   H6X20350   1.631   5.860  10.029 -1.5138  0.2821  1.0035
  178SLPC   H6Y20351   1.451   5.835   9.997 -0.2581 -0.9201 -2.1395
  178SLPC   C3720352   1.567   5.728   9.852  0.1164 -0.4105 -0.3759
  178SLPC   H7X20353   1.473   5.674   9.830 -0.2662  0.6012 -1.3111
  178SLPC   H7Y20354   1.640   5.644   9.843 -2.0834 -2.2297 -2.4152
  178SLPC   C3820355   1.592   5.838   9.743 -0.5598  0.3888 -0.2169
  178SLPC   H8X20356   1.695   5.871   9.767 -0.5427 -1.1429  2.1090
  178SLPC   H8Y20357   1.517   5.918   9.758 -1.8336 -0.8360  0.1238
  178SLPC   C3920358   1.568   5.800   9.595 -0.4208  0.3642 -1.0059
  178SLPC   H9X20359   1.471   5.747   9.599  1.0610 -2.4488  1.2674
  178SLPC   H9Y20360   1.650   5.729   9.571  0.4874  1.2718 -0.6914
  178SLPC  C31020361   1.582   5.914   9.490 -0.7689  0.2385 -0.3383
  178SLPC  H10X20362   1.661   5.990   9.503 -0.3081 -0.2861 -0.0210
  178SLPC  H10Y20363   1.482   5.962   9.490 -0.0982  1.7006 -0.6681
  178SLPC  C31120364   1.593   5.853   9.353 -0.5175  0.2659  0.0859
  178SLPC  H11X20365   1.500   5.794   9.338  1.0492 -1.8204 -2.3518
  178SLPC  H11Y20366   1.674   5.777   9.341  0.6269  1.6852 -1.8524
  178SLPC  C31220367   1.591   5.951   9.235 -0.3917  0.1536 -0.1351
  178SLPC  H12X20368   1.670   6.027   9.250 -0.8444  0.1532  2.6787
  178SLPC  H12Y20369   1.494   6.005   9.228  0.6864  2.0202 -1.7698
  178SLPC  C31320370   1.598   5.870   9.104  0.0122 -0.0403 -0.1677
  178SLPC  H13X20371   1.518   5.793   9.103  1.3793 -1.5955 -3.2545
  178SLPC  H13Y20372   1.696   5.816   9.103  1.1826  1.8895  1.4336
  178SLPC  C31420373   1.586   5.954   8.978  0.9072 -0.0416 -0.1908
  178SLPC  H14X20374   1.618   5.896   8.889  4.1907 -0.6286  1.2128
  178SLPC  H14Y20375   1.659   6.038   8.970  0.2586  0.6337  0.6668
  178SLPC  C31520376   1.450   6.017   8.964  0.2622 -0.3040  0.2178
  178SLPC  H15X20377   1.373   5.939   8.947 -1.4798  1.3490  0.1204
  178SLPC  H15Y20378   1.412   6.072   9.052  0.8311 -0.8388  0.8057
  178SLPC  C31620379   1.440   6.114   8.844  0.2434 -0.7579 -0.0477
  178SLPC  H16X20380   1.472   6.054   8.756  2.1124 -1.1909  0.8552
  178SLPC  H16Y20381   1.501   6.207   8.848 -1.5054  0.5506 -1.8688
  178SLPC  C31720382   1.299   6.172   8.821  0.1935  0.8937 -0.1527
  178SLPC  H17X20383   1.310   6.243   8.736  0.1009  1.1351  0.0330
  178SLPC  H17Y20384   1.265   6.231   8.909 -1.2908 -1.6290  1.0753
  178SLPC  C31820385   1.191   6.063   8.797  0.0482  0.2545  0.2957
  178SLPC  H18X20386   1.093   6.107   8.771  0.1021  0.1362 -0.1059
  178SLPC  H18Y20387   1.175   6.006   8.891 -0.4596  1.5677  1.0333
  178SLPC  H18Z20388   1.231   5.993   8.721  1.2668  0.4606  0.7326
  179SLPC     N20389   3.167   0.078  10.763  0.0231  0.3642  0.6750
  179SLPC   C1320390   3.250  -0.048  10.773 -0.7721 -0.2179 -0.1953
  179SLPC  H13A20391   3.318  -0.063  10.691  0.4604  1.2870  0.5021
  179SLPC  H13B20392   3.312  -0.048  10.861 -0.7270 -2.2539 -0.1761
  179SLPC  H13C20393   3.192  -0.139  10.787  0.8152 -1.3719 -0.8016
  179SLPC   C1420394   3.261   0.191  10.770 -0.8544  0.6448  0.0527
  179SLPC  H14A20395   3.311   0.192  10.674 -1.8084 -2.3136 -0.5910
  179SLPC  H14B20396   3.214   0.285  10.792 -1.0285  0.7521 -0.7220
  179SLPC  H14C20397   3.336   0.170  10.845 -1.2342 -0.4734  0.1328
  179SLPC   C1520398   3.070   0.093  10.874 -0.2209 -0.0067 -0.6369
  179SLPC  H15A20399   2.998   0.171  10.855 -0.0393  0.3572  0.1335
  179SLPC  H15B20400   3.011   0.004  10.888 -0.3944 -0.1094 -1.8621
  179SLPC  H15C20401   3.121   0.139  10.957 -0.0519  1.6465 -1.6164
  179SLPC   C1220402   3.090   0.090  10.630 -0.4348  0.3539 -0.4006
  179SLPC  H12A20403   3.056   0.192  10.618  0.0990  0.8677  2.0313
  179SLPC  H12B20404   3.005   0.024  10.637 -0.2844  0.2777  0.9893
  179SLPC   C1120405   3.164   0.039  10.505 -0.7785  0.0614 -0.8609
  179SLPC  H11A20406   3.088   0.052  10.425 -1.9010 -0.2992  0.1242
  179SLPC  H11B20407   3.185  -0.068  10.528 -1.8936 -0.2584 -1.2550
  179SLPC     P20408   3.406   0.061  10.405 -0.4043 -0.3559  0.4502
  179SLPC   O1320409   3.511   0.162  10.429 -0.1128 -0.2206 -0.0640
  179SLPC   O1420410   3.431  -0.079  10.438 -0.0234  0.6043 -0.5758
  179SLPC   O1220411   3.283   0.113  10.488  0.8262 -0.0313 -0.2752
  179SLPC   O1120412   3.372   0.080  10.249 -0.3295 -0.0243  0.7210
  179SLPC    C120413   3.286   0.187  10.205  0.6276  0.6525 -0.4027
  179SLPC    HA20414   3.179   0.159  10.219  0.3889  1.1603 -1.1797
  179SLPC    HB20415   3.301   0.281  10.263 -0.6355 -1.2814  3.4794
  179SLPC    C220416   3.297   0.227  10.052 -0.9690  0.3786  0.1579
  179SLPC    HS20417   3.236   0.319  10.039 -0.6102  0.7600  1.0601
  179SLPC   O2120418   3.258   0.111   9.972 -0.4205 -0.1230 -0.0050
  179SLPC   C2120419   3.124   0.084   9.959 -0.0973 -0.3779 -0.4185
  179SLPC   O2220420   3.036   0.132  10.031 -0.2648  0.3898  0.1020
  179SLPC   C2220421   3.101  -0.018   9.847 -0.3782  0.1657  0.2970
  179SLPC   H2R20422   3.175   0.012   9.769  1.4296 -0.0280  1.8470
  179SLPC   H2S20423   3.124  -0.117   9.891  0.3158  0.7528  1.3019
  179SLPC    C320424   3.445   0.250  10.004  0.3498  0.0164 -0.7698
  179SLPC    HX20425   3.496   0.151  10.004  0.9481  0.2957  0.6725
  179SLPC    HY20426   3.496   0.318  10.076  1.5151 -1.4975 -0.1027
  179SLPC   O3120427   3.456   0.290   9.871  0.2299  0.7011 -0.4782
  179SLPC   C3120428   3.442   0.421   9.842  0.2447  0.0881  0.2916
  179SLPC   O3220429   3.435   0.502   9.929  0.1729  0.2742 -1.1165
  179SLPC   C3220430   3.449   0.448   9.690 -0.5253  0.4558  0.5536
  179SLPC   H2X20431   3.553   0.420   9.664 -0.4782  1.9551 -1.0412
  179SLPC   H2Y20432   3.436   0.557   9.673  0.4745  0.4658 -0.2962
  179SLPC   C2320433   2.961  -0.009   9.790  0.1420  0.5649  0.5994
  179SLPC   H3R20434   2.960   0.098   9.760  1.1283  0.6043  0.7030
  179SLPC   H3S20435   2.885  -0.038   9.866 -0.8069 -1.4036 -0.9914
  179SLPC   C2420436   2.935  -0.094   9.665 -0.0527  0.0065  0.1535
  179SLPC   H4R20437   2.926  -0.190   9.719 -2.5214  1.4418  2.5265
  179SLPC   H4S20438   3.008  -0.090   9.581 -0.0663 -1.3922  0.0609
  179SLPC   C2520439   2.798  -0.073   9.597  0.3885  0.0540  0.3249
  179SLPC   H5R20440   2.783   0.031   9.561  1.7149  0.6293  1.3459
  179SLPC   H5S20441   2.717  -0.083   9.672 -0.9371 -0.0631 -1.0679
  179SLPC   C2620442   2.771  -0.184   9.493 -0.5291 -0.2465 -0.2709
  179SLPC   H6R20443   2.724  -0.263   9.556 -0.4071  0.1992  0.3888
  179SLPC   H6S20444   2.863  -0.230   9.451 -0.8241 -0.0071 -1.2024
  179SLPC   C2720445   2.663  -0.153   9.388  0.4401 -0.8454 -0.2013
  179SLPC   H7R20446   2.569  -0.125   9.439  2.4440  1.4842  2.5721
  179SLPC   H7S20447   2.647  -0.246   9.329 -0.8578 -1.5532  1.1979
  179SLPC   C2820448   2.699  -0.042   9.291  0.1251 -0.1714 -0.2026
  179SLPC   H8R20449   2.785  -0.081   9.232 -0.0454 -0.9090  0.0183
  179SLPC   H8S20450   2.727   0.047   9.351 -0.9104 -0.1981  0.3360
  179SLPC   C2920451   2.584  -0.002   9.206  0.3977  0.8540 -0.5008
  179SLPC   H9R20452   2.520   0.075   9.251 -2.3370 -1.6909  0.3234
  179SLPC  C21020453   2.569  -0.050   9.076  0.2478 -0.3810  0.3571
  179SLPC  H10R20454   2.482  -0.006   9.024  0.5724  0.9461  0.8827
  179SLPC  C21120455   2.656  -0.158   9.007  0.5169  0.7644 -0.2509
  179SLPC  H11R20456   2.602  -0.209   8.925  0.4250  2.6150 -1.4072
  179SLPC  H11S20457   2.700  -0.229   9.080 -0.5858 -0.1510 -0.4575
  179SLPC  C21220458   2.770  -0.081   8.950 -0.4045 -0.2881 -0.3773
  179SLPC  H12R20459   2.816  -0.023   9.031 -3.1318  0.6968  0.5494
  179SLPC  C21320460   2.822  -0.072   8.828  0.2343 -0.0491  0.2758
  179SLPC  H13R20461   2.912  -0.010   8.818 -0.4859  1.0968  0.7321
  179SLPC  C21420462   2.785  -0.147   8.702  0.2913 -0.0834 -0.7205
  179SLPC  H14R20463   2.706  -0.223   8.720  0.0338  0.0457 -1.2785
  179SLPC  H14S20464   2.872  -0.199   8.657 -0.6964 -1.7478 -0.7952
  179SLPC  C21520465   2.731  -0.048   8.598  0.0580 -0.4090 -0.6729
  179SLPC  H15R20466   2.669  -0.098   8.520 -0.2120  1.5271 -1.7741
  179SLPC  H15S20467   2.823   0.002   8.560 -1.8635  1.5906 -3.0933
  179SLPC  C21620468   2.642   0.059   8.658 -0.5296 -0.0808 -0.1845
  179SLPC  H16R20469   2.690   0.128   8.731  2.5171 -0.8209 -1.3429
  179SLPC  H16S20470   2.566  -0.002   8.711  0.1781  0.0726  1.0585
  179SLPC  C21720471   2.565   0.135   8.548  0.3602 -0.3758 -0.3018
  179SLPC  H17R20472   2.512   0.064   8.482 -0.9513  0.0379  0.2812
  179SLPC  H17S20473   2.636   0.191   8.483 -0.0080  0.1476 -0.2552
  179SLPC  C21820474   2.461   0.245   8.592 -1.0631 -0.2528 -0.3853
  179SLPC  H18R20475   2.378   0.214   8.659 -1.4370  0.3361 -0.5749
  179SLPC  H18S20476   2.419   0.294   8.502 -1.5560 -1.8836 -1.0796
  179SLPC  H18T20477   2.524   0.313   8.653 -2.3138 -0.0974  0.7694
  179SLPC   C3320478   3.367   0.346   9.601 -0.4167 -0.1986 -0.2616
  179SLPC   H3X20479   3.262   0.340   9.637 -0.6990 -2.0933 -1.2386
  179SLPC   H3Y20480   3.406   0.246   9.632 -0.3788 -0.0865  0.0513
  179SLPC   C3420481   3.372   0.370   9.452 -0.3217 -0.3438  0.3579
  179SLPC   H4X20482   3.319   0.280   9.413  2.1289 -2.3686  1.4010
  179SLPC   H4Y20483   3.472   0.350   9.407 -0.7915  1.5036 -1.6724
  179SLPC   C3520484   3.317   0.510   9.398 -0.7451  0.5075  0.3333
  179SLPC   H5X20485   3.396   0.585   9.422 -1.1561  1.1764 -0.3578
  179SLPC   H5Y20486   3.219   0.523   9.447 -0.7517  1.3802  0.1145
  179SLPC   C3620487   3.306   0.514   9.242  0.1561 -0.4432 -0.0008
  179SLPC   H6X20488   3.253   0.431   9.191  0.1549 -1.0623  0.9838
  179SLPC   H6Y20489   3.409   0.505   9.202  1.0912 -2.7113  2.6100
  179SLPC   C3720490   3.248   0.658   9.199  0.0098 -0.1332  0.3490
  179SLPC   H7X20491   3.325   0.729   9.235  1.8683 -1.6026 -0.5403
  179SLPC   H7Y20492   3.148   0.681   9.240  0.4404  1.4304  0.5935
  179SLPC   C3820493   3.244   0.679   9.049  0.2903 -0.4117 -0.7415
  179SLPC   H8X20494   3.176   0.604   9.003  1.2055 -1.8320  0.1366
  179SLPC   H8Y20495   3.348   0.665   9.015  0.1579 -0.6348 -1.0542
  179SLPC   C3920496   3.191   0.826   9.022 -0.5076  1.0072 -0.0059
  179SLPC   H9X20497   3.250   0.902   9.077 -0.0201  1.5367 -1.2179
  179SLPC   H9Y20498   3.087   0.830   9.059 -0.4866 -0.9467  0.3858
  179SLPC  C31020499   3.178   0.857   8.873 -0.2380  0.6976 -0.1617
  179SLPC  H10X20500   3.086   0.806   8.839 -0.1895 -0.4339  1.3464
  179SLPC  H10Y20501   3.275   0.829   8.826  0.5744  1.5279  0.9620
  179SLPC  C31120502   3.173   1.012   8.861  0.4974  0.1129 -0.8614
  179SLPC  H11X20503   3.271   1.050   8.896  0.0574 -0.0502  0.6036
  179SLPC  H11Y20504   3.090   1.050   8.924 -1.3697  0.3925 -3.3403
  179SLPC  C31220505   3.160   1.071   8.719 -0.2480  0.0067 -0.0623
  179SLPC  H12X20506   3.172   1.181   8.715  0.2363 -0.0718 -1.3391
  179SLPC  H12Y20507   3.061   1.037   8.683 -0.7877 -1.1207  2.2843
  179SLPC  C31320508   3.272   1.028   8.624 -0.2962  0.5414  0.1444
  179SLPC  H13X20509   3.243   1.059   8.521 -0.3888  2.6833  0.7630
  179SLPC  H13Y20510   3.283   0.917   8.625 -1.6978  0.3806  0.8606
  179SLPC  C31420511   3.408   1.102   8.638 -0.2914  0.1697 -0.3782
  179SLPC  H14X20512   3.416   1.108   8.749  0.7834 -0.2453 -0.4233
  179SLPC  H14Y20513   3.402   1.200   8.586 -0.9388 -0.6350 -1.8770
  179SLPC  C31520514   3.519   1.008   8.595 -0.0665  0.6326  0.2564
  179SLPC  H15X20515   3.486   0.961   8.500  2.4891 -3.7860  1.2766
  179SLPC  H15Y20516   3.528   0.925   8.668  0.2498 -0.9428 -1.4845
  179SLPC  C31620517   3.658   1.070   8.584 -0.5242 -0.8074 -0.7801
  179SLPC  H16X20518   3.733   0.994   8.552  2.0089  2.1795 -2.4993
  179SLPC  H16Y20519   3.692   1.118   8.678 -2.2270  2.8596 -1.8596
  179SLPC  C31720520   3.666   1.174   8.473 -0.0334  0.4153  0.1533
  179SLPC  H17X20521   3.775   1.189   8.454  0.0105  0.3062  0.3118
  179SLPC  H17Y20522   3.628   1.270   8.514  0.2999 -0.0222  1.5127
  179SLPC  C31820523   3.608   1.129   8.337  0.0100 -0.8727  0.2456
  179SLPC  H18X20524   3.650   1.192   8.255  1.9709  1.1314  2.6228
  179SLPC  H18Y20525   3.499   1.151   8.336  0.3822  1.1869 -0.3992
  179SLPC  H18Z20526   3.624   1.020   8.329 -1.8435 -1.2754  1.5891
  180SLPC     N20527   3.667   5.771  10.913 -0.2259  0.2476  0.3191
  180SLPC   C1320528   3.683   5.803  10.767  0.7558 -0.0949 -0.7256
  180SLPC  H13A20529   3.740   5.720  10.729 -1.9865 -1.3551 -2.4600
  180SLPC  H13B20530   3.589   5.816  10.715 -0.2791  1.9810  1.4655
  180SLPC  H13C20531   3.743   5.889  10.743 -0.3984  0.2554 -2.5300
  180SLPC   C1420532   3.601   5.885  10.978  0.5784 -0.8643 -0.7734
  180SLPC  H14A20533   3.674   5.964  10.971  0.8742 -1.2085 -1.6415
  180SLPC  H14B20534   3.509   5.901  10.924 -1.2064 -4.0219  1.0221
  180SLPC  H14C20535   3.566   5.868  11.079 -1.4935 -2.4201 -1.6730
  180SLPC   C1520536   3.799   5.768  10.971 -0.3383 -0.1608  0.2641
  180SLPC  H15A20537   3.861   5.856  10.963  3.0666 -2.1107  2.5536
  180SLPC  H15B20538   3.801   5.742  11.076 -0.8212 -0.0806  0.2969
  180SLPC  H15C20539   3.858   5.689  10.928  1.4141  0.4614  1.3880
  180SLPC   C1220540   3.589   5.643  10.938  0.2079 -0.4420 -0.4226
  180SLPC  H12A20541   3.500   5.653  10.878  0.6133  3.0764 -0.6476
  180SLPC  H12B20542   3.548   5.653  11.038  1.6989  2.2125  0.0390
  180SLPC   C1120543   3.658   5.507  10.920 -0.1588 -0.3510 -0.1983
  180SLPC  H11A20544   3.592   5.424  10.953 -1.2480 -0.1980 -1.8291
  180SLPC  H11B20545   3.757   5.493  10.967  0.2335 -0.8496 -1.1359
  180SLPC     P20546   3.585   5.470  10.660  0.2063  0.2496 -0.1098
  180SLPC   O1320547   3.600   5.327  10.622  0.2600  0.3077 -0.4399
  180SLPC   O1420548   3.447   5.517  10.691  0.3598  0.1159  0.4269
  180SLPC   O1220549   3.688   5.497  10.780  1.4726 -0.7815  0.4142
  180SLPC   O1120550   3.649   5.561  10.546 -0.2505  0.5129 -0.2427
  180SLPC    C120551   3.785   5.539  10.512  0.2953  0.0823 -0.1756
  180SLPC    HA20552   3.853   5.574  10.592  3.2948 -0.7026 -2.2171
  180SLPC    HB20553   3.806   5.430  10.504 -0.5019  0.0324 -2.2343
  180SLPC    C220554   3.821   5.612  10.375 -0.6853 -0.6815 -0.6025
  180SLPC    HS20555   3.737   5.595  10.305 -1.1148 -2.9364  0.3797
  180SLPC   O2120556   3.947   5.563  10.311  0.4170 -0.5283 -0.3524
  180SLPC   C2120557   3.936   5.459  10.244 -0.1467 -0.6288  0.4002
  180SLPC   O2220558   3.830   5.400  10.220 -0.3122  0.1642  0.5602
  180SLPC   C2220559   4.065   5.412  10.188 -0.2327  0.3040 -0.1082
  180SLPC   H2R20560   4.089   5.456  10.089  1.5958  1.0615  0.6214
  180SLPC   H2S20561   4.148   5.439  10.257 -1.1663  1.6157  0.5511
  180SLPC    C320562   3.831   5.762  10.415  0.5476  0.3126  0.5970
  180SLPC    HX20563   3.920   5.780  10.478  0.0173  1.7518  0.9722
  180SLPC    HY20564   3.742   5.786  10.478 -0.3251  1.8097 -1.0858
  180SLPC   O3120565   3.834   5.850  10.298  0.1058 -0.1340  0.3306
  180SLPC   C3120566   3.711   5.864  10.248  0.2898  0.0757  0.1093
  180SLPC   O3220567   3.616   5.796  10.281 -0.5385 -0.5164  0.2993
  180SLPC   C3220568   3.721   5.960  10.135  0.1650 -0.6302  0.1132
  180SLPC   H2X20569   3.820   5.961  10.084  0.5391  1.5402  0.7763
  180SLPC   H2Y20570   3.712   6.061  10.179  0.1055 -0.2860 -0.6662
  180SLPC   C2320571   4.057   5.257  10.167 -0.3407  0.4286  0.0844
  180SLPC   H3R20572   3.965   5.216  10.119 -1.7447  0.7814  2.3172
  180SLPC   H3S20573   4.069   5.216  10.269  3.9893 -1.1385 -0.8577
  180SLPC   C2420574   4.175   5.203  10.093 -0.9415 -0.5069  1.4610
  180SLPC   H4R20575   4.169   5.092  10.097 -1.0631 -0.5437  0.5639
  180SLPC   H4S20576   4.269   5.234  10.145 -0.7188  0.8207  0.3432
  180SLPC   C2520577   4.178   5.232   9.938 -0.0266 -0.7600 -0.1657
  180SLPC   H5R20578   4.282   5.205   9.912 -0.5098  0.9451 -4.8582
  180SLPC   H5S20579   4.162   5.341   9.920 -1.0090 -0.6261  1.3285
  180SLPC   C2620580   4.073   5.165   9.853  0.8908  0.1986  0.6151
  180SLPC   H6R20581   3.973   5.207   9.876 -0.4007 -0.7206 -2.8305
  180SLPC   H6S20582   4.077   5.062   9.894  0.7911  0.1664  0.5422
  180SLPC   C2720583   4.088   5.175   9.699 -0.6376  0.2515  0.4464
  180SLPC   H7R20584   4.050   5.080   9.656 -1.4923  0.3626  0.9202
  180SLPC   H7S20585   4.191   5.195   9.663 -0.7248  0.1660  0.1454
  180SLPC   C2820586   4.006   5.289   9.638  0.0892  0.0129  0.5623
  180SLPC   H8R20587   4.044   5.382   9.686  0.7457  0.5214 -0.8659
  180SLPC   H8S20588   3.897   5.272   9.652  0.2932 -1.6798  0.2355
  180SLPC   C2920589   4.041   5.304   9.488 -0.3478 -0.4173 -0.7696
  180SLPC   H9R20590   4.137   5.354   9.470 -1.1083  1.9741  1.1663
  180SLPC  C21020591   3.988   5.252   9.382 -0.5177  0.0387  0.1685
  180SLPC  H10R20592   4.027   5.278   9.282 -0.1175 -2.5541 -0.4056
  180SLPC  C21120593   3.864   5.164   9.388 -0.0038  0.6804  0.5896
  180SLPC  H11R20594   3.797   5.212   9.462  0.4248 -0.5629  1.8185
  180SLPC  H11S20595   3.893   5.059   9.411 -0.5936  0.6023  0.9762
  180SLPC  C21220596   3.793   5.152   9.255 -0.0294 -0.0331 -0.1593
  180SLPC  H12R20597   3.714   5.228   9.243  0.3444  0.4143  0.1614
  180SLPC  C21320598   3.835   5.078   9.146 -0.0125 -0.3069  0.1478
  180SLPC  H13R20599   3.765   5.080   9.061 -0.2245  1.5833  0.3251
  180SLPC  C21420600   3.958   4.996   9.135  0.1439  1.3528 -0.0547
  180SLPC  H14R20601   3.922   4.895   9.105  0.1215  1.5194 -0.6117
  180SLPC  H14S20602   4.023   4.987   9.224 -0.3411 -3.0341  0.0887
  180SLPC  C21520603   4.045   5.055   9.027 -0.0977 -0.2353 -0.2660
  180SLPC  H15R20604   4.052   5.163   9.054 -1.6110  0.0580 -0.9405
  180SLPC  H15S20605   3.995   5.044   8.929 -1.3109 -0.2978  0.3353
  180SLPC  C21620606   4.188   5.008   9.016  0.3833  0.5395 -0.2238
  180SLPC  H16R20607   4.181   4.898   9.003  0.9422  0.0211  2.9669
  180SLPC  H16S20608   4.247   5.013   9.110  0.4600  0.3955 -0.2638
  180SLPC  C21720609   4.263   5.081   8.908  0.8831  0.1391 -0.3482
  180SLPC  H17R20610   4.281   5.182   8.950 -0.5882 -0.6199  2.3639
  180SLPC  H17S20611   4.198   5.098   8.820 -1.1688 -1.0796  0.8543
  180SLPC  C21820612   4.388   5.023   8.853 -0.1944  0.2001 -0.0891
  180SLPC  H18R20613   4.381   4.913   8.840  1.0191  0.0912  0.0259
  180SLPC  H18S20614   4.478   5.048   8.913 -0.5350  0.2831  0.3936
  180SLPC  H18T20615   4.424   5.062   8.755  2.5757  0.5183  0.9804
  180SLPC   C3320616   3.614   5.941  10.027  0.4627  0.2023  0.7028
  180SLPC   H3X20617   3.623   6.020   9.950 -0.9717 -0.4467 -0.1668
  180SLPC   H3Y20618   3.515   5.967  10.071 -0.4410 -0.1007 -1.0608
  180SLPC   C3420619   3.606   5.804   9.956 -0.4174  0.1517 -0.0877
  180SLPC   H4X20620   3.526   5.821   9.881 -1.5304  0.7871  1.1895
  180SLPC   H4Y20621   3.571   5.731  10.032 -0.3627 -1.6000 -1.6708
  180SLPC   C3520622   3.744   5.754   9.917  0.6307  1.0288  0.1009
  180SLPC   H5X20623   3.804   5.717  10.003  0.8250 -0.9609 -0.8194
  180SLPC   H5Y20624   3.786   5.846   9.872 -0.9868  1.9687  0.4474
  180SLPC   C3620625   3.748   5.647   9.816 -0.2191 -0.1257  0.0094
  180SLPC   H6X20626   3.685   5.562   9.850 -0.2325 -0.0898  0.0731
  180SLPC   H6Y20627   3.853   5.611   9.807  0.1848  0.0623  3.0067
  180SLPC   C3720628   3.683   5.681   9.675  0.1678  0.1245 -0.3782
  180SLPC   H7X20629   3.748   5.765   9.643  0.1718  0.0167 -0.6557
  180SLPC   H7Y20630   3.577   5.712   9.691  0.4390 -0.5467  3.8455
  180SLPC   C3820631   3.686   5.569   9.571  0.1562  0.6295 -0.1436
  180SLPC   H8X20632   3.622   5.484   9.603  1.8742 -1.1315 -1.1760
  180SLPC   H8Y20633   3.793   5.541   9.569  0.1549  0.4597  1.2312
  180SLPC   C3920634   3.636   5.607   9.431 -0.8308  0.0398  0.4642
  180SLPC   H9X20635   3.702   5.689   9.395  2.2265 -1.8108  1.4618
  180SLPC   H9Y20636   3.533   5.644   9.452 -0.3766  0.9716  1.1731
  180SLPC  C31020637   3.618   5.491   9.320 -0.2363  0.5401  0.5018
  180SLPC  H10X20638   3.544   5.412   9.348 -1.7025  2.1928  1.5222
  180SLPC  H10Y20639   3.718   5.444   9.308  0.1405  1.7688 -1.7489
  180SLPC  C31120640   3.598   5.560   9.187  0.4027 -0.9546 -0.4720
  180SLPC  H11X20641   3.672   5.642   9.177 -0.8111  0.3395  0.7134
  180SLPC  H11Y20642   3.505   5.619   9.178  2.0292  1.5180 -2.6376
  180SLPC  C31220643   3.605   5.460   9.069 -0.0774 -0.9575 -0.1424
  180SLPC  H12X20644   3.510   5.405   9.081 -0.8900  0.5930  0.7679
  180SLPC  H12Y20645   3.691   5.391   9.086  0.2046 -1.5281 -3.2564
  180SLPC  C31320646   3.624   5.522   8.927  0.0524 -0.1098  0.0853
  180SLPC  H13X20647   3.715   5.584   8.937 -0.0237 -0.2110  1.7876
  180SLPC  H13Y20648   3.533   5.577   8.896 -0.5999 -2.1843 -2.0066
  180SLPC  C31420649   3.646   5.411   8.816  0.5127  0.5604  0.4693
  180SLPC  H14X20650   3.556   5.347   8.811  0.0785  1.0797  1.3244
  180SLPC  H14Y20651   3.722   5.340   8.855 -1.9168 -0.6604  3.3476
  180SLPC  C31520652   3.675   5.463   8.680  0.7998 -0.1013 -0.1919
  180SLPC  H15X20653   3.728   5.386   8.620 -0.5098 -1.7587  0.7026
  180SLPC  H15Y20654   3.741   5.551   8.698 -0.4181  0.9211 -0.5879
  180SLPC  C31620655   3.548   5.508   8.598  0.2915  0.0861 -0.1376
  180SLPC  H16X20656   3.490   5.581   8.657 -0.7688 -0.3243 -0.6424
  180SLPC  H16Y20657   3.483   5.418   8.593  1.4412 -0.7670 -0.2693
  180SLPC  C31720658   3.586   5.560   8.457 -0.6172  0.1647 -0.7300
  180SLPC  H17X20659   3.644   5.491   8.392 -0.6022  0.5525 -1.1386
  180SLPC  H17Y20660   3.649   5.652   8.459 -1.6103  0.8487  0.5339
  180SLPC  C31820661   3.464   5.616   8.378  0.1174 -0.1559 -0.1412
  180SLPC  H18X20662   3.390   5.533   8.383  0.3255 -0.2656  2.0294
  180SLPC  H18Y20663   3.485   5.649   8.274 -0.4908 -1.6617 -0.7706
  180SLPC  H18Z20664   3.412   5.698   8.432  1.5455 -0.3245  1.5835
  181SLPC     N20665   5.982   4.659  11.354  0.0626 -0.1230  0.3524
  181SLPC   C1320666   6.108   4.575  11.373  0.2926 -0.8131 -0.0113
  181SLPC  H13A20667   6.173   4.595  11.289  0.2809  0.2467  0.2170
  181SLPC  H13B20668   6.156   4.595  11.467 -0.7539  1.6040  0.0700
  181SLPC  H13C20669   6.078   4.472  11.363 -0.7009 -0.4774 -0.6836
  181SLPC   C1420670   6.023   4.801  11.387 -0.1508 -0.0002  0.2299
  181SLPC  H14A20671   6.095   4.842  11.318  0.6929 -1.4283  0.2212
  181SLPC  H14B20672   5.932   4.859  11.387 -1.0133 -1.3082  0.0999
  181SLPC  H14C20673   6.071   4.825  11.480  0.9890  1.0458 -0.5999
  181SLPC   C1520674   5.884   4.616  11.462 -0.4394  0.7483  0.2018
  181SLPC  H15A20675   5.943   4.617  11.552  2.7470 -2.5399 -1.5830
  181SLPC  H15B20676   5.813   4.698  11.462  1.6177  2.7074 -2.1163
  181SLPC  H15C20677   5.850   4.514  11.450  0.1758  0.5978 -0.3152
  181SLPC   C1220678   5.924   4.646  11.214 -0.0072  0.8061  0.0433
  181SLPC  H12A20679   5.832   4.703  11.212  0.4688  1.6056 -1.5603
  181SLPC  H12B20680   5.902   4.542  11.194 -0.9420  1.3922 -2.3624
  181SLPC   C1120681   6.018   4.705  11.100 -0.4638 -0.1091 -0.1173
  181SLPC  H11A20682   6.044   4.810  11.125 -2.0908  0.2344  0.2458
  181SLPC  H11B20683   5.957   4.708  11.007 -1.4957  0.4330  0.5590
  181SLPC     P20684   6.243   4.611  10.980  0.0922 -0.2021  0.0480
  181SLPC   O1320685   6.281   4.751  10.959 -0.3004 -0.6137 -0.3524
  181SLPC   O1420686   6.342   4.510  11.030 -0.2069  0.4633 -1.0397
  181SLPC   O1220687   6.132   4.618  11.091 -0.6607  0.1008 -0.4370
  181SLPC   O1120688   6.173   4.546  10.850  0.0759 -0.7405 -0.1800
  181SLPC    C120689   6.088   4.436  10.857 -0.0428  0.9856 -1.0384
  181SLPC    HA20690   6.144   4.340  10.869 -0.3342  0.9038 -0.3385
  181SLPC    HB20691   6.018   4.449  10.941  0.2336 -0.6252 -0.5154
  181SLPC    C220692   6.002   4.424  10.731  0.1345 -0.5163  0.7035
  181SLPC    HS20693   5.915   4.360  10.758  0.0928 -0.8985 -0.3008
  181SLPC   O2120694   6.073   4.357  10.620  0.6490  0.0740 -0.0221
  181SLPC   C2120695   6.080   4.224  10.620 -0.7889 -0.2534  0.5548
  181SLPC   O2220696   6.024   4.152  10.701  0.9901  0.2640  0.4542
  181SLPC   C2220697   6.171   4.187  10.502  0.0953 -0.7274  0.4833
  181SLPC   H2R20698   6.198   4.279  10.446  0.6020 -1.2243 -0.1117
  181SLPC   H2S20699   6.260   4.139  10.548  0.8269  1.0634  1.0024
  181SLPC    C320700   5.965   4.562  10.675 -0.0495 -0.4965  0.0228
  181SLPC    HX20701   6.059   4.616  10.652  0.9375 -0.4147  3.7270
  181SLPC    HY20702   5.918   4.610  10.763 -1.0259 -0.6420 -0.4113
  181SLPC   O3120703   5.880   4.550  10.563 -0.5652 -0.0098  0.3794
  181SLPC   C3120704   5.795   4.648  10.555 -0.2859  0.1285  0.6996
  181SLPC   O3220705   5.777   4.742  10.629 -0.2571  0.7255  0.6946
  181SLPC   C3220706   5.720   4.625  10.425  0.0829 -0.4127  0.1963
  181SLPC   H2X20707   5.654   4.535  10.430  0.1132 -0.6718 -2.4366
  181SLPC   H2Y20708   5.799   4.612  10.348  0.5491 -1.0835  0.7763
  181SLPC   C2320709   6.099   4.090  10.407  0.0390  0.0969 -0.3221
  181SLPC   H3R20710   6.007   4.141  10.371  0.7843  0.9385 -1.0859
  181SLPC   H3S20711   6.073   3.999  10.464  1.4361 -0.6512 -0.8319
  181SLPC   C2420712   6.178   4.061  10.281  0.1926 -0.3786 -0.2658
  181SLPC   H4R20713   6.141   3.965  10.240 -0.5842  0.0039 -0.4849
  181SLPC   H4S20714   6.286   4.067  10.309 -0.0382  1.8336  0.2910
  181SLPC   C2520715   6.154   4.172  10.176  0.1969  0.2825 -0.0590
  181SLPC   H5R20716   6.198   4.270  10.206  0.3115  0.2475 -0.1123
  181SLPC   H5S20717   6.044   4.188  10.165 -0.8446 -4.8640  0.4643
  181SLPC   C2620718   6.214   4.134  10.036  0.0960 -0.4966 -0.3884
  181SLPC   H6R20719   6.145   4.052  10.009 -0.7078 -0.9159  2.5408
  181SLPC   H6S20720   6.318   4.096  10.049  0.5694  0.7595 -0.2826
  181SLPC   C2720721   6.208   4.241   9.930 -0.3331  0.4649  0.4924
  181SLPC   H7R20722   6.276   4.321   9.967 -0.5137  1.4233 -1.1475
  181SLPC   H7S20723   6.108   4.284   9.909  0.1561  1.5436  0.2735
  181SLPC   C2820724   6.256   4.185   9.791  0.4635 -0.1177 -0.7697
  181SLPC   H8R20725   6.354   4.137   9.813  0.2820  0.3934  1.3280
  181SLPC   H8S20726   6.280   4.277   9.734 -1.7038  2.0569  1.5856
  181SLPC   C2920727   6.163   4.085   9.727 -0.3568 -0.2488 -0.0540
  181SLPC   H9R20728   6.090   4.043   9.798  1.2434 -1.4908  0.9485
  181SLPC  C21020729   6.188   4.018   9.615  0.7558  0.2128 -0.4048
  181SLPC  H10R20730   6.116   3.941   9.584  3.3163 -2.3993 -0.2915
  181SLPC  C21120731   6.304   4.037   9.521  0.3046  0.0131  0.1885
  181SLPC  H11R20732   6.383   3.960   9.529  1.4081  1.2057  1.2409
  181SLPC  H11S20733   6.354   4.136   9.527 -0.0497  0.3645 -1.9809
  181SLPC  C21220734   6.253   4.039   9.379 -0.6070  0.1380 -0.0973
  181SLPC  H12R20735   6.167   4.107   9.373 -0.5827  0.1837  0.0681
  181SLPC  C21320736   6.294   3.975   9.268 -0.3676 -0.3487 -0.3121
  181SLPC  H13R20737   6.234   3.996   9.179 -1.3233 -0.6746  0.2353
  181SLPC  C21420738   6.401   3.866   9.261 -0.5514 -0.4037  0.0168
  181SLPC  H14R20739   6.342   3.773   9.251 -3.1422  1.0566  0.6608
  181SLPC  H14S20740   6.470   3.857   9.347 -0.7185 -0.6288  0.1262
  181SLPC  C21520741   6.513   3.882   9.150  0.3115 -0.0707  0.0480
  181SLPC  H15R20742   6.564   3.973   9.188 -0.0788  0.0008  0.4018
  181SLPC  H15S20743   6.477   3.900   9.046  1.2721  1.3807 -0.0601
  181SLPC  C21620744   6.605   3.757   9.157  0.6525 -0.5118  0.4117
  181SLPC  H16R20745   6.541   3.670   9.130 -0.2233  0.2319  0.0411
  181SLPC  H16S20746   6.632   3.741   9.264  1.0090 -0.3302  0.3482
  181SLPC  C21720747   6.730   3.767   9.075  0.2347  0.9059  0.1853
  181SLPC  H17R20748   6.777   3.666   9.080 -2.1954 -0.3617 -0.9196
  181SLPC  H17S20749   6.801   3.837   9.123  1.0302  0.4581 -0.3080
  181SLPC  C21820750   6.707   3.800   8.937  0.1507  0.0664  0.6730
  181SLPC  H18R20751   6.629   3.734   8.894  1.6590 -2.0224  0.9836
  181SLPC  H18S20752   6.792   3.786   8.868 -0.4153 -0.7313  0.1150
  181SLPC  H18T20753   6.680   3.908   8.933 -1.9707 -0.2754  3.0250
  181SLPC   C3320754   5.621   4.743  10.385 -0.4346  1.0240  0.5879
  181SLPC   H3X20755   5.674   4.841  10.380  3.8677 -1.0238  1.3905
  181SLPC   H3Y20756   5.549   4.744  10.470  0.4418 -1.1323  1.4201
  181SLPC   C3420757   5.557   4.708  10.251 -1.3425 -0.7941  0.5300
  181SLPC   H4X20758   5.491   4.790  10.217  0.0432  0.7986  1.5139
  181SLPC   H4Y20759   5.497   4.615  10.256 -0.5458 -1.3785 -0.3405
  181SLPC   C3520760   5.653   4.699  10.128 -0.2701 -0.5245 -0.3318
  181SLPC   H5X20761   5.712   4.604  10.128 -0.6730 -0.7929 -1.7822
  181SLPC   H5Y20762   5.726   4.782  10.115 -0.0426 -1.0174 -2.6024
  181SLPC   C3620763   5.565   4.697  10.006  0.7373  0.6823  0.1539
  181SLPC   H6X20764   5.511   4.792   9.991  0.2789  0.2520 -1.0662
  181SLPC   H6Y20765   5.488   4.617  10.014  0.7221  0.6701 -0.0927
  181SLPC   C3720766   5.662   4.678   9.887 -0.9191  0.1670  0.9356
  181SLPC   H7X20767   5.744   4.604   9.903 -0.7707 -0.0025 -0.4493
  181SLPC   H7Y20768   5.700   4.779   9.861  0.4878 -1.0920 -2.5052
  181SLPC   C3820769   5.580   4.620   9.766 -0.6668  0.5717  0.3423
  181SLPC   H8X20770   5.489   4.683   9.768  0.4945  2.3128  1.6672
  181SLPC   H8Y20771   5.556   4.512   9.775 -1.9404  0.8472  0.4792
  181SLPC   C3920772   5.645   4.657   9.627  0.5685 -0.4034 -0.1182
  181SLPC   H9X20773   5.746   4.621   9.598  0.9840 -0.2223  1.0510
  181SLPC   H9Y20774   5.648   4.768   9.634 -0.1123 -0.1908 -2.2791
  181SLPC  C31020775   5.547   4.618   9.506 -0.7174  0.1078  0.2772
  181SLPC  H10X20776   5.449   4.654   9.545 -0.7960 -0.1903  0.3578
  181SLPC  H10Y20777   5.532   4.508   9.512 -2.9841  0.4152  3.8747
  181SLPC  C31120778   5.596   4.674   9.373  0.4627 -0.5623  0.5678
  181SLPC  H11X20779   5.688   4.619   9.341  0.5810 -0.7466  1.2127
  181SLPC  H11Y20780   5.606   4.783   9.394 -0.0570 -0.5087  0.5287
  181SLPC  C31220781   5.494   4.674   9.258 -0.3380  0.1434  0.2444
  181SLPC  H12X20782   5.514   4.767   9.201 -0.2458 -0.7095 -1.1556
  181SLPC  H12Y20783   5.390   4.680   9.297 -0.2866  1.8581  0.2157
  181SLPC  C31320784   5.511   4.568   9.153 -0.2277 -0.0325 -0.2535
  181SLPC  H13X20785   5.410   4.565   9.105 -0.7167  0.5723  0.7131
  181SLPC  H13Y20786   5.524   4.469   9.203  0.0351  1.5816  3.1284
  181SLPC  C31420787   5.619   4.597   9.045  0.6701 -0.5050 -0.0065
  181SLPC  H14X20788   5.720   4.605   9.090  1.0585  0.5856 -1.0284
  181SLPC  H14Y20789   5.597   4.698   9.002  0.4939 -0.9051 -0.8685
  181SLPC  C31520790   5.618   4.493   8.934 -0.2333 -0.0559  0.5964
  181SLPC  H15X20791   5.512   4.484   8.902 -0.3439  0.6833  0.7374
  181SLPC  H15Y20792   5.658   4.392   8.956  0.5824 -0.1251 -1.0256
  181SLPC  C31620793   5.683   4.554   8.805 -0.1293  1.3454 -0.3376
  181SLPC  H16X20794   5.782   4.595   8.835 -0.2244  0.4516  1.3131
  181SLPC  H16Y20795   5.621   4.643   8.781 -1.6083  0.8406  1.3738
  181SLPC  C31720796   5.679   4.461   8.691 -0.2099 -0.0401 -0.7276
  181SLPC  H17X20797   5.571   4.441   8.678 -0.2057 -1.0332  0.6040
  181SLPC  H17Y20798   5.729   4.369   8.728  0.4060  0.3669 -0.5229
  181SLPC  C31820799   5.751   4.506   8.561  0.1260  0.2061  0.2571
  181SLPC  H18X20800   5.859   4.525   8.572  0.0781  1.3067 -0.8910
  181SLPC  H18Y20801   5.701   4.600   8.530 -0.5149  0.0533  0.8003
  181SLPC  H18Z20802   5.730   4.438   8.475  1.2216  0.3509 -0.1332
  182SLPC     N20803   4.392   1.422  11.226 -0.1804  0.3268 -0.2003
  182SLPC   C1320804   4.352   1.556  11.249  0.6097  0.0147 -0.1437
  182SLPC  H13A20805   4.286   1.560  11.334 -1.8550  0.6685 -1.9422
  182SLPC  H13B20806   4.439   1.613  11.280  0.0167  0.5927  0.5059
  182SLPC  H13C20807   4.303   1.605  11.165 -2.1703 -2.7431 -0.3158
  182SLPC   C1420808   4.474   1.383  11.344 -0.6619  0.8537 -0.8006
  182SLPC  H14A20809   4.538   1.297  11.330  0.8262  1.8696 -0.4193
  182SLPC  H14B20810   4.541   1.463  11.370  1.7131 -1.1057 -0.6364
  182SLPC  H14C20811   4.412   1.379  11.432 -0.1827 -1.0727 -0.5156
  182SLPC   C1520812   4.473   1.411  11.101  0.0384 -0.2249  0.0561
  182SLPC  H15A20813   4.402   1.412  11.020 -0.1372 -1.9391  0.1383
  182SLPC  H15B20814   4.553   1.484  11.096 -0.2586  0.3617  2.5457
  182SLPC  H15C20815   4.523   1.315  11.097  0.6722  0.0863  0.3040
  182SLPC   C1220816   4.269   1.324  11.218 -0.5964  0.0547  0.1935
  182SLPC  H12A20817   4.217   1.332  11.313  0.1511  0.1869  0.5945
  182SLPC  H12B20818   4.318   1.230  11.200 -1.8346 -0.5032 -0.3942
  182SLPC   C1120819   4.156   1.349  11.113  0.3774 -0.0055  0.1319
  182SLPC  H11A20820   4.122   1.448  11.149  1.4104 -0.7538  3.4934
  182SLPC  H11B20821   4.072   1.276  11.119  1.8005 -1.6924  0.2030
  182SLPC     P20822   4.116   1.398  10.860  0.3791  0.0395  0.0929
  182SLPC   O1320823   4.205   1.375  10.741  0.3868  0.1900 -0.1822
  182SLPC   O1420824   3.990   1.312  10.871  0.4123  0.2280  0.2965
  182SLPC   O1220825   4.206   1.356  10.980 -0.0204  0.6359  0.2654
  182SLPC   O1120826   4.080   1.548  10.877 -0.1576 -0.2865 -0.4398
  182SLPC    C120827   4.182   1.641  10.842 -0.1579  0.2183  0.4821
  182SLPC    HA20828   4.235   1.678  10.932  0.4178 -0.0819  0.2672
  182SLPC    HB20829   4.265   1.606  10.778  0.9479  3.9903 -0.4398
  182SLPC    C220830   4.112   1.753  10.763  0.3968  0.1214  0.5039
  182SLPC    HS20831   4.018   1.782  10.816 -0.0731 -1.1479  0.3926
  182SLPC   O2120832   4.088   1.693  10.632  0.2549 -0.4105  0.0358
  182SLPC   C2120833   3.986   1.748  10.564  0.2416  0.3176  0.2374
  182SLPC   O2220834   3.892   1.811  10.613 -0.1107 -0.6312  0.2281
  182SLPC   C2220835   4.004   1.719  10.407 -0.2025 -0.0685 -0.2176
  182SLPC   H2R20836   4.099   1.764  10.371  0.4274 -1.3360 -0.1722
  182SLPC   H2S20837   4.009   1.608  10.405 -1.1539 -0.1340  0.3818
  182SLPC    C320838   4.203   1.880  10.764 -0.5094  0.1035 -0.5604
  182SLPC    HX20839   4.303   1.850  10.726  0.1349  0.5416  0.7374
  182SLPC    HY20840   4.221   1.901  10.872  0.4178 -2.9956  0.0027
  182SLPC   O3120841   4.134   1.990  10.691 -0.9826  0.1344 -0.4174
  182SLPC   C3120842   4.168   2.006  10.566 -0.4247  0.0441  0.1340
  182SLPC   O3220843   4.247   1.932  10.506 -0.6516 -0.1381 -0.3293
  182SLPC   C3220844   4.097   2.128  10.507 -0.8440  0.5203 -0.3273
  182SLPC   H2X20845   4.151   2.224  10.520  0.0247 -0.2727  2.6862
  182SLPC   H2Y20846   4.003   2.136  10.567  0.4610  0.4559  1.8378
  182SLPC   C2320847   3.873   1.773  10.329 -0.9267  0.7005 -0.3185
  182SLPC   H3R20848   3.857   1.883  10.331  0.7654  0.9773 -0.7347
  182SLPC   H3S20849   3.777   1.730  10.367  0.0056  1.1141  2.7218
  182SLPC   C2420850   3.891   1.739  10.177 -0.6113  0.8167 -0.8920
  182SLPC   H4R20851   3.931   1.636  10.173 -3.3807 -0.5616  2.0141
  182SLPC   H4S20852   3.961   1.816  10.139 -1.2773  0.7720 -2.2820
  182SLPC   C2520853   3.763   1.756  10.091 -0.9765  0.0630  0.2317
  182SLPC   H5R20854   3.739   1.864  10.096  0.2181  0.3814 -0.4342
  182SLPC   H5S20855   3.682   1.697  10.138 -0.3847 -0.0752  1.0984
  182SLPC   C2620856   3.783   1.711   9.945  0.3845 -0.3658 -0.5341
  182SLPC   H6R20857   3.685   1.725   9.894  0.4888  0.4865 -0.5093
  182SLPC   H6S20858   3.822   1.607   9.941  2.4195  0.3608 -1.1135
  182SLPC   C2720859   3.872   1.792   9.859 -0.1221 -0.2113  0.1558
  182SLPC   H7R20860   3.975   1.786   9.899 -0.5720  2.3583  1.9296
  182SLPC   H7S20861   3.842   1.899   9.862 -2.6081 -0.8559  2.4503
  182SLPC   C2820862   3.864   1.742   9.713 -0.0784  0.2382 -0.4756
  182SLPC   H8R20863   3.772   1.782   9.666  0.2612 -0.2659 -1.6243
  182SLPC   H8S20864   3.842   1.633   9.718 -1.5170  0.5238 -0.1483
  182SLPC   C2920865   3.998   1.754   9.648  0.3416 -0.3818  1.0765
  182SLPC   H9R20866   4.074   1.696   9.701 -0.3956 -0.4695  2.0671
  182SLPC  C21020867   4.030   1.833   9.546 -0.1803  0.2749 -0.2572
  182SLPC  H10R20868   4.130   1.845   9.504 -0.7647  2.2499 -1.1817
  182SLPC  C21120869   3.931   1.913   9.478  0.5526 -0.4527  0.2905
  182SLPC  H11R20870   3.975   2.007   9.439  0.7083 -0.9839 -0.8462
  182SLPC  H11S20871   3.850   1.950   9.544  1.3307  0.5986  0.6962
  182SLPC  C21220872   3.882   1.831   9.362 -0.4878  1.2181  0.1147
  182SLPC  H12R20873   3.882   1.721   9.373  1.9015  1.2850  1.6182
  182SLPC  C21320874   3.833   1.883   9.249 -0.2998  0.5464  0.5389
  182SLPC  H13R20875   3.808   1.819   9.164  0.2794  0.0381  0.7454
  182SLPC  C21420876   3.819   2.033   9.222 -1.0503  0.1529  0.3863
  182SLPC  H14R20877   3.835   2.090   9.316  0.0925 -2.5298  1.9541
  182SLPC  H14S20878   3.715   2.053   9.190 -1.1088 -1.5646 -0.5770
  182SLPC  C21520879   3.915   2.086   9.115 -0.0855  0.4997 -0.3795
  182SLPC  H15R20880   3.912   2.031   9.018  2.6038  0.0877 -0.2805
  182SLPC  H15S20881   4.020   2.068   9.145 -0.9737 -0.3567  2.5912
  182SLPC  C21620882   3.901   2.231   9.088 -0.3279 -0.0843 -0.0898
  182SLPC  H16R20883   3.962   2.275   9.169 -2.1406  0.4255  1.0734
  182SLPC  H16S20884   3.796   2.263   9.110 -0.6999 -3.0334  3.4642
  182SLPC  C21720885   3.953   2.273   8.946  0.2717 -0.3512 -0.1210
  182SLPC  H17R20886   4.050   2.226   8.919  0.4482 -0.3728  0.5258
  182SLPC  H17S20887   3.968   2.383   8.945 -0.5682 -0.2057 -2.5824
  182SLPC  C21820888   3.856   2.240   8.831 -0.6034  0.1998 -0.1683
  182SLPC  H18R20889   3.757   2.288   8.849  0.6651  2.7878  0.3830
  182SLPC  H18S20890   3.840   2.131   8.819 -0.4527  0.0719  0.7175
  182SLPC  H18T20891   3.899   2.284   8.738  3.0378 -1.1678  0.7014
  182SLPC   C3320892   4.053   2.101  10.365 -0.1252 -0.0258  0.6171
  182SLPC   H3X20893   3.981   2.182  10.339 -0.1400 -1.0954 -3.3734
  182SLPC   H3Y20894   4.005   2.003  10.345  1.2133 -0.4803 -0.5291
  182SLPC   C3420895   4.161   2.129  10.260 -0.3648 -0.2656 -0.2805
  182SLPC   H4X20896   4.234   2.047  10.249 -2.0381 -1.8089 -0.4447
  182SLPC   H4Y20897   4.210   2.227  10.276  1.2689 -0.8957 -1.1950
  182SLPC   C3520898   4.100   2.137  10.117  0.1361  0.6394  0.0930
  182SLPC   H5X20899   4.022   2.215  10.107 -0.0836  0.1464 -2.8147
  182SLPC   H5Y20900   4.047   2.041  10.096 -1.5564  1.6033 -0.2101
  182SLPC   C3620901   4.207   2.161  10.015 -0.0021 -0.0961  0.5473
  182SLPC   H6X20902   4.282   2.079  10.008 -1.1122 -1.0628 -0.3560
  182SLPC   H6Y20903   4.265   2.251  10.046 -0.9411  1.1277 -1.1459
  182SLPC   C3720904   4.168   2.195   9.873  0.2591 -0.2683 -0.2851
  182SLPC   H7X20905   4.089   2.271   9.882  2.1990  1.8496 -0.2686
  182SLPC   H7Y20906   4.133   2.107   9.814  0.3924 -0.4384 -0.1134
  182SLPC   C3820907   4.280   2.251   9.793  0.6548  0.5014  0.4729
  182SLPC   H8X20908   4.366   2.182   9.783  0.9025  0.8369  0.2731
  182SLPC   H8Y20909   4.314   2.347   9.837 -2.5991  0.1732  4.2758
  182SLPC   C3920910   4.239   2.282   9.651 -0.0813  0.3469 -0.5507
  182SLPC   H9X20911   4.159   2.360   9.653 -1.6152 -1.1648  0.7021
  182SLPC   H9Y20912   4.190   2.191   9.611 -0.3553  0.7697 -1.1858
  182SLPC  C31020913   4.340   2.318   9.540  0.4236 -0.5563  0.1629
  182SLPC  H10X20914   4.428   2.251   9.551  0.6664 -0.0205  1.6648
  182SLPC  H10Y20915   4.377   2.419   9.567  0.4028 -0.3755 -0.4716
  182SLPC  C31120916   4.285   2.309   9.390 -0.8135 -0.5528 -0.5993
  182SLPC  H11X20917   4.196   2.375   9.384  0.4835  1.3282 -0.1698
  182SLPC  H11Y20918   4.262   2.202   9.369  1.0922 -1.1018 -0.0688
  182SLPC  C31220919   4.379   2.363   9.283 -0.0204 -0.1095 -0.6867
  182SLPC  H12X20920   4.468   2.301   9.260 -0.0295 -0.6988  0.7408
  182SLPC  H12Y20921   4.415   2.465   9.310 -0.4855  0.1107 -0.8863
  182SLPC  C31320922   4.298   2.389   9.152  0.1425 -0.2170  1.3176
  182SLPC  H13X20923   4.207   2.448   9.172 -0.6399 -0.9897  0.1171
  182SLPC  H13Y20924   4.264   2.287   9.122  1.2276  0.1601 -1.4759
  182SLPC  C31420925   4.376   2.439   9.033  0.6031 -0.0221 -0.1006
  182SLPC  H14X20926   4.471   2.380   9.035 -0.0641 -1.2081 -1.5551
  182SLPC  H14Y20927   4.417   2.542   9.047  1.6419 -0.5854  1.2358
  182SLPC  C31520928   4.297   2.427   8.906 -0.3437 -0.2059  1.0865
  182SLPC  H15X20929   4.216   2.502   8.909 -0.4700 -0.3605  2.0252
  182SLPC  H15Y20930   4.241   2.332   8.904 -1.6528  0.5170  1.9404
  182SLPC  C31620931   4.399   2.439   8.789 -0.0618 -0.7081  0.8019
  182SLPC  H16X20932   4.480   2.364   8.796  0.1977 -0.7373 -1.6572
  182SLPC  H16Y20933   4.443   2.541   8.788 -2.0315  0.2077  1.2814
  182SLPC  C31720934   4.335   2.429   8.655 -0.2013 -0.0946  0.5931
  182SLPC  H17X20935   4.262   2.511   8.644  0.1179  0.2407  0.9487
  182SLPC  H17Y20936   4.282   2.332   8.644 -0.2088  0.1355 -1.7516
  182SLPC  C31820937   4.439   2.433   8.544 -0.0274  0.1231  0.2606
  182SLPC  H18X20938   4.498   2.340   8.532  0.3446  0.3565  0.2730
  182SLPC  H18Y20939   4.501   2.523   8.566 -0.6555  0.2101  1.7938
  182SLPC  H18Z20940   4.385   2.453   8.449 -0.7614 -1.6337  0.2744
  183SLPC     N20941   5.220   4.283  11.327 -0.6214 -0.6139 -0.1749
  183SLPC   C1320942   5.315   4.161  11.331 -0.2355 -0.2587 -0.9128
  183SLPC  H13A20943   5.362   4.137  11.236 -0.9836  0.4537 -1.4838
  183SLPC  H13B20944   5.390   4.185  11.405 -2.2288 -0.3792  1.2630
  183SLPC  H13C20945   5.254   4.078  11.363  0.0111 -0.7635 -1.7232
  183SLPC   C1420946   5.175   4.317  11.468  0.6891 -0.1529  0.2147
  183SLPC  H14A20947   5.108   4.242  11.508 -0.9378 -0.8998 -3.4736
  183SLPC  H14B20948   5.258   4.334  11.533  1.1478  1.1961 -0.6863
  183SLPC  H14C20949   5.109   4.402  11.463 -1.7656 -1.9633 -0.3941
  183SLPC   C1520950   5.105   4.240  11.246  0.1426 -0.6945  0.0425
  183SLPC  H15A20951   5.130   4.201  11.149 -1.1999  0.2940 -0.7435
  183SLPC  H15B20952   5.051   4.162  11.297 -0.9985  0.2583  0.3404
  183SLPC  H15C20953   5.037   4.321  11.226  0.7395 -0.5184 -1.3915
  183SLPC   C1220954   5.292   4.404  11.269  0.2669  0.2811 -0.1935
  183SLPC  H12A20955   5.376   4.420  11.336 -0.0707  1.4522 -0.0367
  183SLPC  H12B20956   5.228   4.491  11.268 -1.7788 -1.1326 -2.5334
  183SLPC   C1120957   5.362   4.393  11.132 -0.1537  0.8368 -0.5755
  183SLPC  H11A20958   5.282   4.391  11.055 -1.6232  0.3960  0.8945
  183SLPC  H11B20959   5.416   4.296  11.130 -2.2787 -0.3980 -0.8524
  183SLPC     P20960   5.597   4.502  11.134  0.0033 -0.1743  0.0170
  183SLPC   O1320961   5.656   4.634  11.161  0.2177  0.5545  0.6132
  183SLPC   O1420962   5.635   4.405  11.239  0.0202  0.0294 -0.3614
  183SLPC   O1220963   5.444   4.506  11.120  0.2333  0.4726  0.7171
  183SLPC   O1120964   5.643   4.455  10.993  0.4534 -0.2419  0.5975
  183SLPC    C120965   5.624   4.524  10.867 -0.8832 -0.5558  0.0396
  183SLPC    HA20966   5.577   4.622  10.892 -2.7082 -1.2232 -0.6326
  183SLPC    HB20967   5.723   4.565  10.837 -0.2395 -1.1345  1.2850
  183SLPC    C220968   5.544   4.438  10.767  0.1363  0.0306 -0.0181
  183SLPC    HS20969   5.472   4.380  10.828 -0.3131  1.3709  0.7564
  183SLPC   O2120970   5.642   4.365  10.690 -0.0709  0.2662  0.0240
  183SLPC   C2120971   5.612   4.244  10.651 -0.4154  0.3516 -0.1619
  183SLPC   O2220972   5.509   4.183  10.676  0.1167 -0.1492 -0.0747
  183SLPC   C2220973   5.731   4.176  10.581 -0.9524  0.0453 -0.3721
  183SLPC   H2R20974   5.815   4.247  10.565  0.7956 -1.3869  1.8498
  183SLPC   H2S20975   5.761   4.095  10.651  0.0343  0.1504 -0.6477
  183SLPC    C320976   5.459   4.527  10.673  0.4980  0.0331 -0.4218
  183SLPC    HX20977   5.525   4.609  10.639 -0.8305  1.7845  1.0174
  183SLPC    HY20978   5.383   4.579  10.736  0.3249 -0.5022 -0.1840
  183SLPC   O3120979   5.399   4.452  10.560  0.0812  0.0687 -0.1794
  183SLPC   C3120980   5.275   4.411  10.580 -0.4859  0.4829 -0.1026
  183SLPC   O3220981   5.207   4.442  10.676  0.0587 -0.0671  0.2872
  183SLPC   C3220982   5.225   4.330  10.456  0.0950 -0.3856  0.6448
  183SLPC   H2X20983   5.114   4.321  10.460 -0.0553  1.1987  0.6165
  183SLPC   H2Y20984   5.264   4.226  10.466 -0.6918 -0.8981 -1.1340
  183SLPC   C2320985   5.691   4.106  10.452  0.0353  0.2387  0.8041
  183SLPC   H3R20986   5.589   4.063  10.452  0.0932  0.1036  1.0054
  183SLPC   H3S20987   5.756   4.017  10.443  1.3993  1.3414 -0.8596
  183SLPC   C2420988   5.701   4.202  10.332  0.2471 -0.3573 -0.5993
  183SLPC   H4R20989   5.806   4.236  10.340  0.3716 -0.6984 -0.7487
  183SLPC   H4S20990   5.635   4.290  10.346  1.9619  0.7197  1.1154
  183SLPC   C2520991   5.677   4.136  10.198 -0.0370 -0.3037 -0.3586
  183SLPC   H5R20992   5.583   4.077  10.198  0.4188 -1.0432 -0.1572
  183SLPC   H5S20993   5.747   4.051  10.184 -0.2910 -0.8997  1.6086
  183SLPC   C2620994   5.660   4.237  10.081 -0.4308  0.1960  0.0977
  183SLPC   H6R20995   5.759   4.286  10.066  0.1040 -0.9934 -0.3914
  183SLPC   H6S20996   5.592   4.321  10.106  1.2847  0.7922  3.1770
  183SLPC   C2720997   5.619   4.166   9.948  0.1716  0.0330 -1.6552
  183SLPC   H7R20998   5.572   4.237   9.877  0.5985  3.2733  1.0592
  183SLPC   H7S20999   5.540   4.093   9.977 -1.4618  3.0374  2.4422
  183SLPC   C2821000   5.741   4.095   9.884  0.2662  0.3527  0.3489
  183SLPC   H8R21001   5.697   4.027   9.809 -1.5468  0.4614  1.2525
  183SLPC   H8S21002   5.800   4.022   9.944 -2.3003 -2.5096 -0.3794
  183SLPC   C2921003   5.837   4.199   9.826 -0.6994 -0.2449 -0.1593
  183SLPC   H9R21004   5.900   4.248   9.903  2.0151 -0.7840 -1.8871
  183SLPC  C21021005   5.852   4.233   9.696 -0.8345 -0.6514 -1.2032
  183SLPC  H10R21006   5.915   4.323   9.690  0.8391 -1.4067  2.4077
  183SLPC  C21121007   5.789   4.184   9.571  0.3997  0.1786  0.8744
  183SLPC  H11R21008   5.694   4.140   9.608  1.2700 -0.3892  2.5635
  183SLPC  H11S21009   5.848   4.106   9.520 -1.2556 -2.1708  2.3330
  183SLPC  C21221010   5.745   4.288   9.471 -0.0733  0.4649 -0.7013
  183SLPC  H12R21011   5.731   4.390   9.508 -0.8842  0.0836  0.1128
  183SLPC  C21321012   5.729   4.260   9.337 -0.0836  0.1168 -0.0192
  183SLPC  H13R21013   5.713   4.340   9.263  0.6183 -1.0112 -1.4496
  183SLPC  C21421014   5.755   4.129   9.265  0.2076 -0.3021 -0.0493
  183SLPC  H14R21015   5.672   4.102   9.197 -1.5124 -1.8129  2.4914
  183SLPC  H14S21016   5.749   4.048   9.341  1.6808 -0.6951 -0.3182
  183SLPC  C21521017   5.887   4.116   9.194  0.1722 -0.1317 -0.0062
  183SLPC  H15R21018   5.897   4.024   9.132  0.3060  0.0259 -0.2226
  183SLPC  H15S21019   5.973   4.110   9.264 -0.7119 -2.0501  1.0043
  183SLPC  C21621020   5.927   4.236   9.102 -0.3124 -0.3070 -0.2554
  183SLPC  H16R21021   5.929   4.328   9.164 -0.5475 -1.5776  1.7004
  183SLPC  H16S21022   5.844   4.242   9.029 -0.8175 -1.7387  0.1657
  183SLPC  C21721023   6.056   4.217   9.012  0.3050 -0.7191 -0.0231
  183SLPC  H17R21024   6.035   4.124   8.956 -0.8259 -1.6961  1.9285
  183SLPC  H17S21025   6.149   4.216   9.075 -0.0113  0.4109  0.4982
  183SLPC  C21821026   6.074   4.332   8.906 -0.3284 -0.8552  0.3660
  183SLPC  H18R21027   6.181   4.358   8.894 -0.4588 -0.2267  0.5202
  183SLPC  H18S21028   6.014   4.418   8.942 -0.2431 -1.7407  2.7943
  183SLPC  H18T21029   6.026   4.295   8.813  3.2365  1.3724 -2.6195
  183SLPC   C3321030   5.274   4.395  10.321  0.0183 -0.2992  0.4239
  183SLPC   H3X21031   5.377   4.357  10.306  0.3729  0.6290  0.4593
  183SLPC   H3Y21032   5.270   4.506  10.329  0.3934 -0.3696  1.7751
  183SLPC   C3421033   5.189   4.353  10.201 -0.1180 -1.0234  0.6694
  183SLPC   H4X21034   5.084   4.382  10.221 -0.0870 -2.6083  3.7659
  183SLPC   H4Y21035   5.177   4.244  10.187 -2.0364 -0.9119  1.1240
  183SLPC   C3521036   5.248   4.417  10.079 -1.0070 -0.1679  0.9514
  183SLPC   H5X21037   5.357   4.398  10.073 -0.8681  1.0659 -2.2927
  183SLPC   H5Y21038   5.242   4.527  10.066 -0.5822 -0.2829 -0.4242
  183SLPC   C3621039   5.187   4.356   9.952  0.7073  0.6090  0.7600
  183SLPC   H6X21040   5.078   4.372   9.970 -0.0005  0.0682 -2.3786
  183SLPC   H6Y21041   5.203   4.246   9.952  1.0234  0.6478  1.6347
  183SLPC   C3721042   5.237   4.412   9.816  1.0553  0.1275  0.4522
  183SLPC   H7X21043   5.348   4.416   9.806  1.1962  0.2490  1.8641
  183SLPC   H7Y21044   5.191   4.510   9.789 -0.6424 -0.5461  0.7851
  183SLPC   C3821045   5.194   4.322   9.696 -0.2298 -0.6657 -0.5980
  183SLPC   H8X21046   5.085   4.333   9.678 -0.4900  0.5828  1.4240
  183SLPC   H8Y21047   5.213   4.214   9.716 -0.6662 -0.4962  0.8807
  183SLPC   C3921048   5.269   4.345   9.560 -0.2764  0.2513  0.2885
  183SLPC   H9X21049   5.371   4.302   9.566 -0.2403  0.1772 -0.7293
  183SLPC   H9Y21050   5.284   4.455   9.553 -0.1377  0.1445 -1.9051
  183SLPC  C31021051   5.198   4.293   9.435  0.8672 -0.4492 -0.4252
  183SLPC  H10X21052   5.130   4.367   9.388  1.4060 -0.1998 -0.8269
  183SLPC  H10Y21053   5.146   4.197   9.454 -0.9979 -0.1063 -3.2465
  183SLPC  C31121054   5.299   4.267   9.328 -0.3296 -0.2888 -0.0923
  183SLPC  H11X21055   5.391   4.207   9.348  0.1704  0.2757 -0.6682
  183SLPC  H11Y21056   5.347   4.366   9.311 -0.2904  0.7037  4.5399
  183SLPC  C31221057   5.235   4.216   9.203 -0.1443  0.3017  0.5513
  183SLPC  H12X21058   5.169   4.302   9.180 -1.6055 -0.7533  0.6395
  183SLPC  H12Y21059   5.177   4.123   9.225 -0.4870  0.9689  2.7881
  183SLPC  C31321060   5.330   4.199   9.083 -0.2647  0.0071 -0.5567
  183SLPC  H13X21061   5.422   4.139   9.100 -0.6934 -0.4502  0.2567
  183SLPC  H13Y21062   5.369   4.302   9.073 -1.9639  0.8677  1.1120
  183SLPC  C31421063   5.259   4.163   8.956  0.4308  0.2715  0.4358
  183SLPC  H14X21064   5.160   4.212   8.944  0.5633  0.8314  1.5256
  183SLPC  H14Y21065   5.224   4.058   8.951 -1.3134  0.8288  0.5052
  183SLPC  C31521066   5.339   4.175   8.830  0.1998  0.1797  0.5172
  183SLPC  H15X21067   5.382   4.277   8.822  2.2210 -0.4044  2.6660
  183SLPC  H15Y21068   5.274   4.154   8.743  1.7831 -0.1680 -0.6317
  183SLPC  C31621069   5.472   4.086   8.823  1.0109  0.6556 -0.1982
  183SLPC  H16X21070   5.454   3.981   8.853 -1.9081  1.2515  0.5159
  183SLPC  H16Y21071   5.549   4.130   8.890  1.7212  2.9007 -2.3427
  183SLPC  C31721072   5.524   4.091   8.677 -0.0224  0.5735 -0.5770
  183SLPC  H17X21073   5.544   4.195   8.643 -0.0442  0.2972 -1.4479
  183SLPC  H17Y21074   5.450   4.045   8.608 -0.3958 -1.9370  1.3316
  183SLPC  C31821075   5.648   4.008   8.656 -0.1167  0.2752 -0.3062
  183SLPC  H18X21076   5.622   3.901   8.667 -1.8240  0.8434  2.0702
  183SLPC  H18Y21077   5.720   4.036   8.736 -0.2236 -0.0299 -0.1018
  183SLPC  H18Z21078   5.708   4.023   8.564  0.2851 -1.4847 -0.3671
  184SLPC     N21079   2.309   2.159  10.772  0.5661  0.1343  0.0648
  184SLPC   C1321080   2.420   2.217  10.847  0.0470  0.0073  0.0563
  184SLPC  H13A21081   2.479   2.137  10.891  1.5184 -0.2847 -2.2815
  184SLPC  H13B21082   2.479   2.277  10.780 -1.6981  1.7193 -0.0023
  184SLPC  H13C21083   2.382   2.284  10.922  1.0499  2.7731 -1.7550
  184SLPC   C1421084   2.216   2.268  10.717 -0.0511 -0.3343  0.1942
  184SLPC  H14A21085   2.135   2.226  10.659  1.1334 -2.1111 -0.2503
  184SLPC  H14B21086   2.185   2.329  10.801 -0.5938 -0.3179 -0.0140
  184SLPC  H14C21087   2.262   2.341  10.652 -2.0030 -0.6603 -1.6551
  184SLPC   C1521088   2.238   2.078  10.862 -0.1134 -0.0011  0.0626
  184SLPC  H15A21089   2.157   2.137  10.904  1.7271 -0.4089  4.7832
  184SLPC  H15B21090   2.194   1.993  10.811  0.5960  0.0235 -0.6080
  184SLPC  H15C21091   2.300   2.047  10.944 -0.6592  2.2116  1.3922
  184SLPC   C1221092   2.350   2.070  10.657  0.2653  0.6063  0.4140
  184SLPC  H12A21093   2.403   1.986  10.698 -0.9522  0.4642  1.8106
  184SLPC  H12B21094   2.425   2.127  10.604 -0.6158  1.8712  0.4761
  184SLPC   C1121095   2.245   2.018  10.550  0.8499  0.1502  0.3429
  184SLPC  H11A21096   2.295   1.946  10.481  2.2199  0.9934  0.4326
  184SLPC  H11B21097   2.201   2.101  10.490  1.4907 -0.4895 -1.0802
  184SLPC     P21098   2.005   1.923  10.583 -0.0462 -0.5027  0.2799
  184SLPC   O1321099   1.937   1.871  10.701  0.0494 -0.9363  0.2869
  184SLPC   O1421100   1.942   2.038  10.524 -0.4536 -0.1446  0.3196
  184SLPC   O1221101   2.153   1.946  10.633  0.1585  0.5154 -0.1971
  184SLPC   O1121102   2.019   1.811  10.474  0.4350  0.0591 -0.1538
  184SLPC    C121103   1.980   1.827  10.334  0.0932 -0.1234 -0.8293
  184SLPC    HA21104   1.938   1.728  10.305  0.0872 -0.1560 -0.7125
  184SLPC    HB21105   1.895   1.897  10.323 -1.2484 -1.7259 -1.0561
  184SLPC    C221106   2.100   1.875  10.249 -0.1751  0.4901 -0.3800
  184SLPC    HS21107   2.124   1.976  10.288  1.9663  0.5682 -1.6987
  184SLPC   O2121108   2.061   1.872  10.113  0.1567  0.0028  0.6484
  184SLPC   C2121109   2.137   1.944  10.034  0.0692  0.5489  0.6077
  184SLPC   O2221110   2.234   2.003  10.068 -0.4874  0.0184 -0.1149
  184SLPC   C2221111   2.102   1.926   9.888 -0.0126 -0.6162  0.2232
  184SLPC   H2R21112   1.994   1.908   9.873  0.2113 -2.6724  0.7829
  184SLPC   H2S21113   2.127   2.023   9.839 -0.4407  0.1060  1.3938
  184SLPC    C321114   2.214   1.769  10.271  0.0785  0.1632  0.4027
  184SLPC    HX21115   2.236   1.761  10.379 -0.4407  1.5932  0.6313
  184SLPC    HY21116   2.306   1.808  10.221 -0.1738  1.5682  1.0114
  184SLPC   O3121117   2.172   1.630  10.235 -0.6563 -0.2109 -0.0704
  184SLPC   C3121118   2.213   1.583  10.119 -0.3422  0.4934  1.0481
  184SLPC   O3221119   2.291   1.637  10.045 -0.9358 -0.6226  0.5449
  184SLPC   C3221120   2.133   1.464  10.064 -0.0964 -0.0784  0.0224
  184SLPC   H2X21121   2.030   1.501  10.048 -0.7319 -1.6846  0.1406
  184SLPC   H2Y21122   2.127   1.388  10.146  0.3458  1.5967  1.6740
  184SLPC   C2321123   2.175   1.806   9.803  0.3856  0.3807 -0.0126
  184SLPC   H3R21124   2.130   1.707   9.826  0.2902  0.7256  1.3258
  184SLPC   H3S21125   2.279   1.798   9.840 -0.1888 -1.3484  1.3558
  184SLPC   C2421126   2.159   1.837   9.649 -0.0678  0.1896  0.1394
  184SLPC   H4R21127   2.207   1.934   9.624 -1.5561  1.4424  1.8608
  184SLPC   H4S21128   2.050   1.848   9.633 -0.1909  0.6630  1.2038
  184SLPC   C2521129   2.226   1.737   9.558 -0.0953  0.2842  0.1551
  184SLPC   H5R21130   2.182   1.637   9.579  1.1981 -0.5279 -0.8454
  184SLPC   H5S21131   2.336   1.730   9.572 -0.0397  0.0711 -0.3753
  184SLPC   C2621132   2.196   1.741   9.408 -0.1577  0.0931 -0.1615
  184SLPC   H6R21133   2.090   1.728   9.377 -0.1447 -0.8989  0.1871
  184SLPC   H6S21134   2.253   1.656   9.365  1.5515  0.4475  1.2608
  184SLPC   C2721135   2.243   1.875   9.349  0.3672  0.4572  0.0514
  184SLPC   H7R21136   2.352   1.879   9.373  0.1335 -2.1276  1.9662
  184SLPC   H7S21137   2.200   1.967   9.394  1.0001  0.9752 -0.3722
  184SLPC   C2821138   2.234   1.882   9.196  0.1781 -0.1659  0.1130
  184SLPC   H8R21139   2.292   1.803   9.142 -0.2296 -0.9135  0.7464
  184SLPC   H8S21140   2.290   1.974   9.170 -0.1110  0.7707  2.5137
  184SLPC   C2921141   2.100   1.898   9.134 -0.1927 -0.0501 -0.5993
  184SLPC   H9R21142   2.011   1.908   9.198  0.2385 -1.0903  0.1854
  184SLPC  C21021143   2.090   1.889   8.997  0.3607 -0.0034  0.4237
  184SLPC  H10R21144   1.998   1.897   8.936 -0.1015 -3.1170  0.5503
  184SLPC  C21121145   2.210   1.872   8.903 -0.5690 -0.3656 -0.3588
  184SLPC  H11R21146   2.181   1.859   8.797  0.0319  0.5318 -0.6427
  184SLPC  H11S21147   2.268   1.780   8.925 -2.7973 -1.8496 -0.3345
  184SLPC  C21221148   2.285   2.003   8.909  0.2137 -0.1733  0.8539
  184SLPC  H12R21149   2.231   2.097   8.928  3.0532  2.0196 -1.0917
  184SLPC  C21321150   2.418   2.015   8.873  1.4606  0.6615  0.3532
  184SLPC  H13R21151   2.462   2.116   8.879 -0.8919  1.6800  1.6832
  184SLPC  C21421152   2.518   1.908   8.828  0.1754  0.1250  0.0769
  184SLPC  H14R21153   2.530   1.829   8.905  0.4894 -1.4744 -1.5737
  184SLPC  H14S21154   2.623   1.943   8.820  0.2506 -0.5936 -3.2446
  184SLPC  C21521155   2.505   1.850   8.684 -0.1499 -0.9180  0.6015
  184SLPC  H15R21156   2.469   1.934   8.622  1.6506 -0.1906  0.4796
  184SLPC  H15S21157   2.435   1.764   8.697  0.4585 -1.9085 -1.9788
  184SLPC  C21621158   2.631   1.789   8.625 -0.0688  0.5836  0.0902
  184SLPC  H16R21159   2.719   1.857   8.626 -0.9183  1.7390 -0.6559
  184SLPC  H16S21160   2.615   1.774   8.516  2.6969  1.3197 -0.4991
  184SLPC  C21721161   2.683   1.664   8.704 -0.6154 -0.5586  0.0973
  184SLPC  H17R21162   2.604   1.596   8.745 -1.8475  0.4502 -0.5328
  184SLPC  H17S21163   2.735   1.702   8.795 -1.3016 -1.8235  1.0532
  184SLPC  C21821164   2.784   1.587   8.624 -0.5718 -0.7764 -0.3137
  184SLPC  H18R21165   2.887   1.625   8.638 -0.4402 -1.7048  1.6248
  184SLPC  H18S21166   2.763   1.587   8.515  1.5217 -2.2368 -0.7682
  184SLPC  H18T21167   2.784   1.478   8.646  1.2093 -0.9446 -0.9749
  184SLPC   C3321168   2.197   1.405   9.937 -0.1354 -0.1997  0.6414
  184SLPC   H3X21169   2.296   1.364   9.965  0.8879  0.8136 -1.3523
  184SLPC   H3Y21170   2.206   1.486   9.861 -0.8393  1.5464  2.3219
  184SLPC   C3421171   2.123   1.286   9.876  0.6058 -0.1597 -0.3336
  184SLPC   H4X21172   2.022   1.323   9.848 -1.0522 -1.5870  3.2210
  184SLPC   H4Y21173   2.120   1.199   9.944  1.0970 -0.4729 -0.7055
  184SLPC   C3521174   2.198   1.251   9.743  0.5529 -0.1232  0.6721
  184SLPC   H5X21175   2.280   1.180   9.767  0.8304  0.3285  1.0717
  184SLPC   H5Y21176   2.237   1.346   9.700 -1.3878  0.2276 -0.4115
  184SLPC   C3621177   2.111   1.178   9.641  0.4160  0.3179 -0.4846
  184SLPC   H6X21178   2.019   1.239   9.631  0.4649  0.2811 -1.1926
  184SLPC   H6Y21179   2.069   1.082   9.679 -0.8774  2.0105  2.8180
  184SLPC   C3721180   2.178   1.169   9.499  0.4949  0.2404  0.4686
  184SLPC   H7X21181   2.256   1.090   9.494  0.5285  0.3707 -1.6298
  184SLPC   H7Y21182   2.213   1.271   9.475 -0.8159  0.8602  1.0945
  184SLPC   C3821183   2.083   1.125   9.386 -0.2454  0.3628 -0.2832
  184SLPC   H8X21184   2.007   1.206   9.381 -2.9754 -1.8162  2.2427
  184SLPC   H8Y21185   2.027   1.036   9.424 -0.8912  1.3817  1.2475
  184SLPC   C3921186   2.171   1.085   9.267 -0.2575 -0.3321  0.1031
  184SLPC   H9X21187   2.242   1.006   9.300  0.3098  0.2363  0.2568
  184SLPC   H9Y21188   2.237   1.168   9.235  0.2988 -1.2240 -1.1938
  184SLPC  C31021189   2.082   1.042   9.144  0.5385  0.3542 -0.2017
  184SLPC  H10X21190   2.068   1.136   9.086  2.9382  0.9315  0.0384
  184SLPC  H10Y21191   1.984   1.003   9.178  0.5714  0.9890  0.6503
  184SLPC  C31121192   2.149   0.934   9.058 -0.2090  0.2070  1.2612
  184SLPC  H11X21193   2.170   0.837   9.108  0.1963  0.0290  0.7563
  184SLPC  H11Y21194   2.251   0.964   9.024 -0.8730  0.1523 -0.9412
  184SLPC  C31221195   2.080   0.904   8.927  0.1775  0.5093  0.2520
  184SLPC  H12X21196   2.071   1.000   8.872  0.9670  1.3814  1.5744
  184SLPC  H12Y21197   1.978   0.865   8.945  0.6775 -0.8333  0.2259
  184SLPC  C31321198   2.159   0.801   8.841 -0.2691 -0.5972 -0.7720
  184SLPC  H13X21199   2.138   0.707   8.895  0.0953  0.5085  1.4046
  184SLPC  H13Y21200   2.269   0.815   8.851 -0.3673 -0.9360  1.0933
  184SLPC  C31421201   2.114   0.781   8.700  0.0770 -0.7797 -0.2247
  184SLPC  H14X21202   2.136   0.865   8.631 -2.1214 -0.8053 -1.0697
  184SLPC  H14Y21203   2.003   0.773   8.693  0.1682 -1.9632 -0.5791
  184SLPC  C31521204   2.190   0.665   8.641 -0.3271  0.1972 -0.1802
  184SLPC  H15X21205   2.183   0.567   8.692  0.3632 -0.0399 -0.5288
  184SLPC  H15Y21206   2.295   0.699   8.639 -0.5037  1.2235  3.0463
  184SLPC  C31621207   2.139   0.617   8.493 -0.4063  0.0823  0.0481
  184SLPC  H16X21208   2.031   0.595   8.494 -0.6461  1.0519 -1.3505
  184SLPC  H16Y21209   2.194   0.525   8.465 -0.9292 -0.7591  1.6795
  184SLPC  C31721210   2.170   0.723   8.384  0.0146  0.0401 -0.1103
  184SLPC  H17X21211   2.277   0.749   8.391 -0.0102  0.5798 -1.4581
  184SLPC  H17Y21212   2.119   0.817   8.414 -1.3347 -0.9554  0.8221
  184SLPC  C31821213   2.129   0.687   8.244 -0.8793 -0.3263 -0.2031
  184SLPC  H18X21214   2.094   0.761   8.169 -4.3715 -1.7214 -0.1155
  184SLPC  H18Y21215   2.037   0.625   8.244 -0.2549 -1.2709 -0.0482
  184SLPC  H18Z21216   2.209   0.631   8.192 -0.2196  0.3397  0.0800
  185SLPC     N21217   3.804   3.041   6.339  0.5119 -0.8544  0.5466
  185SLPC   C1321218   3.932   3.120   6.311 -0.2378 -0.5034 -0.7891
  185SLPC  H13A21219   3.928   3.153   6.209 -0.1346  0.9810 -0.3409
  185SLPC  H13B21220   3.939   3.200   6.383 -0.7027  0.1285 -1.4385
  185SLPC  H13C21221   4.011   3.045   6.311  0.1250 -0.1239 -0.7648
  185SLPC   C1421222   3.805   2.993   6.477  0.4884  0.4028  0.6017
  185SLPC  H14A21223   3.708   2.952   6.501 -0.2182  2.1424  0.9124
  185SLPC  H14B21224   3.873   2.913   6.501 -1.5185 -1.5496  0.1654
  185SLPC  H14C21225   3.827   3.067   6.553  2.3540 -1.1284  1.6420
  185SLPC   C1521226   3.786   2.929   6.239  0.2718 -0.8544  0.1350
  185SLPC  H15A21227   3.688   2.885   6.254  0.7053 -1.1361  2.5175
  185SLPC  H15B21228   3.808   2.956   6.136  0.9646 -0.1050  0.4724
  185SLPC  H15C21229   3.860   2.854   6.263 -0.3584 -1.1446  1.2228
  185SLPC   C1221230   3.681   3.136   6.328  0.3242 -0.2402 -0.1780
  185SLPC  H12A21231   3.684   3.180   6.230 -1.9305 -0.3339 -0.3509
  185SLPC  H12B21232   3.690   3.209   6.407 -2.9362 -1.0202  1.0875
  185SLPC   C1121233   3.538   3.075   6.351 -0.0421  0.3114  0.9169
  185SLPC  H11A21234   3.538   2.992   6.277 -2.2448  0.1842  0.9736
  185SLPC  H11B21235   3.453   3.143   6.328 -1.4298 -1.2704  1.1176
  185SLPC     P21236   3.391   2.966   6.540 -0.4851 -0.2725 -0.1520
  185SLPC   O1321237   3.304   2.914   6.426 -0.7891  0.4611  0.5779
  185SLPC   O1421238   3.424   2.865   6.645 -0.3257  0.5713 -0.4750
  185SLPC   O1221239   3.530   3.010   6.476 -0.6665 -0.4256  0.3936
  185SLPC   O1121240   3.321   3.090   6.604  0.4522  0.0236 -0.1247
  185SLPC    C121241   3.357   3.223   6.590 -0.1732 -0.7187 -0.0846
  185SLPC    HA21242   3.398   3.249   6.490  0.8649  1.9011  0.9248
  185SLPC    HB21243   3.266   3.287   6.598 -0.5778 -1.3148  0.1401
  185SLPC    C221244   3.450   3.274   6.695 -0.3149  0.9685 -0.3718
  185SLPC    HS21245   3.539   3.212   6.671  0.5928  1.5521  1.3159
  185SLPC   O2121246   3.396   3.237   6.826  0.7460 -0.2701  0.0717
  185SLPC   C2121247   3.486   3.234   6.922  0.2901  0.7155 -0.0780
  185SLPC   O2221248   3.606   3.242   6.909  0.0952 -0.0934  0.0137
  185SLPC   C2221249   3.409   3.234   7.056  0.9631  0.5146  0.1644
  185SLPC   H2R21250   3.304   3.210   7.031  0.8802  1.0079  0.0132
  185SLPC   H2S21251   3.440   3.147   7.117  0.2650 -0.2242 -0.5226
  185SLPC    C321252   3.467   3.422   6.686  0.3776 -0.0073 -0.5886
  185SLPC    HX21253   3.379   3.475   6.727  1.2447  1.2242 -0.2464
  185SLPC    HY21254   3.466   3.463   6.583  0.0506  0.1232 -0.5334
  185SLPC   O3121255   3.581   3.474   6.759  0.0889  0.7606  0.8195
  185SLPC   C3121256   3.695   3.464   6.697 -0.0419 -0.2040 -0.5999
  185SLPC   O3221257   3.709   3.409   6.592  0.3031 -0.2564 -0.3300
  185SLPC   C3221258   3.816   3.530   6.776 -0.6017  0.3314 -0.2698
  185SLPC   H2X21259   3.793   3.536   6.885 -1.3383 -0.8149 -0.3494
  185SLPC   H2Y21260   3.824   3.633   6.736  1.6790 -0.1536 -1.2424
  185SLPC   C2321261   3.436   3.359   7.145  0.3942 -0.2381  0.3407
  185SLPC   H3R21262   3.337   3.382   7.191  0.2226 -2.1738  1.0269
  185SLPC   H3S21263   3.458   3.442   7.075  0.9120 -1.1474 -0.6021
  185SLPC   C2421264   3.528   3.338   7.262 -0.3271 -0.4928  0.2149
  185SLPC   H4R21265   3.625   3.290   7.239 -0.0843 -0.6826  1.5286
  185SLPC   H4S21266   3.475   3.275   7.337  0.9398  0.1282  1.6915
  185SLPC   C2521267   3.567   3.469   7.335 -0.0168  0.5002  0.2812
  185SLPC   H5R21268   3.473   3.514   7.374 -1.1512 -0.8605 -0.7942
  185SLPC   H5S21269   3.618   3.543   7.269 -0.0124  1.0562  0.8978
  185SLPC   C2621270   3.652   3.445   7.463  0.2057  0.1391 -0.1505
  185SLPC   H6R21271   3.679   3.548   7.494 -1.3816 -0.0100  1.9804
  185SLPC   H6S21272   3.744   3.384   7.452 -0.7831 -1.4925  0.1860
  185SLPC   C2721273   3.572   3.380   7.576 -0.1956  0.1453 -0.4481
  185SLPC   H7R21274   3.557   3.278   7.533 -1.7277  0.6492 -1.1826
  185SLPC   H7S21275   3.470   3.422   7.587  0.0426  0.2618  1.8634
  185SLPC   C2821276   3.643   3.368   7.710  0.1620 -0.3405 -0.2381
  185SLPC   H8R21277   3.748   3.345   7.680  0.3223  0.4081 -0.2800
  185SLPC   H8S21278   3.591   3.280   7.753  0.3590 -1.0884 -1.4725
  185SLPC   C2921279   3.626   3.505   7.776 -0.6641 -0.0179 -0.4441
  185SLPC   H9R21280   3.616   3.594   7.712 -1.0402  0.3483  0.1175
  185SLPC  C21021281   3.605   3.521   7.904 -0.0164  0.3563 -0.2806
  185SLPC  H10R21282   3.599   3.624   7.943  0.1299 -0.0566  0.8747
  185SLPC  C21121283   3.613   3.418   8.015 -0.3269 -0.3997  0.2145
  185SLPC  H11R21284   3.662   3.459   8.106  0.3034 -1.0197  0.1601
  185SLPC  H11S21285   3.678   3.335   7.978  0.9154  0.9518 -0.7232
  185SLPC  C21221286   3.487   3.361   8.065 -0.4647  1.0867  0.5570
  185SLPC  H12R21287   3.397   3.385   8.006  0.1008 -3.5226 -2.6982
  185SLPC  C21321288   3.471   3.288   8.178  0.2169 -1.4506 -0.4883
  185SLPC  H13R21289   3.370   3.254   8.204  0.7491 -1.1031  2.3697
  185SLPC  C21421290   3.576   3.244   8.275  0.6831 -0.0466  0.2252
  185SLPC  H14R21291   3.593   3.318   8.357  2.9236  0.9287 -1.0277
  185SLPC  H14S21292   3.674   3.227   8.227 -0.1011  0.4134 -1.6319
  185SLPC  C21521293   3.537   3.115   8.352  0.2689  0.6559 -0.6990
  185SLPC  H15R21294   3.454   3.143   8.420  1.4972 -1.7678  2.0292
  185SLPC  H15S21295   3.614   3.086   8.427 -2.9087  1.5859  3.2806
  185SLPC  C21621296   3.504   2.996   8.259 -0.5392 -0.0120  0.6175
  185SLPC  H16R21297   3.594   2.974   8.198 -1.7368 -4.2751  0.0773
  185SLPC  H16S21298   3.420   3.027   8.193  0.9632  2.4791 -0.2671
  185SLPC  C21721299   3.464   2.863   8.328 -0.1586 -1.2335 -0.3477
  185SLPC  H17R21300   3.537   2.835   8.407  0.2923 -0.4296 -0.4709
  185SLPC  H17S21301   3.454   2.792   8.243  1.7588 -2.1989  0.1787
  185SLPC  C21821302   3.326   2.880   8.396  0.2202  0.0689 -0.1155
  185SLPC  H18R21303   3.257   2.925   8.321  0.6787 -0.6868 -1.0087
  185SLPC  H18S21304   3.341   2.950   8.481 -1.9703  0.6463 -0.1584
  185SLPC  H18T21305   3.293   2.782   8.437  0.6189  0.8938  2.3754
  185SLPC   C3321306   3.946   3.448   6.755  0.0975  0.3800 -0.1986
  185SLPC   H3X21307   3.988   3.471   6.655  1.0932 -0.6171 -0.0324
  185SLPC   H3Y21308   3.913   3.344   6.774 -5.7770  2.3420  2.9128
  185SLPC   C3421309   4.051   3.488   6.859 -0.6466  0.6396 -0.2154
  185SLPC   H4X21310   4.033   3.596   6.882 -0.0880  0.3361  1.9513
  185SLPC   H4Y21311   4.156   3.468   6.830 -1.2616 -6.0206  0.7476
  185SLPC   C3521312   4.022   3.423   6.993 -0.6691  0.4063  0.3563
  185SLPC   H5X21313   4.073   3.325   6.998 -0.2906  0.6545  2.4271
  185SLPC   H5Y21314   3.915   3.397   7.003 -0.1102 -1.5385  1.9474
  185SLPC   C3621315   4.044   3.520   7.104 -0.3484  0.0778 -0.0576
  185SLPC   H6X21316   3.974   3.606   7.092  0.1480  0.5674  0.4576
  185SLPC   H6Y21317   4.148   3.559   7.102  1.1091 -3.4695  0.1277
  185SLPC   C3721318   4.007   3.458   7.243  0.2615  0.0260  0.2259
  185SLPC   H7X21319   3.898   3.434   7.239  0.2182 -0.3434  2.5604
  185SLPC   H7Y21320   4.008   3.542   7.315 -3.3789 -0.3036  0.8479
  185SLPC   C3821321   4.097   3.350   7.286  0.3717  0.0804  0.3835
  185SLPC   H8X21322   4.199   3.394   7.286  1.6849 -2.7398  0.8723
  185SLPC   H8Y21323   4.091   3.269   7.210 -2.5555 -0.1111  0.7097
  185SLPC   C3921324   4.046   3.289   7.415  0.3720  0.6078 -0.6924
  185SLPC   H9X21325   4.097   3.193   7.439  3.1041  2.0586 -0.2494
  185SLPC   H9Y21326   3.937   3.270   7.417 -0.3837  4.0635  1.5206
  185SLPC  C31021327   4.068   3.375   7.541 -0.0708 -0.4268  0.6997
  185SLPC  H10X21328   3.999   3.461   7.526 -0.8103 -0.8519  1.5905
  185SLPC  H10Y21329   4.171   3.418   7.543 -1.7877  4.2962  1.5544
  185SLPC  C31121330   4.035   3.299   7.671 -0.3391  0.0048  0.0857
  185SLPC  H11X21331   4.101   3.214   7.697 -2.1980 -0.9836  1.8585
  185SLPC  H11Y21332   3.935   3.251   7.664 -0.6881  0.6210  0.7689
  185SLPC  C31221333   4.030   3.405   7.789 -0.4800  0.2334 -0.1541
  185SLPC  H12X21334   3.948   3.478   7.769 -0.3714  0.3324 -0.2378
  185SLPC  H12Y21335   4.119   3.471   7.794 -0.2392  0.0029 -1.1884
  185SLPC  C31321336   4.016   3.321   7.921  0.3789 -0.1574 -0.4537
  185SLPC  H13X21337   4.105   3.254   7.929  1.0543  0.5934 -1.5478
  185SLPC  H13Y21338   3.936   3.243   7.920 -0.0196  0.1711  1.5443
  185SLPC  C31421339   4.007   3.398   8.052 -0.1780 -0.0904  0.1966
  185SLPC  H14X21340   3.912   3.453   8.073  0.5942  1.5036 -0.3197
  185SLPC  H14Y21341   4.088   3.473   8.042 -0.1997 -0.3372 -2.8430
  185SLPC  C31521342   4.046   3.309   8.172  0.1602 -0.3636 -0.2196
  185SLPC  H15X21343   4.146   3.267   8.149 -0.1836 -2.1954  1.3908
  185SLPC  H15Y21344   3.972   3.227   8.181 -1.5496  1.2671  1.4822
  185SLPC  C31621345   4.046   3.384   8.309  0.5069 -0.2060 -0.1560
  185SLPC  H16X21346   3.950   3.440   8.302  1.4251  1.5662  0.7165
  185SLPC  H16Y21347   4.121   3.466   8.309 -1.9319  2.1949 -1.3518
  185SLPC  C31721348   4.051   3.299   8.434  0.0376  0.4850 -0.2753
  185SLPC  H17X21349   4.089   3.361   8.517 -0.1658  0.9241 -0.5056
  185SLPC  H17Y21350   4.124   3.216   8.425  0.5009  0.2818  3.6996
  185SLPC  C31821351   3.914   3.232   8.474 -0.0890 -0.0548  0.3319
  185SLPC  H18X21352   3.849   3.312   8.517  1.1672  0.0342  2.1949
  185SLPC  H18Y21353   3.933   3.157   8.554  0.2636 -0.4610 -0.1251
  185SLPC  H18Z21354   3.864   3.179   8.390 -1.0304  3.1641 -1.3038
  186SLPC     N21355   6.597   0.779   6.329 -0.1744 -0.6166  0.1104
  186SLPC   C1321356   6.659   0.896   6.243 -0.6443 -0.2998  0.3424
  186SLPC  H13A21357   6.765   0.909   6.259 -0.7060  1.0433 -0.2125
  186SLPC  H13B21358   6.655   0.874   6.137  0.3554  0.5301  0.1182
  186SLPC  H13C21359   6.614   0.992   6.262 -0.0706 -0.4237  2.5769
  186SLPC   C1421360   6.460   0.750   6.273 -0.6061 -0.8158 -0.0202
  186SLPC  H14A21361   6.394   0.836   6.276 -0.9241 -0.9845 -1.5307
  186SLPC  H14B21362   6.465   0.733   6.167 -0.0875  2.7560 -0.7081
  186SLPC  H14C21363   6.414   0.670   6.330 -1.2773 -1.0647 -0.9003
  186SLPC   C1521364   6.584   0.822   6.471 -0.4807 -0.4688 -0.1899
  186SLPC  H15A21365   6.525   0.912   6.471  1.4666  0.9012 -1.1489
  186SLPC  H15B21366   6.562   0.738   6.535  1.6255 -2.3102 -1.7184
  186SLPC  H15C21367   6.673   0.866   6.515  0.6484 -2.4967 -0.3296
  186SLPC   C1221368   6.693   0.663   6.318 -0.9964  0.2193  0.6833
  186SLPC  H12A21369   6.700   0.636   6.214 -3.6558 -0.7644  0.6984
  186SLPC  H12B21370   6.643   0.582   6.369 -0.5722  1.2398  2.8265
  186SLPC   C1121371   6.834   0.677   6.379  0.1238 -0.2584 -0.5180
  186SLPC  H11A21372   6.883   0.580   6.401  1.0426  0.1999 -0.4569
  186SLPC  H11B21373   6.833   0.728   6.479  5.0305  3.2856 -1.8551
  186SLPC     P21374   7.027   0.852   6.353 -0.0588 -0.4020  0.1164
  186SLPC   O1321375   7.150   0.852   6.270  0.2120 -0.1771 -0.5181
  186SLPC   O1421376   6.955   0.981   6.363  0.8214 -0.1961  0.5379
  186SLPC   O1221377   6.925   0.746   6.288  1.0583  0.6665 -0.5278
  186SLPC   O1121378   7.058   0.801   6.495 -0.6911  0.2442  0.2767
  186SLPC    C121379   7.124   0.681   6.525 -0.0393 -0.0223  0.4369
  186SLPC    HA21380   7.055   0.595   6.538 -1.2080  0.4613 -1.9396
  186SLPC    HB21381   7.194   0.648   6.445  0.6776 -0.7799  1.3556
  186SLPC    C221382   7.208   0.699   6.656 -0.3151  0.1887  0.7376
  186SLPC    HS21383   7.268   0.606   6.661 -0.7253 -0.0327  1.7658
  186SLPC   O2121384   7.115   0.700   6.760 -0.1012  0.6445  0.3144
  186SLPC   C2121385   7.139   0.605   6.850 -0.0886  0.2285  0.6086
  186SLPC   O2221386   7.230   0.525   6.851  0.0436 -0.4698 -0.1596
  186SLPC   C2221387   7.047   0.631   6.972 -0.0372 -0.3695  0.0353
  186SLPC   H2R21388   7.065   0.736   7.004  0.8442 -0.2935 -0.6466
  186SLPC   H2S21389   6.944   0.614   6.934  0.9798 -0.7584 -2.8179
  186SLPC    C321390   7.294   0.819   6.670  0.8308  0.2491  0.6651
  186SLPC    HX21391   7.232   0.910   6.688  0.6463  0.1624  0.4667
  186SLPC    HY21392   7.348   0.827   6.574 -0.9142  0.8061 -0.3166
  186SLPC   O3121393   7.385   0.802   6.775 -0.1798  0.4064 -0.1645
  186SLPC   C3121394   7.495   0.875   6.787  0.4080 -0.1135 -0.7022
  186SLPC   O3221395   7.524   0.967   6.712 -0.4227  0.1403  0.9138
  186SLPC   C3221396   7.555   0.852   6.925  0.4560 -0.1709  0.2274
  186SLPC   H2X21397   7.623   0.935   6.954 -0.4655 -0.1110  2.4731
  186SLPC   H2Y21398   7.604   0.752   6.917  0.7686  0.0171 -0.2141
  186SLPC   C2321399   7.064   0.535   7.088  0.6962 -0.2887  0.0622
  186SLPC   H3R21400   7.161   0.556   7.137  0.9262 -3.4359  1.1920
  186SLPC   H3S21401   7.080   0.435   7.041 -0.6826  0.1330 -1.4124
  186SLPC   C2421402   6.946   0.539   7.194  0.1060  0.5870 -0.1875
  186SLPC   H4R21403   6.855   0.548   7.132  0.1801  0.5255 -0.3041
  186SLPC   H4S21404   6.949   0.634   7.252  0.6603  1.8062 -2.1338
  186SLPC   C2521405   6.951   0.415   7.283 -0.1565  0.2552  0.3710
  186SLPC   H5R21406   7.055   0.375   7.284  1.1364  3.2555 -0.7095
  186SLPC   H5S21407   6.889   0.338   7.233 -0.4277  0.3067  0.6287
  186SLPC   C2621408   6.909   0.433   7.437  0.0127 -0.4395 -0.4672
  186SLPC   H6R21409   6.896   0.337   7.491  1.0386 -0.3019  0.0527
  186SLPC   H6S21410   6.806   0.473   7.438 -1.5678 -4.0480 -1.3579
  186SLPC   C2721411   7.013   0.519   7.525 -0.5589 -0.3129  0.2688
  186SLPC   H7R21412   7.001   0.619   7.480 -0.0225 -0.5908 -0.5198
  186SLPC   H7S21413   7.120   0.493   7.506 -0.4835  1.5226 -2.2397
  186SLPC   C2821414   6.968   0.532   7.668  0.0012  0.3782 -0.5704
  186SLPC   H8R21415   6.998   0.429   7.698  0.7646  1.2292  1.8477
  186SLPC   H8S21416   6.858   0.544   7.677  0.4026  3.0520  2.5731
  186SLPC   C2921417   7.028   0.646   7.744 -0.6586  0.2130 -0.1189
  186SLPC   H9R21418   6.980   0.741   7.718  0.4354  0.4287 -1.4884
  186SLPC  C21021419   7.123   0.634   7.839 -0.1495  0.9820  0.3118
  186SLPC  H10R21420   7.150   0.730   7.885  0.9999 -0.0090  1.8152
  186SLPC  C21121421   7.203   0.509   7.889  0.4053 -0.5645  0.2517
  186SLPC  H11R21422   7.310   0.536   7.901 -0.2034  1.9346  0.6804
  186SLPC  H11S21423   7.210   0.434   7.808 -0.3249 -0.8552  0.4461
  186SLPC  C21221424   7.152   0.440   8.010 -0.5493 -0.1597  0.1802
  186SLPC  H12R21425   7.072   0.368   7.986  0.4002 -1.5499  1.0226
  186SLPC  C21321426   7.191   0.468   8.136  0.3492 -0.1106  0.2791
  186SLPC  H13R21427   7.138   0.424   8.222  1.1964  1.7444  1.8143
  186SLPC  C21421428   7.298   0.571   8.170  0.1318  0.3321 -0.9655
  186SLPC  H14R21429   7.263   0.656   8.231 -1.2187 -1.0256  0.2393
  186SLPC  H14S21430   7.352   0.602   8.078  1.3397  1.2058  0.0049
  186SLPC  C21521431   7.402   0.487   8.256  0.7123 -0.3846  0.8253
  186SLPC  H15R21432   7.496   0.544   8.241  0.1362  0.2748 -0.4303
  186SLPC  H15S21433   7.404   0.385   8.213 -0.4708  0.0003 -0.2111
  186SLPC  C21621434   7.373   0.469   8.403 -0.1601  0.4646  0.2271
  186SLPC  H16R21435   7.284   0.406   8.424  0.6259 -0.2310  1.6965
  186SLPC  H16S21436   7.349   0.576   8.423  1.7088  1.7724 -3.5383
  186SLPC  C21721437   7.499   0.427   8.482 -0.2612  1.1559 -0.0551
  186SLPC  H17R21438   7.535   0.326   8.449  0.0734  0.8520  1.1865
  186SLPC  H17S21439   7.462   0.417   8.586 -1.4344 -0.6503 -0.5952
  186SLPC  C21821440   7.614   0.521   8.475  0.3469  0.0949  0.2141
  186SLPC  H18R21441   7.695   0.487   8.542  1.1627  0.0708 -0.7725
  186SLPC  H18S21442   7.589   0.629   8.480  1.0720  0.5357 -3.3127
  186SLPC  H18T21443   7.662   0.517   8.375 -1.8369 -2.6811 -0.8588
  186SLPC   C3321444   7.439   0.841   7.027 -0.0255  0.6523 -0.1132
  186SLPC   H3X21445   7.387   0.743   7.015  0.2658  0.5597 -0.6330
  186SLPC   H3Y21446   7.365   0.924   7.033  0.7602  1.3118  0.7247
  186SLPC   C3421447   7.507   0.830   7.166  0.1386  0.1949 -0.0072
  186SLPC   H4X21448   7.569   0.920   7.189  0.3765  0.0311  0.0010
  186SLPC   H4Y21449   7.573   0.741   7.171 -1.4652 -1.2453 -2.3829
  186SLPC   C3521450   7.404   0.808   7.275 -0.1945 -0.3055  0.0544
  186SLPC   H5X21451   7.343   0.719   7.248  1.7815 -1.5383 -0.5172
  186SLPC   H5Y21452   7.344   0.901   7.287  1.3019  0.7482 -0.3728
  186SLPC   C3621453   7.465   0.781   7.411  0.1579 -0.9758  0.0163
  186SLPC   H6X21454   7.517   0.873   7.446 -1.4816  0.3163 -0.8089
  186SLPC   H6Y21455   7.544   0.704   7.398  1.9830  0.8624 -0.3181
  186SLPC   C3721456   7.363   0.733   7.507  0.3258  0.7165 -0.0995
  186SLPC   H7X21457   7.336   0.632   7.468  2.8394  0.8215 -2.4473
  186SLPC   H7Y21458   7.268   0.790   7.505  0.5204  1.1242  1.1933
  186SLPC   C3821459   7.423   0.709   7.650  0.2978 -0.5022 -0.5051
  186SLPC   H8X21460   7.513   0.645   7.648  0.9852  0.2785  1.7097
  186SLPC   H8Y21461   7.334   0.657   7.692  1.3334 -2.5501 -0.7288
  186SLPC   C3921462   7.451   0.839   7.732  0.0432  0.4672  0.6472
  186SLPC   H9X21463   7.363   0.906   7.728 -0.0498  0.3083 -0.2663
  186SLPC   H9Y21464   7.527   0.900   7.679 -1.3571  3.0806  1.4668
  186SLPC  C31021465   7.495   0.799   7.874  0.0022 -0.1843  0.9744
  186SLPC  H10X21466   7.572   0.718   7.870 -1.2874 -1.4622  1.0434
  186SLPC  H10Y21467   7.405   0.754   7.920  0.3631 -1.5308  0.4187
  186SLPC  C31121468   7.537   0.911   7.975 -0.3740 -0.6621 -0.4597
  186SLPC  H11X21469   7.465   0.995   7.960  1.1921  0.6365 -1.0826
  186SLPC  H11Y21470   7.638   0.953   7.951 -1.0287  2.1638  1.2359
  186SLPC  C31221471   7.556   0.846   8.113  0.2958  0.1850 -0.0541
  186SLPC  H12X21472   7.616   0.753   8.107  0.3941  0.2800 -0.5310
  186SLPC  H12Y21473   7.456   0.833   8.160 -0.4167  0.7484 -1.3687
  186SLPC  C31321474   7.644   0.929   8.205 -0.0282 -0.2790 -0.2505
  186SLPC  H13X21475   7.588   1.024   8.216  1.3153  0.7914 -2.0000
  186SLPC  H13Y21476   7.750   0.937   8.173 -0.4078 -1.6895 -2.0337
  186SLPC  C31421477   7.660   0.869   8.350  0.6057  0.0382  0.1928
  186SLPC  H14X21478   7.716   0.773   8.337 -4.2468 -2.8331 -2.4184
  186SLPC  H14Y21479   7.558   0.857   8.391 -0.0918  4.7835  0.3940
  186SLPC  C31521480   7.738   0.957   8.447  0.0428  0.4811  0.8254
  186SLPC  H15X21481   7.688   1.054   8.469 -0.4073  0.4125  0.1163
  186SLPC  H15Y21482   7.833   0.991   8.401 -0.1230  0.5617  0.5459
  186SLPC  C31621483   7.767   0.890   8.579 -0.0258  0.2110  0.5296
  186SLPC  H16X21484   7.854   0.944   8.620 -0.1230  1.7416 -1.1363
  186SLPC  H16Y21485   7.789   0.781   8.575  0.3181  0.3072 -0.3142
  186SLPC  C31721486   7.654   0.907   8.681 -0.1674 -0.6192  0.6957
  186SLPC  H17X21487   7.576   0.841   8.637  1.0602 -0.9859 -1.0498
  186SLPC  H17Y21488   7.618   1.012   8.682 -0.2388 -0.5189 -2.4875
  186SLPC  C31821489   7.686   0.848   8.822  0.0603  0.5407  0.6542
  186SLPC  H18X21490   7.592   0.838   8.881 -0.0472  0.3618  0.4551
  186SLPC  H18Y21491   7.750   0.920   8.876  1.1700  0.7183 -0.8277
  186SLPC  H18Z21492   7.738   0.750   8.810 -0.6985  0.2260 -0.2807
  187SLPC     N21493   5.071   3.533   5.868 -0.7730 -0.1268  0.4226
  187SLPC   C1321494   4.977   3.649   5.864  0.8861 -0.5207  0.3520
  187SLPC  H13A21495   4.932   3.672   5.768  1.3585  0.1691  0.2876
  187SLPC  H13B21496   4.902   3.623   5.937  1.4092 -0.1511  1.0345
  187SLPC  H13C21497   5.028   3.736   5.902  3.0717 -2.3361  1.8565
  187SLPC   C1421498   5.186   3.559   5.774 -0.0967 -0.2884 -0.1238
  187SLPC  H14A21499   5.247   3.639   5.814 -0.1650 -1.4139  2.4322
  187SLPC  H14B21500   5.247   3.470   5.773 -1.2849 -1.1409 -1.3774
  187SLPC  H14C21501   5.149   3.578   5.674 -0.4281 -0.5067 -0.0430
  187SLPC   C1521502   4.995   3.418   5.818 -0.0801  0.6926 -0.4436
  187SLPC  H15A21503   4.957   3.443   5.720  1.4254  0.0686 -1.2312
  187SLPC  H15B21504   5.053   3.327   5.808 -0.5095  0.4370 -0.6139
  187SLPC  H15C21505   4.906   3.403   5.877  0.3272  0.2545  0.0790
  187SLPC   C1221506   5.128   3.488   6.005  0.1273 -0.2641 -0.5966
  187SLPC  H12A21507   5.196   3.406   5.987  0.1907 -0.6046  1.0401
  187SLPC  H12B21508   5.052   3.446   6.070  0.0627 -0.5959 -0.8825
  187SLPC   C1121509   5.202   3.600   6.082 -0.1601  0.0971 -0.1349
  187SLPC  H11A21510   5.280   3.638   6.012  1.7139 -0.1494  1.7232
  187SLPC  H11B21511   5.268   3.561   6.162  0.2833  0.7066 -0.1986
  187SLPC     P21512   5.050   3.691   6.275 -0.4446 -0.0119  0.5809
  187SLPC   O1321513   4.978   3.814   6.303  0.7225  0.1952  0.0081
  187SLPC   O1421514   4.974   3.560   6.281 -0.5069 -0.0802  0.0455
  187SLPC   O1221515   5.122   3.701   6.132  0.2622 -0.2509 -0.6212
  187SLPC   O1121516   5.178   3.684   6.365 -0.0857 -0.0995 -0.0618
  187SLPC    C121517   5.268   3.794   6.366  0.6574  0.3667  0.1123
  187SLPC    HA21518   5.291   3.830   6.263 -0.5751  0.3025 -0.2097
  187SLPC    HB21519   5.224   3.875   6.427 -1.4016 -0.4302 -0.2266
  187SLPC    C221520   5.397   3.760   6.433 -0.6592 -0.5936  0.1075
  187SLPC    HS21521   5.437   3.678   6.369  0.8813 -0.2503  0.5906
  187SLPC   O2121522   5.351   3.711   6.567 -0.4349 -0.0858  0.5253
  187SLPC   C2121523   5.453   3.645   6.630 -0.4612  0.0992  0.1218
  187SLPC   O2221524   5.561   3.615   6.580 -0.8433  0.0007 -0.7482
  187SLPC   C2221525   5.400   3.605   6.770  0.3957 -0.0475  0.0001
  187SLPC   H2R21526   5.408   3.691   6.840 -1.6727  0.3541 -0.1942
  187SLPC   H2S21527   5.291   3.591   6.754  0.5569  0.2475 -1.5303
  187SLPC    C321528   5.506   3.866   6.446 -0.6535 -0.1647 -0.0248
  187SLPC    HX21529   5.511   3.916   6.347  0.9992  2.8174  1.4256
  187SLPC    HY21530   5.605   3.819   6.465 -0.4168 -0.6237 -2.1724
  187SLPC   O3121531   5.471   3.961   6.555 -0.4579  0.5080  0.1922
  187SLPC   C3121532   5.574   4.042   6.579  1.0696 -0.5992  0.2503
  187SLPC   O3221533   5.670   4.062   6.504 -0.3026 -0.9994  0.3582
  187SLPC   C3221534   5.556   4.107   6.720 -0.6186 -0.0578 -0.8942
  187SLPC   H2X21535   5.486   4.192   6.713 -1.7983 -0.8956  0.2128
  187SLPC   H2Y21536   5.654   4.145   6.757 -0.5235  0.0209 -1.2240
  187SLPC   C2321537   5.476   3.487   6.821 -0.1945 -0.1619 -0.4939
  187SLPC   H3R21538   5.583   3.513   6.825 -0.8848  3.0368  0.0226
  187SLPC   H3S21539   5.457   3.397   6.759  1.3206 -1.7197  1.2266
  187SLPC   C2421540   5.430   3.451   6.965  0.4524  0.4422 -0.2424
  187SLPC   H4R21541   5.479   3.353   6.980  0.4962  0.4100 -0.6047
  187SLPC   H4S21542   5.319   3.447   6.973  0.2991 -2.3743 -2.4820
  187SLPC   C2521543   5.492   3.543   7.072  0.7037  0.5108 -0.9292
  187SLPC   H5R21544   5.432   3.637   7.068  2.3108  1.6793  0.7748
  187SLPC   H5S21545   5.598   3.565   7.047  0.8845 -0.0536 -0.6716
  187SLPC   C2621546   5.476   3.485   7.217  0.4332  0.6093  0.1915
  187SLPC   H6R21547   5.546   3.399   7.214  0.8928  0.9909 -0.0068
  187SLPC   H6S21548   5.369   3.454   7.227 -0.6930  3.4820 -1.7372
  187SLPC   C2721549   5.516   3.576   7.332 -0.7157 -0.0920 -1.0785
  187SLPC   H7R21550   5.581   3.662   7.305 -0.6485  0.1205 -0.2513
  187SLPC   H7S21551   5.579   3.518   7.403  0.1276  0.4129 -1.4017
  187SLPC   C2821552   5.392   3.623   7.416  0.0004 -0.7482  0.2483
  187SLPC   H8R21553   5.323   3.540   7.442 -0.2514 -1.2980 -1.9453
  187SLPC   H8S21554   5.332   3.692   7.354  0.9999 -0.9811 -1.0380
  187SLPC   C2921555   5.437   3.698   7.537 -0.8760 -0.5625 -0.1304
  187SLPC   H9R21556   5.525   3.761   7.517 -0.3542 -0.8851  1.0946
  187SLPC  C21021557   5.392   3.693   7.662  0.2377 -0.2564  0.0476
  187SLPC  H10R21558   5.439   3.750   7.744 -1.4003  0.3875  0.5810
  187SLPC  C21121559   5.269   3.619   7.705  0.0716  0.5917 -0.7493
  187SLPC  H11R21560   5.202   3.607   7.616 -2.5099 -0.9489  1.2595
  187SLPC  H11S21561   5.214   3.675   7.784  1.6980  1.9705 -0.5262
  187SLPC  C21221562   5.305   3.477   7.752 -0.1458  0.5240 -0.5773
  187SLPC  H12R21563   5.358   3.415   7.679  0.1538  0.4211 -0.2720
  187SLPC  C21321564   5.286   3.419   7.874 -0.1539 -0.5852  0.2853
  187SLPC  H13R21565   5.326   3.320   7.899 -1.1790 -1.3651 -1.0396
  187SLPC  C21421566   5.230   3.486   7.998  0.4519 -0.2778  0.4247
  187SLPC  H14R21567   5.123   3.461   8.014 -0.0754  1.3847 -0.2780
  187SLPC  H14S21568   5.235   3.597   7.985 -0.5220 -0.1621  0.9089
  187SLPC  C21521569   5.306   3.455   8.127 -0.5147 -0.0463  0.3422
  187SLPC  H15R21570   5.298   3.345   8.141  0.8564 -0.2768 -0.4578
  187SLPC  H15S21571   5.261   3.503   8.216 -2.7325  2.0604 -1.7739
  187SLPC  C21621572   5.457   3.502   8.119  0.0275  0.4977 -1.0640
  187SLPC  H16R21573   5.456   3.612   8.133 -1.1884  0.4364 -0.5347
  187SLPC  H16S21574   5.490   3.475   8.017  1.5808  1.8152 -0.9440
  187SLPC  C21721575   5.542   3.426   8.222  0.1451 -0.6316 -0.1793
  187SLPC  H17R21576   5.652   3.437   8.208  0.3586 -0.9365  1.1380
  187SLPC  H17S21577   5.517   3.322   8.192  0.1602 -0.4982 -0.6679
  187SLPC  C21821578   5.501   3.440   8.370  0.3498  0.3106 -0.2783
  187SLPC  H18R21579   5.395   3.411   8.387  0.7389 -0.5558  0.7648
  187SLPC  H18S21580   5.512   3.548   8.393  0.8452  0.1027  0.4886
  187SLPC  H18T21581   5.574   3.385   8.434 -0.4304 -0.8005 -0.3158
  187SLPC   C3321582   5.486   4.000   6.804 -0.2125 -0.4452 -0.1740
  187SLPC   H3X21583   5.535   3.900   6.803 -0.7908 -0.8464  2.9776
  187SLPC   H3Y21584   5.379   3.980   6.777  0.2836 -0.8757 -1.9705
  187SLPC   C3421585   5.487   4.048   6.954  0.0063 -0.1633 -0.7720
  187SLPC   H4X21586   5.420   4.136   6.960 -0.1736 -0.3776  0.5411
  187SLPC   H4Y21587   5.594   4.067   6.977 -0.1931  1.8082 -1.2508
  187SLPC   C3521588   5.451   3.927   7.033  0.7720 -0.2233  0.3157
  187SLPC   H5X21589   5.513   3.837   7.015  0.8211 -0.8966  3.3089
  187SLPC   H5Y21590   5.347   3.901   7.005 -0.2584  0.7277  2.9277
  187SLPC   C3621591   5.441   3.966   7.190 -0.1037  0.3553  0.6665
  187SLPC   H6X21592   5.548   3.968   7.220  0.1797  1.4412 -0.3429
  187SLPC   H6Y21593   5.394   3.882   7.245  0.2891  0.1567  0.6982
  187SLPC   C3721594   5.359   4.099   7.212  0.3151 -0.5475 -0.1459
  187SLPC   H7X21595   5.420   4.177   7.162 -0.0040  0.1966  0.6120
  187SLPC   H7Y21596   5.258   4.094   7.165 -0.5050  0.5008  1.4224
  187SLPC   C3821597   5.331   4.140   7.359  0.5284 -0.5223 -0.4147
  187SLPC   H8X21598   5.290   4.243   7.366 -2.5915 -1.7429  0.6942
  187SLPC   H8Y21599   5.425   4.142   7.420  0.6378 -0.1305 -0.5922
  187SLPC   C3921600   5.247   4.044   7.439  0.1916  0.3354  0.2998
  187SLPC   H9X21601   5.273   3.938   7.418  0.9436  0.4252  0.7279
  187SLPC   H9Y21602   5.144   4.066   7.405  1.0215  1.2972 -1.7701
  187SLPC  C31021603   5.264   4.069   7.589 -0.3133  0.5704 -0.0423
  187SLPC  H10X21604   5.267   4.178   7.605  2.6677  0.5458  0.1037
  187SLPC  H10Y21605   5.363   4.025   7.616  0.0816  1.3709 -0.1550
  187SLPC  C31121606   5.141   4.017   7.670 -0.0256  0.0770 -0.2679
  187SLPC  H11X21607   5.143   3.906   7.667 -0.8531  0.0343  0.3038
  187SLPC  H11Y21608   5.049   4.040   7.611 -1.8935 -4.0384  0.6927
  187SLPC  C31221609   5.155   4.068   7.821  0.3830  0.6521  0.2509
  187SLPC  H12X21610   5.140   4.178   7.822 -0.9347  0.5026  1.7521
  187SLPC  H12Y21611   5.258   4.046   7.859 -0.4093  0.4532  2.4692
  187SLPC  C31321612   5.047   3.985   7.889  0.1557  0.2418 -0.3617
  187SLPC  H13X21613   5.088   3.883   7.902  0.7284  0.3576 -1.2284
  187SLPC  H13Y21614   4.958   3.995   7.823  1.5376  3.3655 -1.9812
  187SLPC  C31421615   5.034   4.058   8.032 -0.2170 -0.6229  0.2736
  187SLPC  H14X21616   5.031   4.168   8.014 -0.1937 -0.8246 -1.1202
  187SLPC  H14Y21617   5.125   4.027   8.088  0.0397  0.8306  0.7041
  187SLPC  C31521618   4.912   4.021   8.106 -0.2775 -0.4149 -0.0670
  187SLPC  H15X21619   4.912   3.911   8.117  0.9841 -0.3272  0.9186
  187SLPC  H15Y21620   4.821   4.062   8.056  0.9643  1.5929 -0.8094
  187SLPC  C31621621   4.918   4.099   8.241  0.0105  0.8693  0.3438
  187SLPC  H16X21622   4.917   4.208   8.218 -0.0198  0.6192 -0.8992
  187SLPC  H16Y21623   5.014   4.085   8.295  0.2558  2.9031  0.5275
  187SLPC  C31721624   4.800   4.059   8.331  0.2112  0.2284 -0.2138
  187SLPC  H17X21625   4.794   3.949   8.345  0.4253  0.2608  0.1472
  187SLPC  H17Y21626   4.706   4.091   8.281 -1.3458  1.0466  2.9566
  187SLPC  C31821627   4.802   4.126   8.463 -0.6547  0.8248 -0.4186
  187SLPC  H18X21628   4.699   4.148   8.499 -0.7387 -1.5711  1.0276
  187SLPC  H18Y21629   4.850   4.225   8.451  4.0193 -1.0193  1.0612
  187SLPC  H18Z21630   4.859   4.068   8.538 -1.3326 -0.2354 -0.6908
  188SLPC     N21631   6.446   5.749   6.510  0.0548 -0.4851  0.7206
  188SLPC   C1321632   6.436   5.630   6.412  0.3568 -0.2807 -0.4195
  188SLPC  H13A21633   6.532   5.617   6.364  1.0425 -0.0480  0.8314
  188SLPC  H13B21634   6.418   5.536   6.463  1.7418  0.2518  1.1837
  188SLPC  H13C21635   6.353   5.656   6.349  0.0555  0.5056  0.2915
  188SLPC   C1421636   6.545   5.728   6.618 -0.2808 -1.0983  0.5574
  188SLPC  H14A21637   6.560   5.812   6.683  0.8502 -1.1654  0.4152
  188SLPC  H14B21638   6.511   5.642   6.674 -0.1038 -2.2865 -1.0683
  188SLPC  H14C21639   6.642   5.707   6.574 -0.5192  3.2966 -2.7820
  188SLPC   C1521640   6.314   5.759   6.576  0.1258 -0.0851 -1.1100
  188SLPC  H15A21641   6.232   5.756   6.506 -0.6378 -1.5288 -0.2006
  188SLPC  H15B21642   6.291   5.681   6.647  1.2045  0.7080  0.1467
  188SLPC  H15C21643   6.313   5.854   6.626  0.2804 -0.3736 -0.5500
  188SLPC   C1221644   6.490   5.877   6.432  0.6733  0.5387  0.5285
  188SLPC  H12A21645   6.448   5.877   6.332  0.4074 -0.1678  0.6341
  188SLPC  H12B21646   6.597   5.869   6.414  0.7551 -1.8263  1.6677
  188SLPC   C1121647   6.462   6.005   6.498  0.4215 -0.9596  0.4072
  188SLPC  H11A21648   6.495   6.009   6.604  1.8914  3.2040 -0.0300
  188SLPC  H11B21649   6.354   6.031   6.507  1.1761  2.4589  0.9911
  188SLPC     P21650   6.669   6.157   6.443 -0.4666 -0.0249  0.1407
  188SLPC   O1321651   6.756   6.072   6.358  0.9408 -0.0462  0.2037
  188SLPC   O1421652   6.678   6.303   6.414 -0.7794  0.1656  0.2042
  188SLPC   O1221653   6.517   6.113   6.423  0.3988  0.3647 -0.8586
  188SLPC   O1121654   6.696   6.141   6.598  1.0240 -0.3259  0.8665
  188SLPC    C121655   6.629   6.237   6.683 -0.2498 -0.9355  0.2150
  188SLPC    HA21656   6.652   6.340   6.648  0.9907 -1.1370  0.3909
  188SLPC    HB21657   6.518   6.232   6.682 -0.2650 -0.6331  0.1814
  188SLPC    C221658   6.675   6.220   6.827 -0.2955  0.2200 -0.4813
  188SLPC    HS21659   6.785   6.231   6.838 -0.0986 -2.0315  0.3690
  188SLPC   O2121660   6.626   6.097   6.880  0.5395 -0.2521 -0.3882
  188SLPC   C2121661   6.712   6.023   6.948  0.1728 -0.0380 -0.1393
  188SLPC   O2221662   6.813   6.066   6.995 -0.7689 -0.1242  0.1165
  188SLPC   C2221663   6.656   5.886   6.964 -0.3211  0.1518  0.2035
  188SLPC   H2R21664   6.570   5.872   6.894 -2.6833  0.9343  2.7434
  188SLPC   H2S21665   6.726   5.810   6.925 -2.9941 -1.6153 -1.5526
  188SLPC    C321666   6.629   6.346   6.910  0.5486  0.7202 -0.3543
  188SLPC    HX21667   6.518   6.352   6.917  0.4030  2.4889 -2.6802
  188SLPC    HY21668   6.656   6.446   6.869 -1.9899  1.0415 -1.4544
  188SLPC   O3121669   6.670   6.327   7.049 -0.3588 -0.1407 -0.1465
  188SLPC   C3121670   6.792   6.377   7.075  0.4502 -0.3021 -0.5260
  188SLPC   O3221671   6.863   6.433   6.994 -0.4749  0.4595 -0.3769
  188SLPC   C3221672   6.814   6.350   7.222  0.6832  0.2243  0.1456
  188SLPC   H2X21673   6.777   6.248   7.245 -2.0196  1.0454 -0.0935
  188SLPC   H2Y21674   6.755   6.415   7.290  1.9887  0.2483  1.2992
  188SLPC   C2321675   6.628   5.867   7.108 -0.3544  0.2303 -0.1154
  188SLPC   H3R21676   6.563   5.777   7.119  0.6334 -0.2118  3.1493
  188SLPC   H3S21677   6.570   5.953   7.147  1.9089  1.7362  0.1381
  188SLPC   C2421678   6.755   5.839   7.196 -0.5457  0.1362 -0.0611
  188SLPC   H4R21679   6.782   5.935   7.243 -0.1714 -0.0139  0.0312
  188SLPC   H4S21680   6.829   5.823   7.115 -1.5579 -3.1961 -0.4987
  188SLPC   C2521681   6.739   5.735   7.305  0.3477  0.4384  0.4351
  188SLPC   H5R21682   6.757   5.635   7.259  2.5567  1.4342 -1.0372
  188SLPC   H5S21683   6.641   5.737   7.357  1.6750 -0.8065  3.1981
  188SLPC   C2621684   6.837   5.763   7.422  0.1616  0.2251  0.1535
  188SLPC   H6R21685   6.830   5.872   7.443 -0.7809 -0.3159  3.2196
  188SLPC   H6S21686   6.936   5.739   7.377 -1.1595 -1.0103 -2.3131
  188SLPC   C2721687   6.808   5.689   7.558  0.1462  0.2064 -0.5183
  188SLPC   H7R21688   6.791   5.581   7.539 -0.9177  0.0646  1.0559
  188SLPC   H7S21689   6.705   5.713   7.591  0.7570  1.7712  0.3957
  188SLPC   C2821690   6.914   5.691   7.662  0.0651  0.0890  0.2782
  188SLPC   H8R21691   7.009   5.646   7.628 -0.2756  0.6288 -1.4683
  188SLPC   H8S21692   6.894   5.623   7.748 -0.1955 -0.8603 -0.5232
  188SLPC   C2921693   6.935   5.829   7.708 -0.3937  0.3932 -0.1566
  188SLPC   H9R21694   6.970   5.896   7.628 -0.1637  0.3452 -0.0950
  188SLPC  C21021695   6.932   5.872   7.839  0.2183  0.6432  0.8532
  188SLPC  H10R21696   6.946   5.980   7.854  0.8628  0.6510  0.2500
  188SLPC  C21121697   6.902   5.803   7.968  0.3493  0.1874 -0.1333
  188SLPC  H11R21698   6.955   5.844   8.056 -0.6634 -0.5133  0.8405
  188SLPC  H11S21699   6.949   5.702   7.973 -0.4757 -0.2645 -1.0104
  188SLPC  C21221700   6.757   5.778   7.981 -0.6022  0.3179  0.0674
  188SLPC  H12R21701   6.700   5.765   7.888  0.8921  0.9399 -0.9659
  188SLPC  C21321702   6.680   5.771   8.091 -0.0309  0.6602  0.3602
  188SLPC  H13R21703   6.582   5.721   8.079  1.3730 -2.9722  2.3118
  188SLPC  C21421704   6.734   5.798   8.232 -0.2771 -0.3732  0.3738
  188SLPC  H14R21705   6.675   5.883   8.271 -3.1591 -2.0357 -0.0721
  188SLPC  H14S21706   6.840   5.833   8.224  0.4729 -2.7628 -1.7305
  188SLPC  C21521707   6.731   5.673   8.321  0.0817  0.0153 -0.1684
  188SLPC  H15R21708   6.792   5.590   8.279 -0.3149 -0.8562  0.9226
  188SLPC  H15S21709   6.627   5.633   8.323 -0.6510  1.8406  0.4467
  188SLPC  C21621710   6.786   5.705   8.459 -0.1408  0.3857 -0.2171
  188SLPC  H16R21711   6.734   5.796   8.495  0.7904  1.5852 -1.7845
  188SLPC  H16S21712   6.895   5.723   8.458 -0.1199  0.2726 -0.0679
  188SLPC  C21721713   6.751   5.582   8.550  0.2672  0.1385  0.2070
  188SLPC  H17R21714   6.801   5.488   8.519  0.6012  0.0880  0.8744
  188SLPC  H17S21715   6.640   5.570   8.546  0.3013  0.2279 -2.3757
  188SLPC  C21821716   6.788   5.613   8.697  0.2157  0.2588 -0.3551
  188SLPC  H18R21717   6.899   5.614   8.706  0.0137 -0.0542  3.5672
  188SLPC  H18S21718   6.751   5.530   8.760 -0.3552  1.1186  0.4685
  188SLPC  H18T21719   6.749   5.714   8.723  1.2792  0.8658 -1.0250
  188SLPC   C3321720   6.960   6.372   7.264 -0.5176  0.4458  0.6570
  188SLPC   H3X21721   7.014   6.456   7.214  1.1488 -0.9416  0.0486
  188SLPC   H3Y21722   7.018   6.278   7.253 -0.8540  0.3121  0.0064
  188SLPC   C3421723   6.974   6.413   7.412 -0.1567 -1.0192 -0.4465
  188SLPC   H4X21724   6.935   6.517   7.420  3.0328  0.2595  0.0368
  188SLPC   H4Y21725   7.084   6.426   7.426 -0.5539  1.3734  1.1980
  188SLPC   C3521726   6.904   6.317   7.509 -0.4115 -0.9442 -0.2532
  188SLPC   H5X21727   6.927   6.216   7.467 -0.7696 -1.5221  0.8849
  188SLPC   H5Y21728   6.794   6.332   7.505 -0.3237  0.6320  1.5946
  188SLPC   C3621729   6.937   6.326   7.653 -0.4305  0.3850  0.3876
  188SLPC   H6X21730   6.848   6.283   7.704 -2.0267  0.2365 -2.3370
  188SLPC   H6Y21731   6.934   6.434   7.676 -2.1463  1.0938 -2.6617
  188SLPC   C3721732   7.078   6.259   7.683  0.4541  0.0500 -0.3296
  188SLPC   H7X21733   7.157   6.318   7.632 -0.4194  1.3439 -0.2538
  188SLPC   H7Y21734   7.085   6.161   7.632  1.3043  0.8779 -1.8736
  188SLPC   C3821735   7.100   6.247   7.835  0.4413  0.4303 -0.3709
  188SLPC   H8X21736   7.011   6.197   7.877  0.5890  0.3925 -0.0940
  188SLPC   H8Y21737   7.107   6.351   7.873  1.1972  0.6839 -1.1574
  188SLPC   C3921738   7.224   6.173   7.876 -0.2933  0.4571 -0.5681
  188SLPC   H9X21739   7.306   6.220   7.819 -1.3987  0.0177 -2.6066
  188SLPC   H9Y21740   7.206   6.066   7.852  1.4862  0.3190 -1.4011
  188SLPC  C31021741   7.256   6.173   8.026  0.6165  0.2826 -0.9412
  188SLPC  H10X21742   7.273   6.281   8.043 -1.5218  0.3568  1.2882
  188SLPC  H10Y21743   7.344   6.108   8.045 -0.7828 -1.9791 -1.7181
  188SLPC  C31121744   7.139   6.134   8.120 -0.3582  0.2240 -0.7359
  188SLPC  H11X21745   7.142   6.023   8.122 -0.5654  0.2229 -0.3721
  188SLPC  H11Y21746   7.042   6.161   8.073 -1.2323 -1.1469  0.1988
  188SLPC  C31221747   7.159   6.156   8.268 -0.6717 -0.0117  0.5288
  188SLPC  H12X21748   7.179   6.263   8.287  0.9623 -0.2840  0.4347
  188SLPC  H12Y21749   7.243   6.101   8.316 -0.4619  0.5320  0.7809
  188SLPC  C31321750   7.031   6.115   8.349 -0.2315 -0.7097  0.2626
  188SLPC  H13X21751   7.031   6.004   8.338 -0.3654 -0.8908  1.8455
  188SLPC  H13Y21752   6.935   6.148   8.302 -0.1131 -0.8846 -0.1105
  188SLPC  C31421753   7.048   6.159   8.491  0.0401 -0.0954  1.2741
  188SLPC  H14X21754   7.018   6.266   8.497  1.5021  0.3859  0.4621
  188SLPC  H14Y21755   7.155   6.155   8.524  0.2502 -1.1291  0.5150
  188SLPC  C31521756   6.971   6.063   8.577 -0.1965  0.8521 -0.0036
  188SLPC  H15X21757   6.985   5.958   8.542  3.2300  1.4480 -0.7594
  188SLPC  H15Y21758   6.864   6.095   8.580 -0.4813 -0.1505  1.3497
  188SLPC  C31621759   7.027   6.068   8.721  0.4667  0.4566 -0.5945
  188SLPC  H16X21760   7.058   6.162   8.770  0.0185  0.1438  0.3176
  188SLPC  H16Y21761   7.112   6.000   8.745 -2.4425 -2.8807  1.1442
  188SLPC  C31721762   6.916   6.032   8.824 -0.8945  0.3336 -1.1296
  188SLPC  H17X21763   6.904   5.922   8.819 -3.3219  0.4655  0.3316
  188SLPC  H17Y21764   6.817   6.077   8.800 -1.5001 -1.4271 -2.1424
  188SLPC  C31821765   6.960   6.082   8.967 -0.1023  0.1103 -0.5381
  188SLPC  H18X21766   7.045   6.027   9.014 -1.0818  0.9889  2.4724
  188SLPC  H18Y21767   6.883   6.079   9.048  1.2831 -2.0243  0.7947
  188SLPC  H18Z21768   6.984   6.190   8.958 -1.4902  0.7565  2.3120
  189SLPC     N21769   0.801   1.858   6.370  0.5864  0.1607 -0.5870
  189SLPC   C1321770   0.884   1.763   6.451 -0.6784  0.6526  0.0614
  189SLPC  H13A21771   0.978   1.810   6.476 -1.0196  1.3615  0.0420
  189SLPC  H13B21772   0.834   1.735   6.543 -0.8868  1.5368  0.2264
  189SLPC  H13C21773   0.901   1.669   6.401  2.2031  1.9877 -1.7433
  189SLPC   C1421774   0.664   1.798   6.351  0.4817 -0.0651 -0.5083
  189SLPC  H14A21775   0.663   1.706   6.295  0.9060 -0.0513 -0.5410
  189SLPC  H14B21776   0.616   1.783   6.447 -2.3698 -1.3968 -2.0284
  189SLPC  H14C21777   0.601   1.867   6.296 -0.4667  0.0433  0.6841
  189SLPC   C1521778   0.868   1.870   6.242  0.0648  0.3045  0.3598
  189SLPC  H15A21779   0.971   1.902   6.256  0.8145 -1.7529 -0.0704
  189SLPC  H15B21780   0.869   1.774   6.191 -1.2270  0.7749 -0.5888
  189SLPC  H15C21781   0.818   1.942   6.179 -0.0298  0.0437  0.1360
  189SLPC   C1221782   0.787   1.985   6.446  0.0823  0.4254 -0.8735
  189SLPC  H12A21783   0.886   2.014   6.478  0.0019  1.3728 -1.4439
  189SLPC  H12B21784   0.734   1.962   6.538  1.6085  0.4784  0.0612
  189SLPC   C1121785   0.705   2.106   6.382 -0.0467  0.1310  0.2079
  189SLPC  H11A21786   0.776   2.149   6.308  0.5855  1.4479  1.5238
  189SLPC  H11B21787   0.708   2.184   6.461  3.0827  1.0452 -0.6726
  189SLPC     P21788   0.454   2.164   6.371  0.0006  0.1011  0.1779
  189SLPC   O1321789   0.466   2.303   6.321  0.0933 -0.2024  0.3798
  189SLPC   O1421790   0.330   2.088   6.328  0.2121  0.2642  0.2852
  189SLPC   O1221791   0.580   2.080   6.331  0.0834  0.2405  0.1011
  189SLPC   O1121792   0.461   2.165   6.532  0.1154  0.0562 -0.0803
  189SLPC    C121793   0.459   2.031   6.590  1.3263 -0.3839  0.1694
  189SLPC    HA21794   0.368   1.976   6.561  1.6515  0.3053 -2.4096
  189SLPC    HB21795   0.549   1.969   6.568  1.6984  0.1739  0.0848
  189SLPC    C221796   0.445   2.044   6.742 -0.9096 -0.1694  0.9408
  189SLPC    HS21797   0.546   2.065   6.783 -0.9757 -1.1877  1.6798
  189SLPC   O2121798   0.405   1.919   6.795 -0.0510  0.0118  0.7534
  189SLPC   C2121799   0.501   1.819   6.784 -0.1580 -0.3513  0.4342
  189SLPC   O2221800   0.616   1.834   6.749  0.2207 -0.3048  0.0711
  189SLPC   C2221801   0.435   1.687   6.833 -0.5358 -0.3121 -0.2905
  189SLPC   H2R21802   0.334   1.684   6.787 -0.5859  1.5916 -0.3962
  189SLPC   H2S21803   0.492   1.598   6.801 -0.0002  0.7571 -2.4955
  189SLPC    C321804   0.331   2.147   6.771 -0.8518 -1.0442 -0.4492
  189SLPC    HX21805   0.236   2.127   6.717 -1.2345  1.4712 -0.8291
  189SLPC    HY21806   0.349   2.251   6.735 -4.6743 -0.0136  0.1045
  189SLPC   O3121807   0.305   2.157   6.916  0.4436  0.2491  0.2687
  189SLPC   C3121808   0.201   2.232   6.948  0.4582  0.1257  0.3941
  189SLPC   O3221809   0.143   2.308   6.872 -0.1734  0.5227  0.2369
  189SLPC   C3221810   0.153   2.193   7.096  0.1357  0.0510  1.0474
  189SLPC   H2X21811   0.069   2.126   7.068  0.8723 -0.1947 -0.7424
  189SLPC   H2Y21812   0.121   2.285   7.149  2.0892  1.4315 -0.0281
  189SLPC   C2321813   0.403   1.693   6.989  0.5684 -0.2579  0.1353
  189SLPC   H3R21814   0.354   1.790   7.009 -1.0407 -0.9231 -0.4574
  189SLPC   H3S21815   0.496   1.696   7.049 -0.6496  3.8155  2.1757
  189SLPC   C2421816   0.301   1.583   7.012  0.4227 -0.2039  0.0708
  189SLPC   H4R21817   0.341   1.484   6.982 -0.7324  0.5159 -4.6339
  189SLPC   H4S21818   0.222   1.597   6.935  1.0449 -0.7911 -0.6948
  189SLPC   C2521819   0.252   1.588   7.148 -0.5705 -0.5377 -0.2993
  189SLPC   H5R21820   0.145   1.558   7.155 -0.9528  0.6705 -0.5816
  189SLPC   H5S21821   0.247   1.694   7.184 -0.3917 -0.0344 -1.6845
  189SLPC   C2621822   0.349   1.523   7.257 -0.5532  0.6015 -0.1703
  189SLPC   H6R21823   0.430   1.595   7.284 -1.0628  1.3019 -0.4616
  189SLPC   H6S21824   0.400   1.430   7.228 -4.1153 -3.0854  3.8660
  189SLPC   C2721825   0.283   1.488   7.392  0.1401  0.5496  0.6859
  189SLPC   H7R21826   0.363   1.446   7.457 -0.1492  0.5130  1.0222
  189SLPC   H7S21827   0.208   1.406   7.384  2.0706 -1.3244  0.9435
  189SLPC   C2821828   0.230   1.622   7.460  0.3978  0.7864  0.4327
  189SLPC   H8R21829   0.174   1.693   7.396 -0.7383  0.2807  0.8407
  189SLPC   H8S21830   0.324   1.673   7.491  0.9969  0.3184 -0.5647
  189SLPC   C2921831   0.149   1.583   7.582 -0.1781 -0.1569 -0.5363
  189SLPC   H9R21832   0.041   1.581   7.563 -0.2366  1.0072 -0.4436
  189SLPC  C21021833   0.201   1.560   7.705  0.8665 -0.7536 -0.2301
  189SLPC  H10R21834   0.128   1.530   7.782  1.5756  1.8455  1.5967
  189SLPC  C21121835   0.342   1.567   7.751 -0.0748  0.1009  0.9487
  189SLPC  H11R21836   0.407   1.533   7.668  1.2794  0.8385  1.6790
  189SLPC  H11S21837   0.367   1.498   7.834 -1.1565 -0.0294  1.1828
  189SLPC  C21221838   0.373   1.707   7.805 -0.1490  0.4930 -0.0958
  189SLPC  H12R21839   0.424   1.769   7.730  1.8762  0.2429  0.9906
  189SLPC  C21321840   0.343   1.753   7.927 -0.5367 -0.5362 -0.0491
  189SLPC  H13R21841   0.379   1.852   7.957 -0.8120 -0.0953 -1.0976
  189SLPC  C21421842   0.273   1.682   8.042 -0.2655  0.2560 -0.3054
  189SLPC  H14R21843   0.222   1.590   8.005 -0.9656  1.3964 -2.3595
  189SLPC  H14S21844   0.180   1.733   8.076 -0.3883 -0.1203 -0.0652
  189SLPC  C21521845   0.368   1.661   8.156  0.1748 -0.0043 -0.3561
  189SLPC  H15R21846   0.460   1.614   8.116  0.4536 -0.4167  0.7266
  189SLPC  H15S21847   0.326   1.589   8.229 -1.2911 -2.1380 -3.1259
  189SLPC  C21621848   0.393   1.788   8.241 -0.1210  0.3782  0.2768
  189SLPC  H16R21849   0.295   1.800   8.294 -0.1764 -0.5958  0.4140
  189SLPC  H16S21850   0.404   1.872   8.169 -0.7539 -0.5135 -0.8970
  189SLPC  C21721851   0.511   1.790   8.342 -0.2251  0.6813 -0.8298
  189SLPC  H17R21852   0.607   1.782   8.286 -0.5550  0.9775 -1.4417
  189SLPC  H17S21853   0.514   1.701   8.410 -0.0176  1.4330  0.1678
  189SLPC  C21821854   0.517   1.912   8.435 -0.4604 -0.3689 -0.2082
  189SLPC  H18R21855   0.535   2.002   8.372 -0.3471  0.8998  1.5517
  189SLPC  H18S21856   0.595   1.893   8.512 -0.3958 -0.8545 -0.3908
  189SLPC  H18T21857   0.415   1.919   8.478 -0.5606 -0.5313 -0.4232
  189SLPC   C3321858   0.263   2.115   7.170  0.1132 -0.4666  0.1009
  189SLPC   H3X21859   0.352   2.181   7.166 -0.7179  0.7014  0.3395
  189SLPC   H3Y21860   0.287   2.031   7.102  0.5593  0.4436 -0.8944
  189SLPC   C3421861   0.221   2.073   7.309  0.0854  0.5596  0.0648
  189SLPC   H4X21862   0.166   1.977   7.299  0.5760  0.3766 -1.1022
  189SLPC   H4Y21863   0.162   2.156   7.354 -0.5959 -1.4156  3.1077
  189SLPC   C3521864   0.343   2.048   7.399 -0.1866 -0.5432  0.3101
  189SLPC   H5X21865   0.389   2.149   7.398 -0.7596 -0.2146  2.5188
  189SLPC   H5Y21866   0.416   1.984   7.345  1.0019  1.4034 -0.4862
  189SLPC   C3621867   0.323   2.004   7.544 -0.1543 -0.3203  0.7125
  189SLPC   H6X21868   0.422   1.991   7.593 -0.8270  0.8435  2.4986
  189SLPC   H6Y21869   0.270   1.907   7.538 -1.5297  0.2753  2.4397
  189SLPC   C3721870   0.247   2.102   7.626  0.5514  0.0056 -0.0205
  189SLPC   H7X21871   0.138   2.109   7.605 -0.1138 -0.8861  2.7094
  189SLPC   H7Y21872   0.290   2.198   7.590 -1.3779  0.2506 -1.8856
  189SLPC   C3821873   0.271   2.087   7.778  0.2502  0.2098  0.3526
  189SLPC   H8X21874   0.380   2.092   7.801  0.2353  0.3548  0.3891
  189SLPC   H8Y21875   0.232   1.985   7.801 -4.9721  1.6434 -0.7571
  189SLPC   C3921876   0.202   2.192   7.861  1.1578 -0.5369 -0.6207
  189SLPC   H9X21877   0.100   2.213   7.821  1.3605  0.9049 -0.4502
  189SLPC   H9Y21878   0.255   2.287   7.841 -1.6560  1.3248  0.0900
  189SLPC  C31021879   0.192   2.155   8.011 -0.8913  0.2611 -0.7010
  189SLPC  H10X21880   0.297   2.126   8.038 -1.3538 -1.4641 -0.6046
  189SLPC  H10Y21881   0.128   2.067   8.033 -3.5820  2.1931 -0.3983
  189SLPC  C31121882   0.136   2.264   8.100 -0.4244 -0.8079 -0.2648
  189SLPC  H11X21883   0.026   2.279   8.089 -0.3684 -0.8204 -0.8665
  189SLPC  H11Y21884   0.195   2.357   8.085  2.2262 -2.3402  0.0194
  189SLPC  C31221885   0.137   2.227   8.248 -0.2782  0.1633 -0.3881
  189SLPC  H12X21886   0.078   2.135   8.269  1.0483 -0.2686  1.6371
  189SLPC  H12Y21887   0.091   2.314   8.300 -0.6151 -0.0686 -0.2908
  189SLPC  C31321888   0.280   2.209   8.297  0.0349 -0.0331 -0.1181
  189SLPC  H13X21889   0.349   2.295   8.282 -3.0430  2.7583  0.5416
  189SLPC  H13Y21890   0.316   2.110   8.263 -0.4626 -1.7563  3.8958
  189SLPC  C31421891   0.276   2.181   8.453 -0.0865 -0.0038 -0.4967
  189SLPC  H14X21892   0.244   2.274   8.504  0.8937  0.1628 -0.1726
  189SLPC  H14Y21893   0.381   2.159   8.479 -0.4615 -3.2487 -1.2424
  189SLPC  C31521894   0.184   2.071   8.499  0.1724  0.5096 -0.2423
  189SLPC  H15X21895   0.177   1.987   8.427 -2.3444  1.6384 -1.4409
  189SLPC  H15Y21896   0.083   2.117   8.493 -0.6737 -1.0387  1.3402
  189SLPC  C31621897   0.203   2.033   8.641  0.1602 -0.4303 -0.2916
  189SLPC  H16X21898   0.176   2.122   8.702  0.7696 -0.2833 -0.2254
  189SLPC  H16Y21899   0.313   2.025   8.657 -0.0663 -0.1520  1.7749
  189SLPC  C31721900   0.116   1.910   8.686 -0.3264 -0.1330  0.0663
  189SLPC  H17X21901   0.142   1.821   8.626 -0.5755  0.8943 -1.6574
  189SLPC  H17Y21902   0.013   1.937   8.652  0.1945  0.7691 -0.8640
  189SLPC  C31821903   0.107   1.890   8.833  0.6679  0.2914 -0.5423
  189SLPC  H18X21904   0.196   1.829   8.861  1.1118  0.1458 -2.1716
  189SLPC  H18Y21905   0.015   1.830   8.854 -0.0088  1.6965  0.6406
  189SLPC  H18Z21906   0.117   1.980   8.898 -2.9132  1.1469 -0.9529
  190SLPC     N21907   5.223   0.609   6.159 -0.4240  0.2329 -0.2381
  190SLPC   C1321908   5.177   0.548   6.290  0.4874 -0.2598  1.1168
  190SLPC  H13A21909   5.104   0.475   6.257  0.9870 -0.8937  1.3951
  190SLPC  H13B21910   5.259   0.501   6.342  1.4069 -0.5545 -0.5190
  190SLPC  H13C21911   5.139   0.630   6.349 -0.3955  0.7764 -0.7801
  190SLPC   C1421912   5.111   0.626   6.066  0.5319 -0.5491  0.4410
  190SLPC  H14A21913   5.143   0.646   5.965  0.5920 -0.2622  0.5146
  190SLPC  H14B21914   5.047   0.539   6.067  1.2677 -1.1183  2.4211
  190SLPC  H14C21915   5.053   0.711   6.097  0.5881  0.2095 -1.4261
  190SLPC   C1521916   5.314   0.508   6.096 -0.4618  0.0453  0.1174
  190SLPC  H15A21917   5.348   0.529   5.995  1.1502 -2.8459 -0.0688
  190SLPC  H15B21918   5.402   0.502   6.157  0.3156 -2.0421 -1.0827
  190SLPC  H15C21919   5.255   0.417   6.097 -1.6392  0.7592 -0.9230
  190SLPC   C1221920   5.303   0.734   6.183 -0.3721 -1.3653 -0.0492
  190SLPC  H12A21921   5.232   0.810   6.212 -1.5996 -1.6805 -2.0016
  190SLPC  H12B21922   5.348   0.765   6.090 -1.8675 -0.2134 -0.4361
  190SLPC   C1121923   5.416   0.744   6.291  0.0746 -0.1858 -0.0241
  190SLPC  H11A21924   5.363   0.732   6.388 -0.1445 -1.4252 -0.2755
  190SLPC  H11B21925   5.472   0.840   6.288 -0.4274  0.1653  1.1054
  190SLPC     P21926   5.630   0.616   6.363  0.3708  0.1946  0.2304
  190SLPC   O1321927   5.704   0.490   6.326  0.7870 -0.0747  0.1137
  190SLPC   O1421928   5.707   0.742   6.355 -0.6015  0.0326 -0.3060
  190SLPC   O1221929   5.498   0.630   6.273  0.4610  0.5369 -0.0167
  190SLPC   O1121930   5.568   0.609   6.506 -0.4047  0.4380  0.7028
  190SLPC    C121931   5.633   0.564   6.625  0.7904  0.3000  0.0490
  190SLPC    HA21932   5.558   0.530   6.699 -0.1350 -0.1565 -1.0547
  190SLPC    HB21933   5.696   0.473   6.611 -1.1447 -1.2639  0.8748
  190SLPC    C221934   5.719   0.669   6.702  0.7211 -0.1576  0.1762
  190SLPC    HS21935   5.805   0.690   6.634  0.0860 -0.7163 -0.8294
  190SLPC   O2121936   5.755   0.616   6.828 -0.1280 -0.2029 -0.6876
  190SLPC   C2121937   5.873   0.655   6.869 -0.2870 -0.6339 -0.1241
  190SLPC   O2221938   5.947   0.727   6.801  0.4771 -0.7124  0.0225
  190SLPC   C2221939   5.906   0.593   7.008  0.3262 -0.4969  0.4514
  190SLPC   H2R21940   5.817   0.561   7.067  0.8052  0.4518  1.7430
  190SLPC   H2S21941   5.958   0.500   6.979 -1.2406 -0.6238 -2.1921
  190SLPC    C321942   5.645   0.803   6.727  0.4866  0.5623  0.6872
  190SLPC    HX21943   5.633   0.837   6.622 -2.0776 -2.8366 -0.3206
  190SLPC    HY21944   5.712   0.866   6.790  2.6984  1.6654 -2.5240
  190SLPC   O3121945   5.508   0.776   6.783  0.5641 -0.0641  0.2003
  190SLPC   C3121946   5.407   0.860   6.747 -0.5599  0.5232  0.1289
  190SLPC   O3221947   5.411   0.935   6.652  0.2339  0.1573 -0.5215
  190SLPC   C3221948   5.286   0.830   6.832 -0.2466  0.3697  0.0811
  190SLPC   H2X21949   5.310   0.847   6.939  0.6312  1.4892 -0.2799
  190SLPC   H2Y21950   5.236   0.732   6.816  0.3932 -0.0400  0.5483
  190SLPC   C2321951   5.995   0.690   7.095 -0.2996  0.2952 -0.5078
  190SLPC   H3R21952   5.952   0.792   7.095  1.6299  1.1567  0.3120
  190SLPC   H3S21953   6.098   0.699   7.053  1.7401 -2.9383  3.1515
  190SLPC   C2421954   6.005   0.652   7.244  0.2350 -0.4577  0.5942
  190SLPC   H4R21955   5.902   0.645   7.287  0.1449 -3.5906  0.1389
  190SLPC   H4S21956   6.079   0.707   7.306 -1.9654  0.4625  2.5845
  190SLPC   C2521957   6.070   0.517   7.268  0.3854  0.3195  0.3498
  190SLPC   H5R21958   6.181   0.526   7.260  0.4434 -0.6242 -0.0571
  190SLPC   H5S21959   6.034   0.452   7.185  0.0850  0.4128  0.4085
  190SLPC   C2621960   6.049   0.461   7.412 -0.3364 -0.1703 -0.6073
  190SLPC   H6R21961   6.087   0.357   7.420 -1.8517 -0.8594 -1.7193
  190SLPC   H6S21962   5.942   0.467   7.441 -0.3993 -0.2939 -0.8099
  190SLPC   C2721963   6.121   0.543   7.518 -0.7693  0.4450 -0.0363
  190SLPC   H7R21964   6.078   0.644   7.535 -0.5624  0.5534 -0.1495
  190SLPC   H7S21965   6.217   0.580   7.477 -1.0478 -0.8587 -2.0012
  190SLPC   C2821966   6.141   0.463   7.656 -0.0538  0.1122  0.1286
  190SLPC   H8R21967   6.235   0.492   7.707  0.5824  0.7600 -1.3411
  190SLPC   H8S21968   6.149   0.356   7.630  0.1937  0.0853  0.3195
  190SLPC   C2921969   6.019   0.497   7.737 -0.5218  0.0991 -0.1067
  190SLPC   H9R21970   5.926   0.445   7.712 -0.7512 -0.2559  1.4006
  190SLPC  C21021971   6.018   0.576   7.841 -0.1635  0.4288  0.0018
  190SLPC  H10R21972   5.923   0.586   7.895 -1.4525 -1.9950 -1.6695
  190SLPC  C21121973   6.140   0.647   7.897  0.1473 -0.3405 -0.2650
  190SLPC  H11R21974   6.170   0.737   7.840  2.0094 -1.2104 -0.7526
  190SLPC  H11S21975   6.234   0.588   7.898  0.3139 -0.1090 -1.2915
  190SLPC  C21221976   6.118   0.690   8.042 -0.7764  0.5149  0.0464
  190SLPC  H12R21977   6.049   0.776   8.045 -0.9390  0.3880  3.1059
  190SLPC  C21321978   6.175   0.651   8.156  0.1667 -0.6261 -0.1411
  190SLPC  H13R21979   6.151   0.704   8.250  5.7090  1.8762  0.2438
  190SLPC  C21421980   6.283   0.544   8.161 -0.4224  0.3110 -1.0111
  190SLPC  H14R21981   6.349   0.562   8.249 -1.4692 -0.2424 -0.0909
  190SLPC  H14S21982   6.349   0.532   8.073 -1.7488 -0.9266 -1.8653
  190SLPC  C21521983   6.221   0.411   8.191 -0.2561  0.4141 -0.1359
  190SLPC  H15R21984   6.302   0.338   8.173 -0.4870 -0.7405  2.9444
  190SLPC  H15S21985   6.133   0.389   8.126 -1.5194  4.2723 -0.0419
  190SLPC  C21621986   6.182   0.396   8.341 -0.0162  0.0349  0.8634
  190SLPC  H16R21987   6.092   0.461   8.346  0.0883  0.4397 -1.5519
  190SLPC  H16S21988   6.267   0.431   8.405  0.8458  0.5016 -0.4905
  190SLPC  C21721989   6.128   0.257   8.373 -0.5776  0.1427 -0.0900
  190SLPC  H17R21990   6.036   0.234   8.315  0.7362 -1.9031 -1.5339
  190SLPC  H17S21991   6.096   0.255   8.479 -0.5632  2.1562 -0.0184
  190SLPC  C21821992   6.230   0.146   8.358 -0.3744 -0.6844 -0.4935
  190SLPC  H18R21993   6.321   0.168   8.418 -1.6777  1.4492  0.8427
  190SLPC  H18S21994   6.267   0.117   8.257  0.5479 -2.2523  0.2476
  190SLPC  H18T21995   6.187   0.051   8.397  0.6883  0.2036  3.1671
  190SLPC   C3321996   5.166   0.928   6.833 -0.2400  0.2501 -0.2342
  190SLPC   H3X21997   5.073   0.873   6.857 -1.6004  2.5057 -0.0992
  190SLPC   H3Y21998   5.146   0.978   6.735  2.1383  2.3463  0.2493
  190SLPC   C3421999   5.188   1.040   6.935  0.2277  0.0961  0.2433
  190SLPC   H4X22000   5.283   1.087   6.903 -0.1244  3.3278  3.2314
  190SLPC   H4Y22001   5.199   0.989   7.033 -0.9402 -4.3146 -1.6657
  190SLPC   C3522002   5.067   1.144   6.941 -0.2295  0.5032  0.5744
  190SLPC   H5X22003   4.973   1.096   6.975 -1.1666  0.9075 -1.2895
  190SLPC   H5Y22004   5.054   1.167   6.833  2.2318  2.1667  0.5397
  190SLPC   C3622005   5.110   1.267   7.020 -0.1402 -0.5141  0.2294
  190SLPC   H6X22006   5.051   1.355   6.988  1.3885  0.2567 -0.5867
  190SLPC   H6Y22007   5.216   1.292   6.998  0.0615 -0.9180  0.7282
  190SLPC   C3722008   5.113   1.248   7.174 -0.3650 -0.2084 -0.2520
  190SLPC   H7X22009   5.177   1.164   7.210  1.1989  1.5068  1.1966
  190SLPC   H7Y22010   5.010   1.222   7.207  0.0385 -0.1087  1.1445
  190SLPC   C3822011   5.160   1.373   7.251  0.1616 -0.5487  0.0110
  190SLPC   H8X22012   5.093   1.441   7.194  1.2370 -0.5285 -1.2782
  190SLPC   H8Y22013   5.263   1.409   7.231  0.5124 -1.0077  0.9392
  190SLPC   C3922014   5.118   1.361   7.402  0.1305  0.6132  0.0895
  190SLPC   H9X22015   5.008   1.354   7.393  0.1363  1.3431 -0.6537
  190SLPC   H9Y22016   5.135   1.449   7.468  1.5411  2.1652 -2.1958
  190SLPC  C31022017   5.156   1.230   7.472 -0.1708  0.5331  0.0930
  190SLPC  H10X22018   5.266   1.220   7.464 -0.4330 -2.7877 -1.1348
  190SLPC  H10Y22019   5.105   1.146   7.420  0.6753 -1.0947  1.7884
  190SLPC  C31122020   5.118   1.232   7.626 -0.0667 -0.0542  0.0136
  190SLPC  H11X22021   5.010   1.249   7.643  0.2630  0.4777  1.7450
  190SLPC  H11Y22022   5.177   1.314   7.672 -1.6190 -0.1600  2.3478
  190SLPC  C31222023   5.153   1.103   7.698 -0.0625 -0.2140  0.6252
  190SLPC  H12X22024   5.264   1.091   7.691  0.2277  2.2965 -0.1484
  190SLPC  H12Y22025   5.119   1.018   7.635 -2.0146  0.9806 -0.0264
  190SLPC  C31322026   5.100   1.092   7.839 -0.4035 -0.5818 -0.2541
  190SLPC  H13X22027   5.134   0.997   7.885  1.2971  1.7935  3.9346
  190SLPC  H13Y22028   4.992   1.084   7.817 -0.5610  0.2435  0.1660
  190SLPC  C31422029   5.120   1.216   7.929 -0.1910 -0.0446  0.4627
  190SLPC  H14X22030   5.052   1.283   7.873 -2.0512 -1.9955  0.2701
  190SLPC  H14Y22031   5.226   1.249   7.930 -0.7119  1.7442  1.6676
  190SLPC  C31522032   5.065   1.191   8.069 -0.1770 -0.6523 -0.4864
  190SLPC  H15X22033   4.961   1.154   8.064 -0.1197 -0.8042 -0.5507
  190SLPC  H15Y22034   5.063   1.292   8.116  1.4578 -1.0448  0.5215
  190SLPC  C31622035   5.135   1.088   8.163 -0.4114  0.3551  0.4875
  190SLPC  H16X22036   5.224   1.131   8.213 -2.1070  2.4330  1.9251
  190SLPC  H16Y22037   5.175   1.011   8.093 -2.0844 -0.7570  0.6781
  190SLPC  C31722038   5.054   1.003   8.261 -0.2825  0.1443  0.2957
  190SLPC  H17X22039   5.125   0.920   8.283  0.6950  0.4457 -1.4854
  190SLPC  H17Y22040   4.967   0.956   8.212  2.1655 -0.0626 -4.4492
  190SLPC  C31822041   5.034   1.073   8.396  0.1489  0.5920 -0.4897
  190SLPC  H18X22042   5.125   1.119   8.440 -1.6309  0.2765  4.1498
  190SLPC  H18Y22043   4.995   0.999   8.469  0.1408  2.0098  0.9950
  190SLPC  H18Z22044   4.955   1.151   8.395 -1.1040 -0.6435 -0.5216
  191SLPC     N22045   3.884   1.412   5.881 -1.3457  0.1287  0.1291
  191SLPC   C1322046   3.837   1.520   5.790 -0.0085  0.2765  0.7335
  191SLPC  H13A22047   3.922   1.558   5.735  1.0644  0.3247  2.3577
  191SLPC  H13B22048   3.762   1.479   5.723  2.1894 -2.1724 -0.3911
  191SLPC  H13C22049   3.793   1.601   5.847  0.0864  2.0960 -1.6098
  191SLPC   C1422050   3.995   1.472   5.963  0.0448  0.2548  0.1596
  191SLPC  H14A22051   3.966   1.536   6.045  0.1492 -0.8434  1.0652
  191SLPC  H14B22052   4.044   1.392   6.016  1.0655  0.8967  0.2216
  191SLPC  H14C22053   4.066   1.533   5.909  0.6989 -0.0015  0.7141
  191SLPC   C1522054   3.948   1.307   5.798 -0.6192  0.1964 -0.0746
  191SLPC  H15A22055   3.990   1.229   5.859  0.8049  0.2927 -0.8972
  191SLPC  H15B22056   3.881   1.246   5.738  0.3357 -0.5120 -0.4480
  191SLPC  H15C22057   4.034   1.346   5.746 -0.7737 -0.9180 -1.2053
  191SLPC   C1222058   3.786   1.360   5.981  0.1819 -0.9651 -0.4818
  191SLPC  H12A22059   3.698   1.327   5.928 -0.4074  2.3288 -1.7997
  191SLPC  H12B22060   3.753   1.444   6.040 -0.8514 -1.4758 -0.2894
  191SLPC   C1122061   3.833   1.249   6.077 -0.3038 -0.4136 -0.0070
  191SLPC  H11A22062   3.767   1.236   6.166  0.1100 -2.3472  0.0672
  191SLPC  H11B22063   3.930   1.283   6.118 -0.8408  1.0350  0.1113
  191SLPC     P22064   3.725   1.059   5.939  0.1374  0.3562 -0.4838
  191SLPC   O1322065   3.663   1.150   5.839 -0.4562 -0.4012 -0.4230
  191SLPC   O1422066   3.770   0.925   5.894 -0.1965 -0.3812  0.0842
  191SLPC   O1222067   3.847   1.126   6.012 -0.1633  0.3414  0.0818
  191SLPC   O1122068   3.611   1.044   6.048  0.2708 -0.3435  0.0035
  191SLPC    C122069   3.600   0.930   6.136 -0.6210 -0.5390 -0.7679
  191SLPC    HA22070   3.505   0.875   6.117 -0.1002 -1.5033 -0.6100
  191SLPC    HB22071   3.691   0.867   6.132  0.3443  0.6565  1.0664
  191SLPC    C222072   3.588   0.978   6.285  0.8374  0.4488  0.3542
  191SLPC    HS22073   3.489   1.029   6.293  0.1494 -0.9460  1.0761
  191SLPC   O2122074   3.712   1.049   6.329 -0.4349  0.0948 -0.0561
  191SLPC   C2122075   3.686   1.155   6.405  0.9508 -0.0369 -0.4869
  191SLPC   O2222076   3.578   1.213   6.422 -0.4150  0.3026 -0.3152
  191SLPC   C2222077   3.813   1.214   6.459  0.5713  0.5501 -0.1080
  191SLPC   H2R22078   3.876   1.244   6.373 -0.6144  2.8115 -0.2638
  191SLPC   H2S22079   3.783   1.311   6.503  2.5127  1.9741 -1.7376
  191SLPC    C322080   3.571   0.853   6.374 -0.4404  0.6067 -0.9837
  191SLPC    HX22081   3.665   0.795   6.382  0.1091  1.5404 -0.4881
  191SLPC    HY22082   3.501   0.777   6.332 -0.2542 -0.9800  1.3130
  191SLPC   O3122083   3.537   0.888   6.511 -0.5877  0.1353  0.3360
  191SLPC   C3122084   3.463   0.808   6.586  0.2101  0.9736  0.5634
  191SLPC   O3222085   3.438   0.690   6.561 -0.1516 -0.0719 -0.2380
  191SLPC   C3222086   3.411   0.879   6.710  0.2790 -0.0505 -0.5752
  191SLPC   H2X22087   3.343   0.956   6.670 -0.1374  0.2730  0.7059
  191SLPC   H2Y22088   3.498   0.924   6.764 -0.6497  1.1723 -0.0547
  191SLPC   C2322089   3.872   1.128   6.577  0.6742 -0.2617 -0.5225
  191SLPC   H3R22090   3.959   1.180   6.622  0.5196  0.5408 -1.1199
  191SLPC   H3S22091   3.919   1.034   6.542 -0.4704 -0.0366 -2.8361
  191SLPC   C2422092   3.780   1.092   6.701 -0.5794  0.7765  0.2129
  191SLPC   H4R22093   3.704   1.015   6.679 -1.3081  2.0330 -2.0323
  191SLPC   H4S22094   3.717   1.179   6.730 -0.2458  0.4445  2.0477
  191SLPC   C2522095   3.864   1.050   6.827  0.0790 -0.2781 -0.2121
  191SLPC   H5R22096   3.914   1.137   6.875 -0.1533  0.3906 -1.1532
  191SLPC   H5S22097   3.942   0.975   6.802  2.3451  1.9879 -0.3178
  191SLPC   C2622098   3.779   1.006   6.951 -0.4992  0.7722 -0.3043
  191SLPC   H6R22099   3.723   0.918   6.913  0.1030  0.1497  0.2160
  191SLPC   H6S22100   3.707   1.089   6.968 -1.7649 -0.3647 -0.0101
  191SLPC   C2722101   3.861   0.986   7.084 -0.3406 -0.2715  0.2961
  191SLPC   H7R22102   3.794   0.954   7.167 -0.4535  0.8775  0.6685
  191SLPC   H7S22103   3.910   1.076   7.127  0.6915 -1.9374  2.8422
  191SLPC   C2822104   3.972   0.885   7.079 -0.3713  0.1736 -0.2683
  191SLPC   H8R22105   4.037   0.903   7.167 -1.4452  0.8116  0.4208
  191SLPC   H8S22106   4.037   0.913   6.994  0.6106  1.5742  0.9149
  191SLPC   C2922107   3.918   0.739   7.081 -0.0495 -0.2003 -0.2601
  191SLPC   H9R22108   3.879   0.706   6.983  1.2665 -1.7337 -0.3008
  191SLPC  C21022109   3.918   0.652   7.180 -0.5121  0.0785  0.3810
  191SLPC  H10R22110   3.880   0.551   7.162 -0.2281 -0.0347  0.4085
  191SLPC  C21122111   3.964   0.677   7.321  0.2268  0.2774 -0.3690
  191SLPC  H11R22112   4.034   0.763   7.322 -0.1828  0.6569 -1.8274
  191SLPC  H11S22113   4.025   0.591   7.355 -0.6214  0.2937  1.2772
  191SLPC  C21222114   3.846   0.684   7.418 -0.5468 -0.1703  0.0718
  191SLPC  H12R22115   3.765   0.613   7.402  0.8097 -1.3660 -1.9972
  191SLPC  C21322116   3.847   0.767   7.527 -0.9191  1.2471 -0.7043
  191SLPC  H13R22117   3.762   0.771   7.597  0.4399 -1.4609  1.3158
  191SLPC  C21422118   3.966   0.852   7.573  0.1580  1.0467  0.0258
  191SLPC  H14R22119   4.064   0.819   7.533  1.6077  3.5158  1.3126
  191SLPC  H14S22120   3.966   0.842   7.684 -0.1522 -1.7130 -0.1447
  191SLPC  C21522121   3.958   1.001   7.530 -0.7550 -0.3136  0.5899
  191SLPC  H15R22122   3.869   1.055   7.569 -0.5338 -0.1222  0.8318
  191SLPC  H15S22123   3.957   1.003   7.419 -0.7771  0.1174  0.5968
  191SLPC  C21622124   4.075   1.098   7.572 -0.4848  0.5474 -0.1091
  191SLPC  H16R22125   4.085   1.069   7.678 -0.3139 -0.7099 -0.4474
  191SLPC  H16S22126   4.039   1.202   7.583 -1.8673 -0.0328  1.1711
  191SLPC  C21722127   4.215   1.077   7.508 -0.6943 -0.1629  0.5295
  191SLPC  H17R22128   4.194   1.059   7.400 -1.0245 -0.1344  0.5877
  191SLPC  H17S22129   4.262   0.979   7.534  2.3617  1.1272  0.3657
  191SLPC  C21822130   4.318   1.193   7.525 -0.1411  0.0264  0.2516
  191SLPC  H18R22131   4.270   1.292   7.541 -0.2886  0.0095 -0.0921
  191SLPC  H18S22132   4.395   1.210   7.446  0.5155 -2.1125  0.3572
  191SLPC  H18T22133   4.368   1.179   7.624 -1.0222 -2.1149  0.4510
  191SLPC   C3322134   3.336   0.785   6.820 -0.0393  0.3919 -0.4165
  191SLPC   H3X22135   3.389   0.690   6.842 -2.3230 -0.6922  0.7385
  191SLPC   H3Y22136   3.239   0.752   6.777  0.8171 -0.6806 -1.5907
  191SLPC   C3422137   3.300   0.851   6.956 -0.1435  0.3064  0.2428
  191SLPC   H4X22138   3.239   0.775   7.009  1.6477 -1.2898  0.1289
  191SLPC   H4Y22139   3.244   0.945   6.939  0.4340  0.7072  0.5294
  191SLPC   C3522140   3.421   0.896   7.035 -0.3270 -0.4665 -0.0116
  191SLPC   H5X22141   3.394   0.990   7.088  0.3793  0.6754 -1.5692
  191SLPC   H5Y22142   3.507   0.913   6.966 -2.2321  1.4315 -2.0891
  191SLPC   C3622143   3.472   0.796   7.141  0.0489 -0.2426  1.0040
  191SLPC   H6X22144   3.573   0.831   7.171  0.3419  0.7727 -0.9838
  191SLPC   H6Y22145   3.483   0.694   7.098  0.7996  0.7116 -1.1786
  191SLPC   C3722146   3.382   0.791   7.267 -0.1249 -0.3994 -0.5639
  191SLPC   H7X22147   3.274   0.792   7.242 -0.7075  2.8830  1.5267
  191SLPC   H7Y22148   3.389   0.894   7.308 -2.3115 -0.6308  0.4806
  191SLPC   C3822149   3.416   0.677   7.362  0.3601 -0.1707 -0.1802
  191SLPC   H8X22150   3.527   0.667   7.360  0.2915 -1.4411  0.8346
  191SLPC   H8Y22151   3.375   0.579   7.330  1.1528 -1.4626  2.4855
  191SLPC   C3922152   3.369   0.695   7.513  0.1833 -0.1100  0.2032
  191SLPC   H9X22153   3.258   0.696   7.509  0.2276  0.1132 -1.9670
  191SLPC   H9Y22154   3.400   0.793   7.556  0.0351 -0.2471  0.6372
  191SLPC  C31022155   3.423   0.574   7.604 -0.1157 -0.0413  0.2718
  191SLPC  H10X22156   3.532   0.595   7.601  0.2400 -1.7563  0.2602
  191SLPC  H10Y22157   3.403   0.473   7.562 -0.2517 -0.9752  2.4298
  191SLPC  C31122158   3.367   0.602   7.749  0.3372 -0.2469  0.9820
  191SLPC  H11X22159   3.258   0.624   7.749  0.2277 -0.7834  0.7676
  191SLPC  H11Y22160   3.425   0.690   7.784  0.9752 -0.2079 -0.1120
  191SLPC  C31222161   3.386   0.487   7.858  0.0377  0.5498  0.3501
  191SLPC  H12X22162   3.488   0.447   7.843 -0.5666 -0.8025 -0.3117
  191SLPC  H12Y22163   3.309   0.407   7.848 -0.4302  1.1843 -1.4306
  191SLPC  C31322164   3.371   0.546   8.006 -0.5504  0.0888 -0.2896
  191SLPC  H13X22165   3.454   0.619   8.020 -0.6772  0.1352  0.2513
  191SLPC  H13Y22166   3.393   0.456   8.068  0.3322 -0.7527 -1.7551
  191SLPC  C31422167   3.231   0.607   8.034  0.2736  0.0599 -0.3519
  191SLPC  H14X22168   3.202   0.687   7.962 -2.7354 -0.3364  0.3124
  191SLPC  H14Y22169   3.220   0.651   8.135  1.5583 -2.6809  1.1191
  191SLPC  C31522170   3.111   0.517   8.015  0.1403 -0.6362 -0.6420
  191SLPC  H15X22171   3.099   0.473   7.914  0.5700 -0.4111 -0.7931
  191SLPC  H15Y22172   3.017   0.573   8.035  1.1338  1.2455 -1.0412
  191SLPC  C31622173   3.124   0.400   8.115  0.5213  0.5398  0.8264
  191SLPC  H16X22174   3.068   0.434   8.205  1.5781 -0.9861  2.1053
  191SLPC  H16Y22175   3.228   0.372   8.142  0.5737 -2.1637 -1.6437
  191SLPC  C31722176   3.046   0.277   8.059 -0.0094  0.1811 -0.0836
  191SLPC  H17X22177   3.082   0.250   7.957 -2.1843  0.3174 -0.9463
  191SLPC  H17Y22178   2.939   0.302   8.043 -0.1511 -0.6698 -0.5075
  191SLPC  C31822179   3.067   0.160   8.159  0.0800 -0.3330  0.6523
  191SLPC  H18X22180   3.016   0.067   8.123  2.9836 -1.3649 -1.0876
  191SLPC  H18Y22181   3.047   0.188   8.265  0.5820  0.8101  0.4575
  191SLPC  H18Z22182   3.172   0.136   8.134 -0.3012 -1.6534  0.2209
  192SLPC     N22183   1.512   4.861   6.099  0.4256  0.4670 -0.2045
  192SLPC   C1322184   1.399   4.955   6.120 -0.1346  0.3717  0.2885
  192SLPC  H13A22185   1.352   4.994   6.031 -0.6676  1.6137  1.0876
  192SLPC  H13B22186   1.321   4.911   6.180  1.3913 -0.6938  1.5638
  192SLPC  H13C22187   1.431   5.032   6.188  0.1573 -0.4882  1.1468
  192SLPC   C1422188   1.633   4.927   6.046  0.1045  0.1795 -0.7864
  192SLPC  H14A22189   1.696   4.843   6.021  1.0425  1.5536 -3.6009
  192SLPC  H14B22190   1.609   4.971   5.950 -1.3467 -0.7393 -0.8595
  192SLPC  H14C22191   1.667   4.997   6.121  2.1670  0.6969 -2.0824
  192SLPC   C1522192   1.472   4.760   5.997 -0.5863  0.3776  0.0445
  192SLPC  H15A22193   1.540   4.677   5.996  0.9941  1.6252 -0.2372
  192SLPC  H15B22194   1.373   4.724   6.022 -0.2107  0.6653  2.0623
  192SLPC  H15C22195   1.475   4.797   5.895  1.0362 -1.1904 -0.5298
  192SLPC   C1222196   1.540   4.801   6.243  0.9121 -0.3795  0.2973
  192SLPC  H12A22197   1.546   4.882   6.315 -1.4491  0.2589 -0.1391
  192SLPC  H12B22198   1.632   4.745   6.249 -0.3492 -2.4405  1.7584
  192SLPC   C1122199   1.436   4.703   6.293  0.7450 -0.3773 -0.5084
  192SLPC  H11A22200   1.329   4.730   6.277  0.9166 -0.4359 -1.9688
  192SLPC  H11B22201   1.444   4.702   6.403 -3.2159  2.0173 -0.0167
  192SLPC     P22202   1.560   4.473   6.265  0.5086 -0.1635 -0.2665
  192SLPC   O1322203   1.549   4.345   6.196  0.0725 -0.4443 -0.2127
  192SLPC   O1422204   1.688   4.545   6.242  0.3777  0.3792 -0.4516
  192SLPC   O1222205   1.444   4.579   6.227  0.2193 -0.4836 -0.5039
  192SLPC   O1122206   1.531   4.446   6.412 -0.0894  0.2248 -0.5492
  192SLPC    C122207   1.619   4.509   6.512 -0.2845 -0.2370  0.0944
  192SLPC    HA22208   1.696   4.578   6.470  1.0490 -1.6963  0.0662
  192SLPC    HB22209   1.557   4.566   6.584 -0.6403 -0.3529 -0.1173
  192SLPC    C222210   1.711   4.400   6.576 -0.4664 -0.2498 -0.2532
  192SLPC    HS22211   1.789   4.366   6.505  2.3301  0.9419  2.0303
  192SLPC   O2122212   1.640   4.286   6.629 -0.0038  0.4338  0.0969
  192SLPC   C2122213   1.712   4.178   6.654 -0.9841  0.0507 -0.2392
  192SLPC   O2222214   1.828   4.157   6.616  0.4378  0.4630  0.2676
  192SLPC   C2222215   1.627   4.076   6.737  0.1638  0.2092 -0.0822
  192SLPC   H2R22216   1.568   4.126   6.817 -0.3052  0.0792 -0.3445
  192SLPC   H2S22217   1.558   4.031   6.663 -0.2749 -1.0938  1.0807
  192SLPC    C322218   1.803   4.461   6.691 -0.1910  0.6269 -0.2071
  192SLPC    HX22219   1.851   4.551   6.647 -2.3383  1.2069 -1.4933
  192SLPC    HY22220   1.883   4.389   6.718 -0.3486  0.0425 -1.2501
  192SLPC   O3122221   1.730   4.513   6.806 -0.3056  0.5898  0.5247
  192SLPC   C3122222   1.753   4.441   6.919  0.9754 -0.0165  0.3445
  192SLPC   O3222223   1.814   4.340   6.918 -0.4319  0.3163  0.4038
  192SLPC   C3222224   1.678   4.505   7.040 -0.3132 -0.7114  0.1726
  192SLPC   H2X22225   1.571   4.516   7.012  0.7274  1.1338 -3.7770
  192SLPC   H2Y22226   1.722   4.606   7.052 -1.0829 -0.5747  2.3913
  192SLPC   C2322227   1.713   3.961   6.798 -0.6158  0.1357  0.0209
  192SLPC   H3R22228   1.785   3.927   6.721 -1.4092 -0.5124 -0.4582
  192SLPC   H3S22229   1.644   3.874   6.801  0.5531 -0.7891  1.2905
  192SLPC   C2422230   1.787   3.988   6.928 -0.3234 -0.1266  0.1157
  192SLPC   H4R22231   1.855   4.076   6.922  0.4008 -0.5513  1.6342
  192SLPC   H4S22232   1.849   3.896   6.935  1.4630  0.7944 -2.3110
  192SLPC   C2522233   1.696   4.005   7.045 -0.0866 -0.2983 -0.4202
  192SLPC   H5R22234   1.661   3.904   7.073  2.6653 -2.5060 -4.0086
  192SLPC   H5S22235   1.604   4.066   7.030  0.0837  0.4331  1.2349
  192SLPC   C2622236   1.755   4.072   7.171 -0.1658  0.8156 -1.1327
  192SLPC   H6R22237   1.673   4.101   7.240  1.3579  0.7307  0.7790
  192SLPC   H6S22238   1.807   4.161   7.129 -0.7168  0.3096 -3.0089
  192SLPC   C2722239   1.865   3.988   7.244 -0.4700  0.0654 -0.0898
  192SLPC   H7R22240   1.941   3.957   7.169 -1.0599 -0.8989 -0.3083
  192SLPC   H7S22241   1.829   3.892   7.286  2.0474 -0.2549  1.5062
  192SLPC   C2822242   1.912   4.059   7.365 -0.6946  0.1531  0.5128
  192SLPC   H8R22243   1.943   4.162   7.336 -1.6935  0.0426 -1.0504
  192SLPC   H8S22244   2.004   4.004   7.395 -1.8543 -1.8743  0.5125
  192SLPC   C2922245   1.830   4.070   7.488  0.1576  0.6777 -0.1041
  192SLPC   H9R22246   1.737   4.129   7.481 -1.1022 -1.2989 -1.2297
  192SLPC  C21022247   1.861   4.008   7.605 -0.1370  0.3663  0.3271
  192SLPC  H10R22248   1.796   4.030   7.691 -2.1141  1.5275 -1.3728
  192SLPC  C21122249   1.978   3.921   7.625 -0.4692  0.2204 -0.3503
  192SLPC  H11R22250   2.068   3.986   7.633  0.9499 -1.3734 -2.3630
  192SLPC  H11S22251   1.984   3.859   7.533 -1.0334 -0.1942 -0.1169
  192SLPC  C21222252   1.964   3.825   7.748  0.4164  0.4123  0.4418
  192SLPC  H12R22253   1.919   3.728   7.721  0.0830  0.0652  2.0859
  192SLPC  C21322254   1.999   3.850   7.875 -0.0768  0.7237 -0.2439
  192SLPC  H13R22255   1.980   3.769   7.945 -2.3060  0.1854 -1.3997
  192SLPC  C21422256   2.053   3.971   7.943  0.0228 -0.0945  0.7847
  192SLPC  H14R22257   2.022   4.051   7.872  0.7392 -0.8398 -0.3924
  192SLPC  H14S22258   2.163   3.971   7.952 -0.0277  1.0869  1.7926
  192SLPC  C21522259   1.979   3.992   8.080  0.1363  0.2733 -0.2074
  192SLPC  H15R22260   2.020   3.921   8.156 -1.5380 -0.2342  0.2519
  192SLPC  H15S22261   1.869   3.980   8.077  0.1012 -0.7160  2.5129
  192SLPC  C21622262   2.003   4.128   8.151 -0.3319  0.0901 -0.4116
  192SLPC  H16R22263   1.969   4.200   8.073  0.8859  0.2409 -0.8235
  192SLPC  H16S22264   2.111   4.144   8.172 -0.2490 -1.0153  0.0332
  192SLPC  C21722265   1.919   4.136   8.274  0.2246 -0.7316 -0.4453
  192SLPC  H17R22266   1.809   4.130   8.261  0.2028  0.7087 -1.1441
  192SLPC  H17S22267   1.946   4.060   8.351  0.4881 -0.2559 -0.0605
  192SLPC  C21822268   1.931   4.273   8.349 -0.3539  0.2236 -1.1732
  192SLPC  H18R22269   1.912   4.265   8.458 -0.1079 -3.7946 -1.2614
  192SLPC  H18S22270   1.874   4.356   8.302 -1.1317  0.4138  0.0568
  192SLPC  H18T22271   2.040   4.297   8.348 -0.0945 -0.5793  1.2453
  192SLPC   C3322272   1.698   4.412   7.163  0.8193 -0.4371 -0.1603
  192SLPC   H3X22273   1.801   4.370   7.164  0.7799 -0.6260 -1.7550
  192SLPC   H3Y22274   1.625   4.329   7.164  0.3828 -0.0589  1.0248
  192SLPC   C3422275   1.684   4.495   7.291  0.3483  0.4731 -0.3406
  192SLPC   H4X22276   1.580   4.532   7.289  0.4964  0.9375 -3.4786
  192SLPC   H4Y22277   1.751   4.584   7.294  1.5783 -0.4532  1.5377
  192SLPC   C3522278   1.707   4.414   7.418  0.7102 -0.0492 -0.0335
  192SLPC   H5X22279   1.811   4.379   7.401  0.8812  1.5021 -2.6450
  192SLPC   H5Y22280   1.634   4.330   7.416 -0.6591  1.1289 -0.7908
  192SLPC   C3622281   1.708   4.492   7.548 -0.1121  0.7640  0.0224
  192SLPC   H6X22282   1.604   4.476   7.586 -0.2844 -2.4486 -1.4096
  192SLPC   H6Y22283   1.740   4.597   7.535  1.0853  0.3313 -0.7096
  192SLPC   C3722284   1.811   4.431   7.651 -0.1785 -0.8177  0.2596
  192SLPC   H7X22285   1.906   4.445   7.596 -1.1727  0.9390 -1.0902
  192SLPC   H7Y22286   1.783   4.324   7.663 -1.0913 -0.6597 -0.3459
  192SLPC   C3822287   1.826   4.500   7.791  0.3515  0.8626  0.7804
  192SLPC   H8X22288   1.839   4.609   7.772  0.4916  0.4070 -2.1527
  192SLPC   H8Y22289   1.927   4.465   7.824  0.0923 -2.1320 -1.2022
  192SLPC   C3922290   1.714   4.460   7.882 -0.2677  0.7659  0.1758
  192SLPC   H9X22291   1.724   4.354   7.913 -0.5077  1.1597  1.7030
  192SLPC   H9Y22292   1.616   4.475   7.831 -0.0918  2.3491  0.2444
  192SLPC  C31022293   1.714   4.531   8.019  0.2579 -0.0522 -0.2946
  192SLPC  H10X22294   1.810   4.530   8.074  0.3858  1.4106 -0.4460
  192SLPC  H10Y22295   1.635   4.482   8.079  0.2893  0.1464 -0.0897
  192SLPC  C31122296   1.682   4.683   8.016 -0.1067  0.6290  0.3285
  192SLPC  H11X22297   1.575   4.687   7.988 -0.3150  2.2921  1.2669
  192SLPC  H11Y22298   1.734   4.739   7.935  1.2826 -0.0762  0.6996
  192SLPC  C31222299   1.715   4.760   8.147  0.8052  0.5731 -0.3073
  192SLPC  H12X22300   1.679   4.864   8.135 -2.8663 -0.5470 -0.2475
  192SLPC  H12Y22301   1.824   4.766   8.167  0.9458 -0.5119 -0.6464
  192SLPC  C31322302   1.659   4.681   8.273  0.4360  0.2257  0.4414
  192SLPC  H13X22303   1.715   4.721   8.361 -0.4423  0.3329  0.9613
  192SLPC  H13Y22304   1.683   4.575   8.253  3.7000  0.9819 -0.2571
  192SLPC  C31422305   1.510   4.708   8.280  0.1312  0.0877 -0.5166
  192SLPC  H14X22306   1.449   4.630   8.330 -0.5177  0.4347 -0.7469
  192SLPC  H14Y22307   1.465   4.701   8.179 -0.4442 -1.4697 -0.1748
  192SLPC  C31522308   1.465   4.838   8.358 -0.0647  0.1511 -0.2628
  192SLPC  H15X22309   1.505   4.932   8.315 -1.9405  0.7841 -0.7404
  192SLPC  H15Y22310   1.508   4.829   8.460 -1.4696  0.4597  0.3747
  192SLPC  C31622311   1.313   4.850   8.364 -0.0843  0.0751 -0.4041
  192SLPC  H16X22312   1.288   4.911   8.453 -1.5611  0.1426 -0.8340
  192SLPC  H16Y22313   1.267   4.754   8.396 -0.8829  0.7767  0.6416
  192SLPC  C31722314   1.237   4.908   8.244 -0.1343  0.0773 -0.8290
  192SLPC  H17X22315   1.127   4.905   8.255 -0.0216 -0.9971  0.1382
  192SLPC  H17Y22316   1.256   4.838   8.160  3.4249 -0.4015  0.2057
  192SLPC  C31822317   1.285   5.047   8.204  0.1410  0.6209 -0.4594
  192SLPC  H18X22318   1.381   5.057   8.149 -0.0878  0.9133 -0.8149
  192SLPC  H18Y22319   1.281   5.105   8.298  1.7171 -0.5683  0.3826
  192SLPC  H18Z22320   1.208   5.090   8.135  0.6748 -0.3098 -1.6788
  193SOD    SOD22321   1.628   0.412  14.159 -0.2276  0.1325  0.0081
  194SOD    SOD22322   2.041   3.190  10.850  0.2681  0.3527 -0.4652
  195SOD    SOD22323   6.177   0.044  12.332 -0.2485  0.3691 -0.0278
  196SOD    SOD22324   2.560   1.012  16.457  0.2228  0.0299  0.4060
  197SOD    SOD22325   2.414   5.610  11.286  0.1853 -0.2863  0.6882
  198SOD    SOD22326   4.363   0.246   1.314  0.4197 -0.5429  0.2587
  199SOD    SOD22327   1.176   3.790   6.096 -0.4272  0.4280  0.6546
  200SOD    SOD22328   5.826   2.552   2.778 -0.1691  0.1476  0.3774
  201SOD    SOD22329   2.369   0.341   5.708 -0.1597 -0.2318 -0.3895
  202SOD    SOD22330   4.729   6.508  14.354  0.1377 -0.3604  0.1739
  203SOD    SOD22331   0.868   3.741  14.048  0.4886  0.5218 -0.1338
  204SOD    SOD22332   5.484   5.251   6.483 -0.4199 -0.4017  0.3711
  205SOD    SOD22333   6.506   1.117  13.114 -0.3524  0.0157  0.2153
  206SOD    SOD22334   5.967   0.968   6.217  0.2966 -0.6192 -0.0485
  207SOD    SOD22335   1.084   4.161  11.981 -0.2624 -0.4272  0.2767
  208SOD    SOD22336   4.092   6.201  16.913  0.2179 -0.0242  0.2213
  209SOD    SOD22337   1.590   2.292  10.670 -0.0397 -0.2574 -0.0323
  210SOD    SOD22338   4.026   2.662   6.041  0.0746 -0.1324 -0.1688
  211SOD    SOD22339   2.425   1.031  11.861 -0.3144  0.1242 -0.6277
  212SOD    SOD22340   2.022   5.970   6.296 -0.0713  0.0824  0.2033
  213SOD    SOD22341   2.895   0.960  13.522 -0.2261  0.4866  0.2390
  214SOD    SOD22342   2.372   5.337  12.339  0.0780  0.0026  0.1940
  215SOD    SOD22343   6.133   2.526  11.235  0.4523 -0.6007  0.3363
  216SOD    SOD22344   4.762   6.457   4.509 -0.1767 -0.4622 -0.4556
  217SOD    SOD22345   3.790   2.961  16.742 -0.4225  0.0368 -0.2517
  218SOD    SOD22346   0.297   4.066  13.656 -0.1502  0.7177 -0.0003
  219SOD    SOD22347   0.120   3.433   6.377 -0.0274 -0.0632  0.7971
  220SOD    SOD22348   5.917   4.076  11.950 -0.3107  0.3983  0.4219
  221SOD    SOD22349   2.441   0.964  10.488  0.1556 -0.2275  0.1717
  222SOD    SOD22350   3.708   5.129   4.674  0.1617 -0.0399  0.0838
  223SOD    SOD22351   4.392   0.510   6.401  0.1076 -0.2219  0.4258
  224SOD    SOD22352   0.109   1.914   0.530 -0.1593  0.3775  0.3251
  225SOD    SOD22353   5.234   1.895  15.602  0.9001 -0.0520  0.2514
  226SOD    SOD22354   5.034   4.921   3.063 -0.1539 -0.0492 -0.9129
  227SOD    SOD22355   1.985   3.346  14.258 -0.0551  0.3812 -0.5582
  228SOD    SOD22356   0.549   3.004   4.489  0.2795  0.3175 -0.8174
  229SOD    SOD22357   4.161   3.920  14.364  0.0981 -0.3806 -0.6645
  230SOD    SOD22358   0.030   3.479  16.197 -0.0239  0.0153 -0.2476
  231SOD    SOD22359   4.558   6.046   6.665 -0.1142  0.3980  0.1168
  232SOD    SOD22360   3.040   0.385   0.261  0.2565 -0.1622  0.2011
  233SOD    SOD22361   6.580   2.922  10.649 -0.1737 -0.3273 -0.6202
  234SOD    SOD22362   1.071   4.004   2.661 -0.2283  0.4451  0.1992
  235SOD    SOD22363   4.871   2.711   2.154 -0.1853  0.4476 -0.1152
  236SOD    SOD22364   4.376   3.103   1.629  0.2409 -0.0493 -0.0564
  237SOD    SOD22365   4.645   2.115  10.786  0.7056 -0.6913 -0.1980
  238SOD    SOD22366   3.501   0.831  10.303  0.0410 -0.3316 -0.1133
  239SOD    SOD22367   2.244   5.036   1.054 -0.3496 -0.1150  0.4531
  240SOD    SOD22368   4.813   6.203   0.104  0.2015 -0.0207 -0.3690
  241SOD    SOD22369   3.888   2.788  15.284 -0.0458  0.2865 -0.2404
  242SOD    SOD22370   0.404   2.160  11.470  0.6483 -0.3547 -0.1348
  243SOD    SOD22371   1.365   1.045   5.299 -0.2305 -0.2388 -0.6023
  244SOD    SOD22372   2.995   5.917   4.888  0.4025 -0.3912  0.5478
  245SOD    SOD22373   1.391   5.022   1.721 -0.5031 -0.1314  0.1327
  246SOD    SOD22374   6.274   3.319  13.636  0.0865  0.2798 -0.4617
  247SOD    SOD22375   6.168   5.616  14.455 -0.5279 -0.0862 -0.1126
  248SOD    SOD22376   0.157   4.774   5.468  0.1366 -0.1923  0.1188
  249SOD    SOD22377   3.118   6.694  12.182  0.2401  0.0018  0.0950
  250SOD    SOD22378   2.514   0.125  10.905  0.3242 -0.6116 -0.7789
  251SOD    SOD22379   5.299   3.657  12.138  0.1211 -0.0269  0.2818
  252SOD    SOD22380   3.561   5.150   1.756 -0.3919 -0.3318 -0.6329
  253SOD    SOD22381   6.286   0.519  13.681  0.3805 -0.3099 -0.2998
  254SOD    SOD22382   0.518   5.292   3.301 -0.2272  0.5094  0.7574
  255SOD    SOD22383   2.449   4.250  10.679 -0.1351 -0.2220 -0.2499
  256SOD    SOD22384   0.033   1.909  10.788 -0.1864 -0.2046 -0.1689
  257SOD    SOD22385   0.789   5.064  13.534 -0.5480 -0.3366  0.0995
  258SOD    SOD22386   5.818   5.328   2.029  0.3433  0.4077 -0.2188
  259SOD    SOD22387   5.438   0.961   3.954 -0.3532  0.0518  0.3612
  260SOD    SOD22388   1.680   1.019  12.888  0.0266  0.4756 -0.1082
  261SOD    SOD22389   0.542   3.542   0.107  0.1365  0.3282 -0.0939
  262SOD    SOD22390   5.184   0.256   0.538 -0.0915 -0.1860  0.1581
  263SOD    SOD22391   5.884   0.215  11.034 -0.0151  0.4195 -0.1043
  264SOD    SOD22392   5.992   2.591  15.296  0.1732 -0.4879 -0.0463
  265SOD    SOD22393   5.804   0.662   4.171 -0.0629  0.4090  0.7410
  266CLA    CLA22394   5.959   5.474   2.484  0.3559  0.6283 -0.0842
  267CLA    CLA22395   5.727   1.349  13.034 -0.1652  0.3154 -0.1815
  268CLA    CLA22396   4.577   6.553  13.915  0.3184  0.2043  0.2041
  269CLA    CLA22397   4.733   1.858   1.682  0.1413 -0.3777 -0.1349
  270CLA    CLA22398   3.536   6.220  12.500 -0.3638  0.1536 -0.1849
  271CLA    CLA22399   4.943   5.595  15.773 -0.0048 -0.4958 -0.0537
  272CLA    CLA22400   3.267   4.900   3.454  0.0626 -0.0317  0.0015
  273CLA    CLA22401   2.645   0.716  16.782  0.1363  0.2346 -0.4483
  274CLA    CLA22402   5.200   1.658  12.112 -0.0625 -0.1806  0.1678
  275CLA    CLA22403   5.697   0.818  17.247 -0.0788 -0.0166 -0.0279
  276CLA    CLA22404   4.694   6.277  14.931  0.0515 -0.1750  0.1722
  277CLA    CLA22405   3.449   6.170   3.966 -0.8156 -0.3598  0.0151
  278CLA    CLA22406   5.451   4.260  15.774 -0.1570 -0.3257  0.3121
  279CLA    CLA22407   0.788   2.444   1.678 -0.0563 -0.2018 -0.0544
  280CLA    CLA22408   2.743   1.180   2.974  0.2807 -0.0887  0.1311
  281CLA    CLA22409   5.536   1.861   2.902  0.2529 -0.1783 -0.3788
  282CLA    CLA22410   2.611   4.523  11.089 -0.0708 -0.0895  0.1720
  283CLA    CLA22411   1.522   3.505  12.018 -0.1474 -0.3045 -0.3232
  284CLA    CLA22412   6.146   5.367  12.710 -0.3451  0.2684 -0.0287
  285CLA    CLA22413   0.957   5.789  15.873  0.6402  0.0474 -0.6813
  286CLA    CLA22414   4.315   0.689   0.328 -0.3652  0.1463 -0.0679
  287CLA    CLA22415   5.246   2.504  12.760  0.4738 -0.2670  0.1885
  288CLA    CLA22416   1.171   6.126  16.095 -0.1569  0.0675 -0.6051
  289CLA    CLA22417   1.732   4.618  11.783  0.1058 -0.3379 -0.2801
  290CLA    CLA22418   1.289   3.713  13.208  0.4253 -0.1621  0.0486
  291CLA    CLA22419   5.280   5.776   0.220 -0.4745  0.2372 -0.1421
  292CLA    CLA22420   6.462   2.432  13.830 -0.1465  0.1097  0.0338
  293CLA    CLA22421   5.500   5.789   0.880  0.5638 -0.2199  0.2257
  294CLA    CLA22422   2.258   5.823   6.166 -0.0262 -0.0564 -0.0029
  295CLA    CLA22423   3.288   3.161  13.144  0.1100 -0.2517 -0.3717
  296CLA    CLA22424   3.915   0.537  16.690 -0.0144 -0.2107  0.2339
  297CLA    CLA22425   0.144   1.424  13.521  0.2554  0.5048 -0.3900
  298CLA    CLA22426   6.662   4.957   5.778  0.4365 -0.0840  0.1081
  299CLA    CLA22427   4.718   5.188   3.368  0.0796 -0.3468  0.3215
  300CLA    CLA22428   2.684   3.798   4.085  0.1686  0.3641  0.3728
  301CLA    CLA22429   5.081   2.681  11.113 -0.3261 -0.0174 -0.0377
  302CLA    CLA22430   1.280   2.480   5.886 -0.5354 -0.0530 -0.0180
  303CLA    CLA22431   4.900   4.067  11.618  0.1491 -0.2382  0.3422
  304CLA    CLA22432   3.343   4.899  14.272  0.0687 -0.2985 -0.3293
  305CLA    CLA22433   6.813   4.733  16.242 -0.3356  0.2704  0.6153
  306CLA    CLA22434   0.975   6.115   3.932  0.5947  0.0526 -0.3981
  307CLA    CLA22435   1.182   0.315  12.375  0.2870 -0.1349 -0.2092
  308CLA    CLA22436   1.964   5.463   0.855  0.0781  0.3375 -0.2286
  309CLA    CLA22437   5.846   3.024   3.835 -0.0355 -0.1802 -0.2176
  310CLA    CLA22438   1.312   2.909  12.856  0.2816  0.3618  0.0065
  311CLA    CLA22439   3.850   0.655  16.064 -0.6680  0.4618 -0.2360
  312CLA    CLA22440   0.240   4.444  14.092 -0.0170 -0.1266  0.2958
  313CLA    CLA22441   5.335   3.003   1.933 -0.1933 -0.0072  0.0985
  314CLA    CLA22442   1.128   4.677   3.470 -0.1852  0.0185  0.3142
  315CLA    CLA22443   2.299   1.495  13.620 -0.1963  0.0881  0.0893
  316CLA    CLA22444   2.298   5.024  16.110  0.0913  0.5481 -0.0284
  317CLA    CLA22445   1.671   3.773  12.570  0.0823  0.1572  0.2429
  318CLA    CLA22446   4.981   2.363   0.347 -0.0625  0.2128 -0.1925
  319TIP3   OH222447   0.591   1.845  15.519 -0.2066 -0.3891 -0.1016
  319TIP3    H122448   0.569   1.825  15.428 -1.6313 -1.8890  0.5272
  319TIP3    H222449   0.546   1.927  15.537  0.9467  0.4814 -1.0298
  320TIP3   OH222450   4.119   0.165  13.363 -0.1862 -0.1375  0.3261
  320TIP3    H122451   4.038   0.114  13.359 -0.7083  0.7246 -2.5570
  320TIP3    H222452   4.096   0.242  13.415 -0.9472 -0.3348  0.2949
  321TIP3   OH222453   5.631   2.158   0.707 -0.2271 -0.0245  0.0683
  321TIP3    H122454   5.589   2.155   0.793 -0.2196 -0.4888  0.0595
  321TIP3    H222455   5.630   2.067   0.677 -0.0557  0.1063 -0.3382
  322TIP3   OH222456   0.291   6.503   1.768 -0.0775  0.3713 -0.8777
  322TIP3    H122457   0.197   6.485   1.771  0.0699 -0.2670  0.3946
  322TIP3    H222458   0.299   6.572   1.702 -1.3064 -0.3014 -1.7826
  323TIP3   OH222459   1.622   1.721  11.431  0.6348  0.0559 -0.2187
  323TIP3    H122460   1.713   1.720  11.400  0.4651  0.7790 -0.7743
  323TIP3    H222461   1.620   1.791  11.496  0.4666  0.0701 -0.2402
  324TIP3   OH222462   1.213   3.445  11.100  0.3089 -0.0196 -0.0716
  324TIP3    H122463   1.221   3.460  11.006 -2.6410 -0.9786 -0.5796
  324TIP3    H222464   1.246   3.356  11.113 -2.0442 -1.0884 -0.8249
  325TIP3   OH222465   6.367   2.851   3.122 -0.1801  0.1357 -0.4337
  325TIP3    H122466   6.313   2.912   3.071 -1.8213  0.4045  1.5298
  325TIP3    H222467   6.328   2.851   3.209  0.7718 -2.5131  0.0831
  326TIP3   OH222468   1.229   3.702   3.573 -0.1320 -0.6658  0.7306
  326TIP3    H122469   1.309   3.665   3.610  1.0721  0.9359 -0.1583
  326TIP3    H222470   1.163   3.633   3.584  0.8808 -1.3459  3.1488
  327TIP3   OH222471   6.711   0.874  11.816 -0.1048  0.0735 -0.0885
  327TIP3    H122472   6.730   0.796  11.868  0.4349 -0.2656 -0.7774
  327TIP3    H222473   6.732   0.947  11.874  1.0857 -0.2981 -0.0266
  328TIP3   OH222474   3.374   5.589  16.875 -0.5340 -0.0354  0.3499
  328TIP3    H122475   3.442   5.640  16.920 -0.1419 -0.0050 -0.2581
  328TIP3    H222476   3.293   5.637  16.892 -0.1340  0.9781 -0.4518
  329TIP3   OH222477   1.949   4.681  14.450 -0.0573  0.1368  0.4028
  329TIP3    H122478   1.880   4.616  14.435 -0.7025  0.7800  0.5255
  329TIP3    H222479   1.941   4.741  14.376  0.7240 -0.0698  0.1375
  330TIP3   OH222480   4.733   2.581   2.282  0.0665 -0.0338 -0.5652
  330TIP3    H122481   4.691   2.602   2.365 -1.6289  0.9268 -1.5830
  330TIP3    H222482   4.660   2.559   2.224  1.2754 -1.6227 -1.5552
  331TIP3   OH222483   0.140   3.068   3.435  0.0846 -0.0163  0.5952
  331TIP3    H122484   0.180   3.142   3.481 -0.9203  1.4680 -0.8155
  331TIP3    H222485   0.065   3.106   3.390 -0.0159 -1.7612 -0.8065
  332TIP3   OH222486   2.764   4.790   2.864  0.3085  0.9460  0.4909
  332TIP3    H122487   2.811   4.770   2.783  0.9336  1.3143  0.7576
  332TIP3    H222488   2.671   4.784   2.840  0.4760 -0.2485  0.0733
  333TIP3   OH222489   0.421   2.546   3.814  0.7916  0.5675  0.0015
  333TIP3    H122490   0.353   2.483   3.788  1.2665  0.7163 -1.7263
  333TIP3    H222491   0.392   2.578   3.899 -1.3247  0.6433 -0.6818
  334TIP3   OH222492   2.612   0.259   3.884 -0.8756 -0.0444 -0.3964
  334TIP3    H122493   2.662   0.242   3.805 -0.3098  1.3926 -0.3907
  334TIP3    H222494   2.671   0.236   3.956 -1.0880 -0.5798 -0.3954
  335TIP3   OH222495   3.108   4.599  15.551 -0.6793 -0.0937 -0.7962
  335TIP3    H122496   3.197   4.572  15.573 -0.3146  0.9781 -0.8919
  335TIP3    H222497   3.113   4.627  15.460 -0.8313  1.0680 -0.4677
  336TIP3   OH222498   1.739   3.043   4.875 -0.6579 -0.6642 -0.4437
  336TIP3    H122499   1.754   2.967   4.818 -2.7435  0.2586 -2.3581
  336TIP3    H222500   1.736   3.118   4.815  1.7767  1.0923  1.4197
  337TIP3   OH222501   5.517   2.466  16.525 -0.2459  0.0743 -0.1590
  337TIP3    H122502   5.506   2.556  16.496  3.3169  0.3178 -1.1813
  337TIP3    H222503   5.460   2.415  16.467 -2.6140  1.5989  0.6816
  338TIP3   OH222504   4.770   2.346  16.087  0.0005 -0.2169 -0.3462
  338TIP3    H122505   4.775   2.324  16.180 -1.1277 -1.0611 -0.4703
  338TIP3    H222506   4.683   2.383  16.075 -1.2945 -3.3575 -1.6968
  339TIP3   OH222507   5.702   1.679  11.252 -0.6522 -0.0069 -0.4483
  339TIP3    H122508   5.686   1.733  11.329  0.5374  0.4158 -0.4813
  339TIP3    H222509   5.631   1.614  11.253 -1.0901  0.4657  0.5596
  340TIP3   OH222510   1.440   3.948   2.196  0.3675  0.7934  0.0023
  340TIP3    H122511   1.462   3.855   2.197 -0.1423  0.6767  0.6305
  340TIP3    H222512   1.351   3.953   2.230  0.1101  1.4503 -0.7177
  341TIP3   OH222513   0.424   3.263   2.047 -0.1493 -0.2873  0.9914
  341TIP3    H122514   0.351   3.273   1.986 -2.0997 -2.6218  2.7520
  341TIP3    H222515   0.489   3.212   1.997  0.0374  1.1881 -0.3532
  342TIP3   OH222516   5.344   4.391  12.387 -0.2743  0.5164  0.0138
  342TIP3    H122517   5.340   4.486  12.375  1.3586  0.6286  0.1832
  342TIP3    H222518   5.383   4.380  12.474 -1.0332 -0.3178  0.2573
  343TIP3   OH222519   5.488   5.324  13.969  0.0881  0.5492  0.0667
  343TIP3    H122520   5.519   5.233  13.966  0.4069  0.6352  0.6378
  343TIP3    H222521   5.557   5.374  13.926  1.8130  1.0115  3.0873
  344TIP3   OH222522   5.930   5.674   4.618 -0.2965  0.2658  0.5848
  344TIP3    H122523   6.011   5.634   4.585 -0.7872  0.0318 -0.3832
  344TIP3    H222524   5.865   5.654   4.550 -1.1943  0.3477  1.4099
  345TIP3   OH222525   6.598   5.691   4.408  0.3134  0.4507  0.1248
  345TIP3    H122526   6.674   5.739   4.376  1.3661 -0.8113  0.6429
  345TIP3    H222527   6.602   5.700   4.503 -0.7719  1.1929  0.1271
  346TIP3   OH222528   4.212   1.952  16.455 -0.4163 -0.1379 -0.1775
  346TIP3    H122529   4.306   1.972  16.452  0.5557 -3.8559  0.5931
  346TIP3    H222530   4.188   1.967  16.546 -0.1117 -0.7763  0.0149
  347TIP3   OH222531   0.914   4.734  12.598 -0.0097 -0.1533  0.2952
  347TIP3    H122532   0.969   4.761  12.525 -1.2249  0.7248 -0.3265
  347TIP3    H222533   0.965   4.755  12.676  1.3928 -1.2903 -0.2630
  348TIP3   OH222534   3.151   1.227   1.364 -0.3459 -0.0364 -0.4889
  348TIP3    H122535   3.058   1.248   1.363 -0.1634  0.8132 -0.9648
  348TIP3    H222536   3.158   1.145   1.316 -0.7831  0.2093 -0.9769
  349TIP3   OH222537   4.642   2.327  10.842 -0.2071 -0.2651  0.0544
  349TIP3    H122538   4.686   2.405  10.809 -2.1497  0.6213 -0.6260
  349TIP3    H222539   4.600   2.355  10.923 -0.0143 -0.9194  0.3883
  350TIP3   OH222540   0.290   2.204   5.689  0.2927  0.1542 -1.0115
  350TIP3    H122541   0.218   2.146   5.715  1.2016 -0.0681  1.2400
  350TIP3    H222542   0.354   2.145   5.648  1.4254 -0.6795  1.6893
  351TIP3   OH222543   0.370   4.224   0.428 -0.0753 -0.4337  0.0394
  351TIP3    H122544   0.282   4.251   0.400 -0.0956 -1.7498 -1.2936
  351TIP3    H222545   0.368   4.232   0.523 -0.5629  2.6471 -0.1087
  352TIP3   OH222546   0.965   3.688   2.009  0.3121  0.3149  0.0261
  352TIP3    H122547   0.886   3.708   1.959  0.0670 -1.4901 -0.3888
  352TIP3    H222548   1.025   3.760   1.989 -0.4759  0.6290 -1.3250
  353TIP3   OH222549   0.283   6.095  13.784  0.0912  0.6117  0.4898
  353TIP3    H122550   0.198   6.129  13.755  0.9514  1.3214 -1.2950
  353TIP3    H222551   0.346   6.128  13.721  1.4883 -1.3411  0.7589
  354TIP3   OH222552   5.986   3.989   4.056  0.1283 -0.4472 -0.4373
  354TIP3    H122553   5.953   3.966   3.969 -0.7383 -2.2922  0.3180
  354TIP3    H222554   6.045   4.063   4.041 -0.4518 -0.3511 -2.5041
  355TIP3   OH222555   2.047   1.030  16.392 -0.2404 -0.3661  0.2020
  355TIP3    H122556   2.022   1.007  16.303 -0.4473  0.6597 -0.0172
  355TIP3    H222557   2.107   0.961  16.419  1.0298  0.1204 -1.2841
  356TIP3   OH222558   5.137   0.639  16.728  0.1562 -0.5184  0.0727
  356TIP3    H122559   5.157   0.668  16.639 -1.0845  2.1871  0.5812
  356TIP3    H222560   5.201   0.686  16.783 -0.2060 -0.7932  0.7394
  357TIP3   OH222561   3.960   6.543  16.552  0.4508 -0.2338  0.4368
  357TIP3    H122562   4.013   6.609  16.507  1.6518 -0.3124  1.6740
  357TIP3    H222563   4.017   6.509  16.621 -1.2380 -0.2569  1.9010
  358TIP3   OH222564   5.066   0.044   1.168 -0.2898  0.4102 -0.0404
  358TIP3    H122565   4.988   0.094   1.145 -0.6928  0.2873  1.0145
  358TIP3    H222566   5.062  -0.033   1.111  0.1484  1.3649 -1.4176
  359TIP3   OH222567   2.841   1.399   0.913 -0.4642 -0.5721  0.3390
  359TIP3    H122568   2.759   1.394   0.865 -0.9667 -1.1687  1.2265
  359TIP3    H222569   2.900   1.340   0.866 -1.3983 -2.3136  1.2606
  360TIP3   OH222570   5.791   3.854   6.132 -0.0389 -0.1624 -0.0185
  360TIP3    H122571   5.765   3.762   6.139 -0.1695 -0.0897  0.4688
  360TIP3    H222572   5.859   3.854   6.064 -0.2320 -0.5777 -0.2150
  361TIP3   OH222573   3.718   5.798  12.599 -0.4644 -0.6059  0.2610
  361TIP3    H122574   3.765   5.880  12.610 -1.3207  0.0232 -0.6882
  361TIP3    H222575   3.655   5.797  12.671 -0.6261 -0.3089  0.1233
  362TIP3   OH222576   2.143   0.418   6.392  0.0883 -0.0378 -0.0264
  362TIP3    H122577   2.120   0.386   6.480 -2.6637 -0.2223 -0.7092
  362TIP3    H222578   2.190   0.346   6.351 -1.9915 -1.5350  0.0369
  363TIP3   OH222579   3.143   5.963   5.082 -0.4238  0.2310 -0.0645
  363TIP3    H122580   3.105   5.986   5.166  0.7635  0.1678  0.5015
  363TIP3    H222581   3.223   6.014   5.076 -0.2022 -0.1863 -0.9059
  364TIP3   OH222582   3.763   2.199   6.179  0.0366 -0.2677  0.8630
  364TIP3    H122583   3.839   2.242   6.216  0.2351 -0.6372  0.8860
  364TIP3    H222584   3.689   2.252   6.208  0.3177  0.3565  0.4592
  365TIP3   OH222585   0.380   2.279  16.805  0.0445 -0.6630  0.4427
  365TIP3    H122586   0.380   2.321  16.719 -0.1314 -1.6750 -0.0700
  365TIP3    H222587   0.342   2.344  16.864 -0.6295 -0.2616 -0.4091
  366TIP3   OH222588   1.126   6.816   0.266  0.2591 -0.3266  0.4988
  366TIP3    H122589   1.121   6.778   0.353  0.3893  0.0812  0.6855
  366TIP3    H222590   1.109   6.909   0.278 -2.8458 -0.6921 -0.3025
  367TIP3   OH222591   1.890   3.717   0.884  0.2272 -0.1632  0.6003
  367TIP3    H122592   1.944   3.734   0.806  1.6029  0.1227  1.5671
  367TIP3    H222593   1.855   3.803   0.907  1.3676  0.1275  1.3578
  368TIP3   OH222594   3.705   0.804  11.966 -0.7936 -0.1741  0.1916
  368TIP3    H122595   3.712   0.719  12.009 -1.6032 -0.4409 -0.2003
  368TIP3    H222596   3.718   0.867  12.037 -0.2643 -0.6168  0.4957
  369TIP3   OH222597   6.719   3.982  14.023  0.2303  0.5999 -0.0480
  369TIP3    H122598   6.638   3.980  14.074 -0.5018  3.2082 -0.9291
  369TIP3    H222599   6.789   3.984  14.088 -0.6071  2.2952  0.8507
  370TIP3   OH222600   5.017   0.299   1.914  0.5800 -0.1009  0.2585
  370TIP3    H122601   5.015   0.257   2.000  2.5114  1.3347  1.0632
  370TIP3    H222602   5.110   0.305   1.893  0.1451 -0.8830 -2.2066
  371TIP3   OH222603   5.759   1.358   0.436  0.0945 -0.1754 -0.3797
  371TIP3    H122604   5.712   1.344   0.354 -0.0529  1.8700 -0.6786
  371TIP3    H222605   5.729   1.287   0.493 -0.9785 -0.7204 -1.5821
  372TIP3   OH222606   5.635   0.558  15.464  0.7966  0.6578  0.2587
  372TIP3    H122607   5.711   0.562  15.405  2.2060 -0.0114  1.9369
  372TIP3    H222608   5.672   0.568  15.552 -0.6825 -2.2931  1.3676
  373TIP3   OH222609   2.136   5.393   4.122  0.8244  0.1413 -0.4921
  373TIP3    H122610   2.160   5.325   4.185 -0.4884 -1.0929 -1.2634
  373TIP3    H222611   2.051   5.426   4.153  0.3984 -0.1419 -1.3204
  374TIP3   OH222612   4.663   2.705  14.999 -0.7344  0.2945  0.4148
  374TIP3    H122613   4.617   2.751  15.068 -2.3570 -0.7724  0.0823
  374TIP3    H222614   4.611   2.627  14.981  1.2905 -1.0891  0.1321
  375TIP3   OH222615   2.074   5.691  13.224 -0.3396 -0.2434 -0.3762
  375TIP3    H122616   2.005   5.710  13.288  1.1455 -2.4246  2.0559
  375TIP3    H222617   2.047   5.608  13.184 -0.3423  0.1789 -1.2666
  376TIP3   OH222618   3.702   0.997   1.925  0.0406 -0.7050 -0.2217
  376TIP3    H122619   3.759   0.922   1.939 -0.8854 -1.3469  0.1856
  376TIP3    H222620   3.645   0.999   2.002 -1.6306 -1.1373 -1.3904
  377TIP3   OH222621   5.284   1.215   4.779  0.1534  0.5183 -0.8859
  377TIP3    H122622   5.345   1.288   4.795 -0.2952  1.3731 -2.7371
  377TIP3    H222623   5.339   1.146   4.743  0.3277  0.5546 -0.6946
  378TIP3   OH222624   1.410   0.368  11.867  0.3889  0.3160  0.3913
  378TIP3    H122625   1.319   0.393  11.852  0.2604 -0.5054 -0.2998
  378TIP3    H222626   1.409   0.325  11.953  0.0792  0.1159  0.2891
  379TIP3   OH222627   6.116   0.117  14.966  0.0872  0.5300 -0.9243
  379TIP3    H122628   6.093   0.026  14.982  1.9992 -0.2620 -2.2763
  379TIP3    H222629   6.188   0.134  15.028 -1.3919  1.7277  0.5559
  380TIP3   OH222630   4.418   3.351  12.656  1.2308 -0.0278 -0.2396
  380TIP3    H122631   4.482   3.422  12.664  1.8885 -0.6064 -0.2643
  380TIP3    H222632   4.419   3.309  12.742 -0.8992  1.4291  0.5555
  381TIP3   OH222633   4.769   3.231   1.213  0.0289  0.2701  0.0348
  381TIP3    H122634   4.750   3.325   1.209 -1.8044 -0.0739 -0.0183
  381TIP3    H222635   4.723   3.194   1.138 -1.1851 -0.9668  1.3421
  382TIP3   OH222636   2.540   0.618  12.848 -0.6342  0.2586 -0.2027
  382TIP3    H122637   2.636   0.620  12.846 -0.6337  0.9426 -2.8196
  382TIP3    H222638   2.514   0.655  12.764 -3.2727  2.4709  1.4611
  383TIP3   OH222639   6.444   4.200  13.526 -0.0210  0.7156 -0.0335
  383TIP3    H122640   6.502   4.171  13.455  2.0636 -0.1628  1.9104
  383TIP3    H222641   6.430   4.293  13.508 -0.7912  0.2005 -2.3835
  384TIP3   OH222642   0.780   6.356   3.974 -0.5381 -0.1129  0.3083
  384TIP3    H122643   0.830   6.279   3.999 -0.9626  0.0227  1.6463
  384TIP3    H222644   0.825   6.429   4.016 -0.0709  0.4061 -1.0467
  385TIP3   OH222645   6.742   1.589   3.192  0.5895  0.3575 -0.6571
  385TIP3    H122646   6.730   1.500   3.158  1.0689  0.8137 -2.0991
  385TIP3    H222647   6.740   1.579   3.287  4.5034 -1.8082 -0.5984
  386TIP3   OH222648   2.319   4.432  10.623  0.0943 -0.2281  0.0219
  386TIP3    H122649   2.331   4.438  10.718 -0.8428  0.6144  0.1073
  386TIP3    H222650   2.247   4.492  10.605 -1.7539 -2.5474 -0.8513
  387TIP3   OH222651   5.188   4.610   0.529  0.2594 -0.4757  0.1492
  387TIP3    H122652   5.218   4.700   0.520  0.2695 -0.6028 -1.4527
  387TIP3    H222653   5.252   4.568   0.586 -0.6249  0.8965  2.2552
  388TIP3   OH222654   0.396   5.678   0.153  0.1363 -0.0170 -0.1444
  388TIP3    H122655   0.326   5.625   0.114 -0.6115  0.9453 -0.1470
  388TIP3    H222656   0.477   5.640   0.118 -0.4622  0.1133 -1.7618
  389TIP3   OH222657   5.468   2.743   5.426  0.0975 -0.2724 -0.1524
  389TIP3    H122658   5.459   2.742   5.331 -0.0287  2.9228 -0.2893
  389TIP3    H222659   5.435   2.829   5.452  0.0048 -1.0945  2.8237
  390TIP3   OH222660   1.505   5.426  13.953  0.5293  0.0360 -0.2549
  390TIP3    H122661   1.555   5.387  13.881 -0.9262 -1.7144 -0.3934
  390TIP3    H222662   1.413   5.418  13.925  0.0769  1.9897  0.5375
  391TIP3   OH222663   2.384   2.529  15.984 -0.1344  0.4257  0.4440
  391TIP3    H122664   2.375   2.621  16.010 -1.0634  0.2958  0.6065
  391TIP3    H222665   2.322   2.519  15.912  1.3955  0.4223 -0.9420
  392TIP3   OH222666   3.515   0.844  16.705  0.1193  0.0857  0.0529
  392TIP3    H122667   3.454   0.816  16.637 -1.5765  0.6004  1.2862
  392TIP3    H222668   3.597   0.859  16.659 -0.2312 -2.1480 -1.4262
  393TIP3   OH222669   4.172   5.171   1.952  0.2796  0.3869 -0.0115
  393TIP3    H122670   4.083   5.189   1.924 -0.5100 -0.4608  1.7827
  393TIP3    H222671   4.189   5.235   2.022  0.4997 -0.4292  0.6981
  394TIP3   OH222672   0.016   3.277   1.602 -0.4737 -0.2100  0.3098
  394TIP3    H122673   0.040   3.195   1.558 -1.3332  0.9975 -2.6633
  394TIP3    H222674  -0.078   3.267   1.620 -0.7697  0.3899 -0.8143
  395TIP3   OH222675   0.258   1.343   5.831  0.5592  0.6823 -1.2418
  395TIP3    H122676   0.307   1.262   5.845 -0.9990 -0.2700 -1.0130
  395TIP3    H222677   0.262   1.388   5.915  1.3623  0.8202 -1.3444
  396TIP3   OH222678   1.590   4.099  15.092 -0.6044 -0.8438 -0.7854
  396TIP3    H122679   1.642   4.173  15.058 -1.9584  1.5306  1.8493
  396TIP3    H222680   1.546   4.064  15.015 -0.5887  1.7017 -2.0863
  397TIP3   OH222681   3.451   4.191   3.828 -0.2853 -0.3924  0.5467
  397TIP3    H122682   3.475   4.241   3.906  0.0762 -0.7527  0.6691
  397TIP3    H222683   3.525   4.134   3.813  0.0811  0.3798 -0.6566
  398TIP3   OH222684   0.590   0.812   5.296 -0.0540  0.6509 -0.2632
  398TIP3    H122685   0.679   0.835   5.324 -0.2084  2.2846 -1.0328
  398TIP3    H222686   0.539   0.813   5.377  0.7743 -1.3219  0.3581
  399TIP3   OH222687   2.766   2.351  13.489 -0.2103 -0.1020  0.1973
  399TIP3    H122688   2.745   2.334  13.581 -0.5041  0.4344  0.2335
  399TIP3    H222689   2.744   2.270  13.444  1.0482 -0.8028  0.7637
  400TIP3   OH222690   5.131   4.584  12.688 -0.0683 -0.0286  0.6576
  400TIP3    H122691   5.105   4.614  12.775  0.8056  1.5923  0.4183
  400TIP3    H222692   5.129   4.489  12.692 -1.3843  0.0353  2.0234
  401TIP3   OH222693   1.941   0.017   5.137 -0.1482  0.0958  0.2157
  401TIP3    H122694   1.849  -0.009   5.136 -1.3737  3.8238 -0.9465
  401TIP3    H222695   1.953   0.056   5.223 -0.2519  1.2823 -0.2921
  402TIP3   OH222696   3.477   3.461  11.848  0.6240  0.0529 -0.4695
  402TIP3    H122697   3.385   3.473  11.870  1.2155  1.1523  1.7372
  402TIP3    H222698   3.490   3.366  11.849 -0.1797 -0.0634  0.7163
  403TIP3   OH222699   6.573   5.262  13.398  0.3312  0.5691 -0.2419
  403TIP3    H122700   6.619   5.265  13.481 -0.3145  0.0471  0.1431
  403TIP3    H222701   6.631   5.212  13.340  0.8649  1.0946 -0.1738
  404TIP3   OH222702   1.664   0.236   6.894 -0.0420  0.4151 -0.4260
  404TIP3    H122703   1.709   0.308   6.850 -0.3545  1.0403  0.2534
  404TIP3    H222704   1.571   0.261   6.894 -0.4420 -0.9071 -1.9013
  405TIP3   OH222705   4.823   1.343   0.563 -0.4554 -0.5871  0.0447
  405TIP3    H122706   4.811   1.292   0.643 -0.2751  0.6997  0.9153
  405TIP3    H222707   4.772   1.296   0.497 -1.1024 -1.3428  1.0524
  406TIP3   OH222708   6.100   5.462  11.573  0.3424 -0.1300  0.0559
  406TIP3    H122709   6.041   5.388  11.587  1.3916 -1.3551 -1.6305
  406TIP3    H222710   6.061   5.510  11.500 -0.1410  0.8262  0.9115
  407TIP3   OH222711   3.838   2.882  11.903 -0.8695 -0.2705  0.8589
  407TIP3    H122712   3.901   2.932  11.850 -2.1674  0.4681 -0.0312
  407TIP3    H222713   3.854   2.791  11.880 -1.1282  0.0106 -0.5028
  408TIP3   OH222714   6.485   5.159  14.564 -0.2020 -0.1657  0.5881
  408TIP3    H122715   6.425   5.119  14.627 -0.2214 -0.2279  0.5307
  408TIP3    H222716   6.428   5.211  14.507 -0.0374  1.1057  1.5284
  409TIP3   OH222717   5.242   1.022   6.011 -0.3767 -0.4438  0.5458
  409TIP3    H122718   5.152   0.993   5.999  0.0906 -2.5852  1.7415
  409TIP3    H222719   5.243   1.063   6.098 -0.0766 -1.0080  0.8121
  410TIP3   OH222720   2.402   0.319   1.683  0.2283 -0.2903 -0.0753
  410TIP3    H122721   2.317   0.292   1.718  0.1565  0.4009  0.2924
  410TIP3    H222722   2.449   0.354   1.759  0.5714 -0.0050 -0.4182
  411TIP3   OH222723   5.309   4.901  12.486 -0.3006 -0.2068  0.4438
  411TIP3    H122724   5.323   4.806  12.487  0.0472 -0.1544  0.9095
  411TIP3    H222725   5.217   4.913  12.507 -0.5336 -0.4692 -0.3750
  412TIP3   OH222726   2.490   6.591   6.025  0.3737  0.3577 -0.1661
  412TIP3    H122727   2.425   6.661   6.026 -1.6466 -1.3369  2.4943
  412TIP3    H222728   2.443   6.514   5.992  2.1799 -0.1268 -1.8453
  413TIP3   OH222729   4.649   1.193  13.620 -0.6548  0.0225 -0.1633
  413TIP3    H122730   4.719   1.172  13.559  0.1442  1.1432  0.3198
  413TIP3    H222731   4.689   1.253  13.683 -1.5328 -0.8349  1.2760
  414TIP3   OH222732   1.612   4.510  13.580 -0.5161 -0.5500 -0.0482
  414TIP3    H122733   1.558   4.559  13.643 -1.9124 -1.3278 -0.5857
  414TIP3    H222734   1.599   4.418  13.603  2.1890 -0.7513  1.0402
  415TIP3   OH222735   4.592   5.138   4.261 -0.1327  0.0352 -0.1447
  415TIP3    H122736   4.611   5.228   4.287  2.0843 -0.1565 -0.8635
  415TIP3    H222737   4.513   5.116   4.309 -0.1426  2.0088  0.8824
  416TIP3   OH222738   6.268   2.002   5.704  0.5614  0.4737  0.4104
  416TIP3    H122739   6.350   2.050   5.717  0.9819  0.8640 -2.8387
  416TIP3    H222740   6.235   2.033   5.619 -2.9978  0.3168  1.5715
  417TIP3   OH222741   5.140   4.588  15.893 -0.6251 -0.1035 -0.1631
  417TIP3    H122742   5.062   4.616  15.941 -0.1879 -1.3706  1.3661
  417TIP3    H222743   5.131   4.493  15.887 -0.0980 -0.0810 -1.6295
  418TIP3   OH222744   3.309   2.043   1.375  0.4060  0.5799 -0.6646
  418TIP3    H122745   3.315   1.957   1.332 -1.5883  0.4430 -0.7739
  418TIP3    H222746   3.385   2.046   1.433  0.2736 -1.4771 -0.3003
  419TIP3   OH222747   5.765   2.662   4.160  0.0793 -0.5252  0.1821
  419TIP3    H122748   5.731   2.721   4.092  2.0572  0.6876  0.1664
  419TIP3    H222749   5.706   2.673   4.234  0.2512  1.2835  0.0760
  420TIP3   OH222750   6.702   2.702  16.498  0.0968  0.0682  0.0125
  420TIP3    H122751   6.738   2.788  16.521  2.7287 -0.7891 -0.5302
  420TIP3    H222752   6.729   2.645  16.570  0.3970 -0.7585 -0.7366
  421TIP3   OH222753   3.294   5.087   4.561  0.4785  0.1821  0.2583
  421TIP3    H122754   3.255   5.146   4.625  1.1521  1.4681 -0.4627
  421TIP3    H222755   3.222   5.063   4.503 -0.4428 -2.1024  2.2252
  422TIP3   OH222756   6.717   4.274  15.254 -0.2276 -0.1547  0.1505
  422TIP3    H122757   6.708   4.282  15.349  2.9973  0.4794  0.5224
  422TIP3    H222758   6.690   4.360  15.220  0.1353  0.1792  0.6795
  423TIP3   OH222759   0.433   6.672   3.934 -0.9663 -0.1697  0.2660
  423TIP3    H122760   0.406   6.686   4.025  3.0043 -0.5204  1.6852
  423TIP3    H222761   0.458   6.579   3.931  0.6372  0.2522 -0.5958
  424TIP3   OH222762   2.194   3.980  14.246  0.2841  0.2222 -0.2652
  424TIP3    H122763   2.283   3.991  14.211  0.8514 -3.6932 -0.5600
  424TIP3    H222764   2.193   4.032  14.326  2.3198  1.5281 -0.9929
  425TIP3   OH222765   1.122   1.168  12.910 -0.0077  0.3229 -0.2089
  425TIP3    H122766   1.071   1.237  12.866  0.6824  0.4340 -0.8617
  425TIP3    H222767   1.147   1.108  12.839  0.0324 -0.1973  0.2399
  426TIP3   OH222768   6.815   1.975  13.126 -0.3146 -0.6680 -0.3790
  426TIP3    H122769   6.770   1.919  13.062  0.7869  0.7095 -2.5101
  426TIP3    H222770   6.905   1.942  13.128 -0.1214 -0.1485 -0.2543
  427TIP3   OH222771   0.974   2.571   2.139  0.7240 -0.3477 -0.2033
  427TIP3    H122772   0.957   2.493   2.087  3.1049 -0.1475 -1.4091
  427TIP3    H222773   0.887   2.601   2.167 -0.6305 -0.8838 -3.4406
  428TIP3   OH222774   4.807   6.138  11.645 -0.0730  0.0777  0.1506
  428TIP3    H122775   4.764   6.059  11.676  0.1841 -0.0466  0.1956
  428TIP3    H222776   4.861   6.110  11.572  1.1188 -0.0590  1.0485
  429TIP3   OH222777   6.395   6.389   5.429  0.2140 -0.3464  0.5185
  429TIP3    H122778   6.306   6.412   5.406  0.0684  1.6594  2.7223
  429TIP3    H222779   6.447   6.407   5.351 -1.1684 -0.8079 -0.5301
  430TIP3   OH222780   0.919   2.825  15.413 -0.3235  0.5967  0.4297
  430TIP3    H122781   0.970   2.901  15.385 -0.0488  0.5494  0.8017
  430TIP3    H222782   0.904   2.839  15.506  0.9975 -0.5244  0.8378
  431TIP3   OH222783   1.543   3.599   1.879  0.0540 -0.2361  0.2683
  431TIP3    H122784   1.496   3.600   1.796 -0.1025  0.9686  0.3570
  431TIP3    H222785   1.600   3.677   1.876  1.8539 -1.4783  0.2736
  432TIP3   OH222786   5.305   4.245  12.867 -0.6251  0.5748  0.7572
  432TIP3    H122787   5.230   4.248  12.808 -1.0058  1.4268  1.2742
  432TIP3    H222788   5.294   4.164  12.917 -1.1257  0.6268  0.7326
  433TIP3   OH222789   1.027   0.589  11.272 -0.1881 -0.9615 -0.2845
  433TIP3    H122790   1.120   0.571  11.283 -0.0870  0.1723  1.0849
  433TIP3    H222791   0.984   0.505  11.288  0.5599 -1.3653 -0.3563
  434TIP3   OH222792   0.619   6.277  11.728 -0.3183 -0.8073 -0.4019
  434TIP3    H122793   0.651   6.198  11.685  0.7005 -0.9974  0.6400
  434TIP3    H222794   0.602   6.339  11.657  2.1630 -0.7922 -1.0460
  435TIP3   OH222795   1.090   4.555   5.514 -0.4945 -0.4466  0.3203
  435TIP3    H122796   1.056   4.525   5.430 -2.3953 -1.4343  1.3828
  435TIP3    H222797   1.101   4.475   5.565  0.8036  0.1182  0.9852
  436TIP3   OH222798   5.641   2.961  14.824  0.5679  0.2316 -0.1573
  436TIP3    H122799   5.564   2.960  14.766 -1.0765 -1.2312  1.8731
  436TIP3    H222800   5.686   2.879  14.806 -1.7359 -1.8567  2.6371
  437TIP3   OH222801   6.492   0.762   5.463  0.5707  0.2051  0.2416
  437TIP3    H122802   6.527   0.821   5.530  0.3126 -0.4751  0.9796
  437TIP3    H222803   6.551   0.773   5.389  1.1297  0.6204  0.7398
  438TIP3   OH222804   1.155   3.007  11.612 -0.0324  0.4524  0.0141
  438TIP3    H122805   1.107   2.965  11.540 -0.5294  0.1652  0.4994
  438TIP3    H222806   1.191   3.087  11.574  0.6927 -0.2642 -0.8560
  439TIP3   OH222807   1.085   3.575   4.594 -0.4191 -0.6623 -0.2666
  439TIP3    H122808   1.176   3.566   4.563  0.6291  1.4522  1.8760
  439TIP3    H222809   1.041   3.622   4.524  0.7185  0.1349 -0.4861
  440TIP3   OH222810   2.027   2.207  16.953  0.1054  0.2853  0.1910
  440TIP3    H122811   1.975   2.282  16.979  0.1117 -0.0045  1.1000
  440TIP3    H222812   2.016   2.144  17.025 -0.2248 -0.7435 -0.7296
  441TIP3   OH222813   2.369   5.152   3.823 -0.6971  0.4195  0.4776
  441TIP3    H122814   2.387   5.245   3.832 -0.3702  0.3692  0.3523
  441TIP3    H222815   2.342   5.141   3.731  1.4601  0.0428 -0.1679
  442TIP3   OH222816   3.190   6.650   6.163 -0.1370 -0.2004 -0.0004
  442TIP3    H122817   3.220   6.677   6.250  0.6424 -1.6907  0.2199
  442TIP3    H222818   3.236   6.708   6.103  0.3232 -0.0142  0.5255
  443TIP3   OH222819   3.221   5.668   1.736  0.6333 -0.1028 -0.0552
  443TIP3    H122820   3.189   5.601   1.675  0.4498 -1.2399  1.2361
  443TIP3    H222821   3.153   5.736   1.734 -1.4963 -1.9916  1.8384
  444TIP3   OH222822   1.827   0.558  15.095  0.1291 -0.3348  0.3096
  444TIP3    H122823   1.917   0.544  15.065  0.7482  0.8996  1.4962
  444TIP3    H222824   1.827   0.530  15.186  0.0323  1.9997  1.1065
  445TIP3   OH222825   4.454   1.968   3.675  0.1889 -0.1735 -0.2201
  445TIP3    H122826   4.474   2.036   3.740  0.0707 -2.0344  1.9077
  445TIP3    H222827   4.533   1.913   3.672 -1.4534 -3.0124  2.3031
  446TIP3   OH222828   5.855   6.756   4.277  0.5372 -0.6433  0.5168
  446TIP3    H122829   5.767   6.761   4.240  0.6425 -1.4254  0.1326
  446TIP3    H222830   5.904   6.702   4.215  1.3685  0.0085  0.5810
  447TIP3   OH222831   0.936   1.353  12.863  0.6214  0.5894  0.3033
  447TIP3    H122832   0.890   1.359  12.780  1.6087  0.1201 -0.2885
  447TIP3    H222833   0.866   1.347  12.929 -0.1598  0.7803 -0.4968
  448TIP3   OH222834   4.039   4.665  16.315 -0.5432  0.4584 -0.2053
  448TIP3    H122835   3.990   4.651  16.234  0.3844 -0.0213 -0.6989
  448TIP3    H222836   4.125   4.626  16.298  0.4298  2.3500  0.1984
  449TIP3   OH222837   3.061   5.512  15.120  0.2417 -0.3358  0.7232
  449TIP3    H122838   3.027   5.574  15.184 -0.3331  0.5191 -0.3928
  449TIP3    H222839   2.984   5.462  15.092 -0.0912  1.2367 -1.3985
  450TIP3   OH222840   0.978   0.563   3.430 -0.7457 -0.4118 -0.6900
  450TIP3    H122841   1.059   0.615   3.430 -0.3084 -0.7796 -4.7538
  450TIP3    H222842   1.008   0.473   3.444 -0.0607 -0.7693 -3.6968
  451TIP3   OH222843   5.624   1.417  11.358 -0.2650  0.1210 -0.1454
  451TIP3    H122844   5.654   1.434  11.447 -0.3863  2.4687 -0.4921
  451TIP3    H222845   5.535   1.451  11.355 -0.9469 -1.6104 -0.6953
  452TIP3   OH222846   4.218   3.261  17.102  0.0706 -0.1154  0.1582
  452TIP3    H122847   4.232   3.295  17.190 -0.7318 -0.5327  0.4538
  452TIP3    H222848   4.137   3.304  17.072 -1.1560 -1.9679  0.6662
  453TIP3   OH222849   6.381   3.517   2.607 -0.0362  0.5274 -0.5700
  453TIP3    H122850   6.300   3.525   2.556  0.1003  1.9325 -0.6193
  453TIP3    H222851   6.358   3.459   2.679 -0.6417 -0.3323 -1.4232
  454TIP3   OH222852   3.755   2.746  12.176 -0.4250 -0.7500 -0.0871
  454TIP3    H122853   3.725   2.727  12.087  2.4552  1.5185 -1.7665
  454TIP3    H222854   3.823   2.680  12.193  0.5443  0.0981 -0.5435
  455TIP3   OH222855   5.005   5.043  15.118 -0.6816 -0.9618  0.2027
  455TIP3    H122856   4.975   5.008  15.201 -0.4590 -1.8826 -0.0960
  455TIP3    H222857   4.975   4.980  15.052 -1.7442  0.2636 -0.5347
  456TIP3   OH222858   5.732   1.928  15.760  0.3428 -0.0256  0.0928
  456TIP3    H122859   5.651   1.883  15.782  0.1219  0.0127 -0.6167
  456TIP3    H222860   5.798   1.887  15.817 -0.5176  1.4454  2.2873
  457TIP3   OH222861   5.655   2.086   5.236 -0.0698 -0.4519  0.5653
  457TIP3    H122862   5.673   2.153   5.302 -0.1257 -0.0108  0.1391
  457TIP3    H222863   5.628   2.136   5.159  1.7161 -0.8479 -0.3776
  458TIP3   OH222864   3.978   3.498  11.866 -0.7678  0.1761  0.3600
  458TIP3    H122865   3.983   3.462  11.954  1.9524  1.3012  0.7470
  458TIP3    H222866   3.906   3.450  11.825 -0.5491 -2.0911  2.4056
  459TIP3   OH222867   5.443   5.503   2.137 -0.2951  0.4460 -1.1636
  459TIP3    H122868   5.358   5.497   2.181 -0.3126 -0.5178 -1.3041
  459TIP3    H222869   5.431   5.456   2.054  0.5423 -0.2772 -0.8970
  460TIP3   OH222870   0.482   2.184   5.516  0.1054 -0.1732  0.1925
  460TIP3    H122871   0.528   2.201   5.599  0.7248  0.4401 -0.2669
  460TIP3    H222872   0.508   2.256   5.459 -1.1118 -0.0440 -0.2253
  461TIP3   OH222873   2.373   4.600  15.689 -0.2222  0.0476 -0.2569
  461TIP3    H122874   2.463   4.569  15.699 -0.1858  0.0436 -0.5824
  461TIP3    H222875   2.367   4.675  15.748 -0.6283 -1.1951  1.3396
  462TIP3   OH222876   5.250   5.056   3.405  0.2802 -0.5787 -0.4032
  462TIP3    H122877   5.251   5.011   3.490  0.4827 -2.0470 -1.1476
  462TIP3    H222878   5.307   5.132   3.417  0.0277 -0.5747  0.8680
  463TIP3   OH222879   2.503   1.218  10.713 -0.1307 -0.8768 -0.3941
  463TIP3    H122880   2.441   1.209  10.641  0.7170  0.7104 -1.3828
  463TIP3    H222881   2.588   1.195  10.674  0.4802  0.8956 -0.2036
  464TIP3   OH222882   0.665   1.703  12.709 -0.1328  0.2392 -0.1599
  464TIP3    H122883   0.757   1.729  12.717 -0.5643  2.1665 -0.8687
  464TIP3    H222884   0.646   1.654  12.789  1.4472 -0.0092  0.0868
  465TIP3   OH222885   2.578   6.000  10.736  0.2978  0.4192 -0.0815
  465TIP3    H122886   2.598   5.928  10.676 -1.8459 -0.2336 -0.0863
  465TIP3    H222887   2.568   6.076  10.679  0.3282  0.2411 -0.3273
  466TIP3   OH222888   4.467   1.497   5.029 -0.0136  0.2159 -0.1025
  466TIP3    H122889   4.527   1.422   5.036 -0.8423 -0.6776 -1.8059
  466TIP3    H222890   4.524   1.573   5.027  0.8391 -0.2598  2.1920
  467TIP3   OH222891   1.546   0.044   5.561 -0.5892  0.4678 -0.4278
  467TIP3    H122892   1.529   0.117   5.620 -1.5288  0.2407 -0.3951
  467TIP3    H222893   1.462   0.027   5.519  0.1480  0.9027 -2.1652
  468TIP3   OH222894   2.739   6.103  15.603  0.3409 -0.3463 -0.2507
  468TIP3    H122895   2.645   6.114  15.593  0.4979  0.7987 -0.6973
  468TIP3    H222896   2.759   6.141  15.689  0.1766 -2.2196  0.6593
  469TIP3   OH222897   0.330   5.204  14.236  0.4304  0.3049 -0.4611
  469TIP3    H122898   0.407   5.167  14.280  0.8022  1.5821 -0.0035
  469TIP3    H222899   0.282   5.249  14.306  1.0385  2.3811 -1.3137
  470TIP3   OH222900   5.625   1.769   4.169  0.5026 -0.2856 -0.6782
  470TIP3    H122901   5.715   1.795   4.150  1.2181 -1.9259  0.2422
  470TIP3    H222902   5.585   1.847   4.208  1.0088  0.9733 -2.5446
  471TIP3   OH222903   1.853   2.161  15.644  0.0264  0.1644  0.6167
  471TIP3    H122904   1.856   2.245  15.598 -0.3155  0.4122  1.0403
  471TIP3    H222905   1.938   2.155  15.687  1.0994 -0.9069 -1.4695
  472TIP3   OH222906   2.435   2.345  12.049  0.2274  0.1069  0.2595
  472TIP3    H122907   2.519   2.342  12.095  0.2246 -1.9406  0.2420
  472TIP3    H222908   2.451   2.299  11.967 -0.7221  0.3677 -0.0835
  473TIP3   OH222909   6.630   0.084   2.276 -0.1167  0.5700  0.0645
  473TIP3    H122910   6.578   0.029   2.218 -0.4354  0.0575  0.8085
  473TIP3    H222911   6.632   0.169   2.234 -1.0224  0.4221 -0.3015
  474TIP3   OH222912   4.164   0.653   3.869  0.7399 -0.1579  0.4067
  474TIP3    H122913   4.183   0.562   3.890 -0.6908 -0.5327  0.1666
  474TIP3    H222914   4.250   0.696   3.867  1.2670 -0.9392  2.9575
  475TIP3   OH222915   5.201   4.316   5.302 -0.0088  0.5045  0.4304
  475TIP3    H122916   5.115   4.342   5.270  0.0569 -1.1189 -1.2493
  475TIP3    H222917   5.239   4.396   5.336 -1.6015  1.5690 -0.1786
  476TIP3   OH222918   5.867   0.501  13.555 -0.1791 -0.6516  0.1175
  476TIP3    H122919   5.828   0.414  13.551 -1.1029 -0.2171 -0.9436
  476TIP3    H222920   5.857   0.536  13.466 -0.3273  0.7408  0.6519
  477TIP3   OH222921   0.307   3.629   5.925 -0.7810  0.1854  0.0000
  477TIP3    H122922   0.223   3.584   5.914 -0.1975 -0.5883 -1.8347
  477TIP3    H222923   0.371   3.557   5.935  0.0503  0.5702 -2.0233
  478TIP3   OH222924   4.916   2.669  14.030 -0.0124 -0.0548  0.4078
  478TIP3    H122925   4.958   2.605  14.087  0.5649  1.2462  1.5152
  478TIP3    H222926   4.877   2.618  13.959  0.8698 -1.5554  0.9795
  479TIP3   OH222927   5.938   5.816   2.727  0.5497 -0.3644  0.2702
  479TIP3    H122928   6.031   5.816   2.749  0.9561  0.5764 -1.2346
  479TIP3    H222929   5.905   5.899   2.761  0.5794 -0.1055 -0.3127
  480TIP3   OH222930   5.247   4.171  16.809  0.0645 -0.4218  0.4071
  480TIP3    H122931   5.231   4.111  16.737  1.2132 -0.7310  0.3911
  480TIP3    H222932   5.210   4.254  16.780 -1.8061 -1.1616  0.5543
  481TIP3   OH222933   5.918   5.847  12.640  0.1811  0.2145 -0.5065
  481TIP3    H122934   5.991   5.895  12.680 -0.5407 -0.0757  1.2680
  481TIP3    H222935   5.951   5.758  12.628  0.0333 -0.0093  0.6291
  482TIP3   OH222936   3.024   0.589  13.206 -0.1544 -0.1374  0.1601
  482TIP3    H122937   3.114   0.565  13.184  0.8978  1.5484  2.2096
  482TIP3    H222938   2.971   0.518  13.172  1.6692 -0.0482 -3.2878
  483TIP3   OH222939   2.352   1.389   0.002  0.0519 -0.3578 -1.0788
  483TIP3    H122940   2.349   1.336  -0.078  1.1199 -1.5506 -0.3814
  483TIP3    H222941   2.387   1.473  -0.026 -0.7632 -0.3327 -2.0668
  484TIP3   OH222942   5.839   4.626   0.962 -0.5720 -0.0011 -0.1549
  484TIP3    H122943   5.883   4.566   0.901  0.3721  1.0845 -0.5712
  484TIP3    H222944   5.768   4.574   0.998 -0.4425 -1.0482 -1.3145
  485TIP3   OH222945   0.995   6.026  15.458  0.5163  0.3293  0.1276
  485TIP3    H122946   1.002   6.052  15.366  0.0190 -0.9692 -0.3024
  485TIP3    H222947   0.904   6.000  15.468  0.8289 -0.5960  0.6812
  486TIP3   OH222948   0.376   6.145  11.880  0.2894  0.2166 -1.2570
  486TIP3    H122949   0.421   6.087  11.942  0.0150  0.3331 -0.9428
  486TIP3    H222950   0.445   6.199  11.842  0.7638 -1.2890 -2.6354
  487TIP3   OH222951   6.167   3.597   0.580 -0.3865 -0.3132 -0.3846
  487TIP3    H122952   6.076   3.603   0.607 -0.3747 -1.1265 -0.1466
  487TIP3    H222953   6.217   3.616   0.659 -0.3517 -0.0343 -0.4745
  488TIP3   OH222954   5.170   3.821  15.882 -0.0733  0.9340  0.0572
  488TIP3    H122955   5.177   3.799  15.975  1.3801  0.1983 -0.1938
  488TIP3    H222956   5.179   3.916  15.878 -0.6749  1.0206  0.7060
  489TIP3   OH222957   2.745   1.338  17.216 -0.6218 -0.0041  0.0276
  489TIP3    H122958   2.799   1.358  17.140 -0.1867 -2.3161 -0.3257
  489TIP3    H222959   2.741   1.243  17.219 -1.2583  0.0306  2.4683
  490TIP3   OH222960   1.462   2.558   6.674  0.4797  0.1603 -0.1149
  490TIP3    H122961   1.447   2.630   6.735 -0.4187  0.5228 -0.7463
  490TIP3    H222962   1.552   2.530   6.692 -0.9100 -2.4477  4.2130
  491TIP3   OH222963   2.168   5.814  11.558  0.2618 -0.3684  0.0521
  491TIP3    H122964   2.109   5.819  11.482 -0.5440  0.4050  0.7036
  491TIP3    H222965   2.200   5.904  11.569 -0.1052 -0.3397  0.9881
  492TIP3   OH222966   0.410   3.073   0.987 -0.6637  0.1537  0.3579
  492TIP3    H122967   0.322   3.096   0.956 -0.8040 -0.9033 -0.0728
  492TIP3    H222968   0.395   3.010   1.058 -0.2865  1.2486  1.4628
  493TIP3   OH222969   5.040   0.497   5.616 -0.5806 -0.4359  0.1130
  493TIP3    H122970   5.122   0.471   5.659  0.8049  2.2724 -0.6188
  493TIP3    H222971   4.996   0.553   5.680  0.4457  1.8360 -1.0404
  494TIP3   OH222972   4.545   2.728   2.482 -0.0063 -0.0565  0.3410
  494TIP3    H122973   4.583   2.784   2.414 -2.5588 -1.6437 -2.6526
  494TIP3    H222974   4.621   2.690   2.527  1.8016  1.6020 -1.1109
  495TIP3   OH222975   2.855   1.638  16.912  0.0903 -0.4004  0.3778
  495TIP3    H122976   2.935   1.621  16.863  0.4198 -0.8771  1.0716
  495TIP3    H222977   2.823   1.552  16.938  1.2039 -0.1273  3.0076
  496TIP3   OH222978   0.132   3.001   4.498 -0.1167 -0.2610 -0.2448
  496TIP3    H122979   0.078   3.040   4.567 -0.4698 -1.8945  0.4502
  496TIP3    H222980   0.115   2.907   4.505  0.1202 -0.5013 -2.3468
  497TIP3   OH222981   1.965   4.730   0.865  0.0990 -0.4045  0.0983
  497TIP3    H122982   1.876   4.760   0.884  1.5026  3.3965  1.7069
  497TIP3    H222983   1.994   4.687   0.945  0.4643  0.5464  0.4911
  498TIP3   OH222984   1.899   2.428  11.827 -0.7099 -0.0550 -0.3029
  498TIP3    H122985   1.859   2.472  11.903  0.1200  2.6833 -1.3490
  498TIP3    H222986   1.824   2.406  11.771 -1.0831  1.2006 -0.3254
  499TIP3   OH222987   0.968   0.613   2.228 -0.2592 -0.1516 -0.2444
  499TIP3    H122988   0.986   0.687   2.286  0.1461 -0.9180  0.6438
  499TIP3    H222989   1.012   0.635   2.146 -1.4597  1.2889 -0.5491
  500TIP3   OH222990   4.943   1.861   0.793 -0.3491 -0.4365  0.1141
  500TIP3    H122991   4.888   1.908   0.857  0.8258  1.5325 -0.2252
  500TIP3    H222992   5.010   1.818   0.846 -1.3359 -1.6515  0.4197
  501TIP3   OH222993   5.576   2.643  11.453  0.0092  0.0040  0.3975
  501TIP3    H122994   5.604   2.657  11.544  1.1373  1.3529 -0.1256
  501TIP3    H222995   5.523   2.719  11.432 -0.8427 -0.6520  0.1265
  502TIP3   OH222996   1.344   5.356  17.105  0.7550  0.1384  0.5242
  502TIP3    H122997   1.408   5.329  17.171  1.0774  0.3448  0.3004
  502TIP3    H222998   1.390   5.422  17.052  1.3715 -1.7532 -1.4499
  503TIP3   OH222999   1.162   0.341   4.049 -0.5815  0.3295 -0.0912
  503TIP3    H123000   1.184   0.249   4.039 -1.3787  0.0540  0.5773
  503TIP3    H223001   1.098   0.343   4.121 -0.3345  1.4297  0.1223
  504TIP3   OH223002   6.303   5.141   5.792 -0.3094  0.4316 -0.0279
  504TIP3    H123003   6.265   5.054   5.790  1.7036 -0.5107 -0.4687
  504TIP3    H223004   6.396   5.126   5.811 -0.2005  2.5993  1.5685
  505TIP3   OH223005   5.570   4.880   3.142 -0.1093  0.0108 -0.1322
  505TIP3    H123006   5.530   4.810   3.091  0.3569 -1.0367  0.8952
  505TIP3    H223007   5.595   4.839   3.225 -1.8737  1.8618  1.4521
  506TIP3   OH223008   3.248   2.437   1.237 -0.5779 -0.6354  0.4366
  506TIP3    H123009   3.284   2.513   1.190  0.7194 -1.1292  0.5883
  506TIP3    H223010   3.241   2.369   1.171 -2.5760 -0.1565  0.1061
  507TIP3   OH223011   6.471   0.924  15.784 -0.3221 -0.4299 -0.4969
  507TIP3    H123012   6.416   0.937  15.707  1.4021 -2.0919 -2.0972
  507TIP3    H223013   6.525   1.003  15.788 -1.0032  0.0435 -0.4533
  508TIP3   OH223014   5.255   3.075  10.538  0.2585 -0.1540 -0.7552
  508TIP3    H123015   5.303   3.085  10.456 -0.5988 -1.4586 -1.4471
  508TIP3    H223016   5.312   3.113  10.604  1.1810  0.4812 -1.8850
  509TIP3   OH223017   4.289   4.049  13.546 -0.9868  0.2117 -0.1801
  509TIP3    H123018   4.201   4.078  13.571 -1.1260  0.3453 -0.8117
  509TIP3    H223019   4.275   3.993  13.470 -0.4061  1.3771 -1.1641
  510TIP3   OH223020   2.844   5.818   5.053 -0.1564  0.0412 -0.0960
  510TIP3    H123021   2.830   5.809   5.147 -0.1250  1.0636  0.0110
  510TIP3    H223022   2.756   5.825   5.016 -0.2094 -1.0898 -0.2418
  511TIP3   OH223023   3.073   4.658   3.231 -0.4745 -0.2082 -0.4809
  511TIP3    H123024   3.164   4.632   3.245 -0.4075 -0.6118 -1.5957
  511TIP3    H223025   3.039   4.595   3.168 -2.5504 -2.2180  2.3707
  512TIP3   OH223026   0.650   2.310  15.473 -0.2236 -0.2236 -0.5788
  512TIP3    H123027   0.689   2.353  15.550 -1.3178  1.1847 -0.7684
  512TIP3    H223028   0.631   2.381  15.412  0.1858 -1.2703 -1.9773
  513TIP3   OH223029   6.622   3.758   0.621 -0.1795 -0.3846 -0.0352
  513TIP3    H123030   6.576   3.675   0.630 -1.0379  0.1565  0.7399
  513TIP3    H223031   6.649   3.760   0.529  0.0917 -1.6295 -0.0018
  514TIP3   OH223032   2.690   5.266   2.744 -0.0181 -0.6101  0.2300
  514TIP3    H123033   2.641   5.201   2.694 -1.1240  0.3847 -0.0134
  514TIP3    H223034   2.761   5.293   2.685 -0.3953 -0.5675 -0.2066
  515TIP3   OH223035   2.627   6.525   0.580 -0.3674 -0.6096 -0.6342
  515TIP3    H123036   2.661   6.524   0.491 -1.1888 -0.9559 -0.9497
  515TIP3    H223037   2.660   6.607   0.617  2.0047 -1.5698 -0.4341
  516TIP3   OH223038   5.728   5.856   5.321 -0.0448  0.4836  0.5812
  516TIP3    H123039   5.789   5.805   5.268 -0.2287 -0.3528  1.1430
  516TIP3    H223040   5.656   5.878   5.262  1.1901  2.2759 -0.3442
  517TIP3   OH223041   2.440   1.469   4.955 -0.0812 -0.4835 -0.3860
  517TIP3    H123042   2.390   1.502   5.030 -0.4045  0.8213 -1.1421
  517TIP3    H223043   2.410   1.523   4.881  2.0823  0.0162 -0.9631
  518TIP3   OH223044   3.258   3.894  12.533 -0.2271  0.2281  0.0009
  518TIP3    H123045   3.283   3.971  12.483 -1.0983  1.6660  1.6764
  518TIP3    H223046   3.340   3.849  12.553  0.3179  0.8949 -0.7143
  519TIP3   OH223047   4.926   0.877  11.334  0.3067 -0.8409  0.0448
  519TIP3    H123048   4.966   0.961  11.354  0.0736 -0.9700  1.1281
  519TIP3    H223049   4.961   0.854  11.248  0.9091  0.0333  0.0386
  520TIP3   OH223050   3.379   4.512  13.235 -0.0667 -0.1759  0.0266
  520TIP3    H123051   3.343   4.600  13.228 -0.2509 -0.4076 -2.7225
  520TIP3    H223052   3.472   4.521  13.212  0.1768 -0.5629  0.7982
  521TIP3   OH223053   1.748   1.176  14.175  0.1263 -0.6271  0.3058
  521TIP3    H123054   1.765   1.262  14.213 -0.4916 -1.1578  1.8431
  521TIP3    H223055   1.787   1.180  14.087  0.4042  1.0889  0.4897
  522TIP3   OH223056   2.235   2.450  12.196  0.1695 -1.0948 -0.0682
  522TIP3    H123057   2.305   2.412  12.144  0.0614 -1.4306  0.0306
  522TIP3    H223058   2.278   2.520  12.246  0.3238 -0.9450 -0.4103
  523TIP3   OH223059   5.709   3.126  10.793 -0.5942  0.4664 -0.0689
  523TIP3    H123060   5.757   3.208  10.782 -1.7333  1.0663 -0.8146
  523TIP3    H223061   5.720   3.080  10.710  0.5583 -0.4555  0.5637
  524TIP3   OH223062   5.797   5.278   0.129 -0.0102  0.0615  0.3596
  524TIP3    H123063   5.853   5.205   0.154 -1.2993 -0.9496  0.3744
  524TIP3    H223064   5.716   5.237   0.097 -1.0136  1.4739  0.9795
  525TIP3   OH223065   2.961   3.334  12.680 -0.3373 -0.1540  0.1903
  525TIP3    H123066   2.891   3.357  12.618  0.0950  0.2847 -0.1490
  525TIP3    H223067   2.977   3.241  12.664  0.4412  0.1730 -1.0718
  526TIP3   OH223068   3.566   2.449  15.825  0.0756  0.5691 -0.8999
  526TIP3    H123069   3.597   2.458  15.735  0.4722  3.1674 -0.5581
  526TIP3    H223070   3.646   2.447  15.878 -0.1855  1.3987 -0.4541
  527TIP3   OH223071   1.869   0.798   0.193  0.3551  0.1215 -0.0498
  527TIP3    H123072   1.952   0.773   0.234  0.0115 -0.3158  0.4000
  527TIP3    H223073   1.887   0.797   0.099  0.6199 -0.8538  0.0040
  528TIP3   OH223074   0.356   5.220   2.214 -0.3167  0.0157  0.2325
  528TIP3    H123075   0.273   5.241   2.258 -0.2828 -0.2868  0.4462
  528TIP3    H223076   0.423   5.258   2.271 -0.3522  1.5127 -0.6583
  529TIP3   OH223077   2.397   4.801  14.460 -0.0858 -0.1462  0.7868
  529TIP3    H123078   2.412   4.755  14.378 -1.2463  0.1262  0.3957
  529TIP3    H223079   2.437   4.887  14.447  0.5339 -0.4178  0.8591
  530TIP3   OH223080   5.896   2.723   3.753 -0.4176 -0.2805 -0.0591
  530TIP3    H123081   5.804   2.695   3.761 -0.1559 -0.5677  2.8046
  530TIP3    H223082   5.892   2.818   3.760 -0.5002 -0.2875 -0.0074
  531TIP3   OH223083   2.765   2.876  11.240  0.3220  0.5373  0.3560
  531TIP3    H123084   2.775   2.782  11.230  0.9134  0.7700 -1.8351
  531TIP3    H223085   2.708   2.886  11.316 -2.0815 -1.7124 -0.9573
  532TIP3   OH223086   5.690   5.140   2.888  0.4513 -0.3666 -0.4599
  532TIP3    H123087   5.756   5.181   2.833 -2.1047  2.3252 -1.7698
  532TIP3    H223088   5.734   5.128   2.973  2.5212  1.5483 -1.1638
  533TIP3   OH223089   5.776   4.457   5.675  0.0231 -0.3761 -0.1897
  533TIP3    H123090   5.741   4.403   5.746  1.6136 -1.8016 -0.4332
  533TIP3    H223091   5.713   4.447   5.604  0.1906 -1.7897 -0.1658
  534TIP3   OH223092   3.779   2.009  10.812  0.7211  0.2077  0.1765
  534TIP3    H123093   3.802   1.919  10.787 -1.7763  0.2306 -2.8330
  534TIP3    H223094   3.686   2.017  10.789 -0.1631  2.5430  3.6858
  535TIP3   OH223095   0.079   3.241   1.333 -0.3630 -0.3385  0.8613
  535TIP3    H123096   0.120   3.326   1.350  0.5765 -0.6444  0.2229
  535TIP3    H223097   0.049   3.246   1.242  1.3891 -1.3176  0.1784
  536TIP3   OH223098   1.035   6.583  16.305  0.5851  0.4791 -0.4366
  536TIP3    H123099   1.055   6.522  16.234  0.1720  0.3451 -0.4415
  536TIP3    H223100   0.987   6.531  16.369  0.9687  0.5958 -0.0487
  537TIP3   OH223101   4.931   2.546  11.342  0.4627  0.2330  0.3830
  537TIP3    H123102   4.868   2.596  11.395 -0.0153 -0.4063  0.4260
  537TIP3    H223103   4.953   2.604  11.270  0.0838  0.5989  0.5560
  538TIP3   OH223104   6.124   1.406   0.024 -0.1390 -0.2024  0.1518
  538TIP3    H123105   6.200   1.463   0.031 -1.0878  1.0900  0.3413
  538TIP3    H223106   6.142   1.334   0.085  1.2614 -0.3424 -0.3899
  539TIP3   OH223107   5.448   3.281  16.212  0.2093 -0.2203  0.0344
  539TIP3    H123108   5.454   3.284  16.117 -0.4849  1.9323  0.0138
  539TIP3    H223109   5.361   3.245  16.230  0.2002 -0.2831 -0.1377
  540TIP3   OH223110   2.748   5.049   4.214  0.2851  0.1473 -0.5233
  540TIP3    H123111   2.734   5.063   4.120 -0.9931  0.8827 -0.2492
  540TIP3    H223112   2.689   4.978   4.237 -1.6833  1.9308  0.2601
  541TIP3   OH223113   3.143   4.446  14.467  0.1946  0.1806  0.2082
  541TIP3    H123114   3.092   4.517  14.505 -0.9826  0.0542 -1.0650
  541TIP3    H223115   3.169   4.478  14.381  1.7784  0.0038  0.5961
  542TIP3   OH223116   0.270   3.575  13.695 -0.0879 -0.5041 -0.8938
  542TIP3    H123117   0.187   3.531  13.671 -0.5093 -2.1620  2.9356
  542TIP3    H223118   0.333   3.543  13.630 -1.3081 -3.6887 -0.6826
  543TIP3   OH223119   4.333   1.397   0.783  0.3370  0.0019  0.0402
  543TIP3    H123120   4.407   1.336   0.787 -0.0608 -0.4726  0.4683
  543TIP3    H223121   4.343   1.442   0.700  1.1498 -0.0004  0.1303
  544TIP3   OH223122   6.558   4.565  17.051  0.6897  1.1564  0.2572
  544TIP3    H123123   6.586   4.515  16.974 -1.1640  0.0939  0.2138
  544TIP3    H223124   6.514   4.642  17.015 -1.1312  0.1230  0.1814
  545TIP3   OH223125   6.607   5.566   4.733 -0.2515  0.0992  0.2645
  545TIP3    H123126   6.679   5.505   4.717  0.9688  1.3546  0.7579
  545TIP3    H223127   6.528   5.512   4.725  0.7778 -1.6430  1.1267
  546TIP3   OH223128   2.524   2.850   0.807 -0.1740 -0.0586 -0.0984
  546TIP3    H123129   2.543   2.855   0.901  0.8341  0.8376 -0.3269
  546TIP3    H223130   2.584   2.914   0.768 -0.9281 -0.0719 -1.3001
  547TIP3   OH223131   1.692   3.030  14.475  0.3923 -0.6176 -0.2130
  547TIP3    H123132   1.608   3.037  14.429  1.5907  0.0619 -2.4546
  547TIP3    H223133   1.671   2.985  14.557 -2.6943  2.2236  0.7841
  548TIP3   OH223134   5.361   3.956  10.784  0.3782  0.1550 -0.0220
  548TIP3    H123135   5.411   4.024  10.739  0.9195 -0.9333 -1.1082
  548TIP3    H223136   5.283   3.944  10.730  0.3267 -0.1552  0.1196
  549TIP3   OH223137   0.111   0.447  16.445  0.4399  0.0551  0.6277
  549TIP3    H123138   0.051   0.499  16.391 -0.1098  1.0139  2.1022
  549TIP3    H223139   0.084   0.357  16.430 -1.4630  0.4631  1.2945
  550TIP3   OH223140   0.343   2.406  17.245 -0.4953  0.5455  0.4878
  550TIP3    H123141   0.382   2.491  17.224  0.3447  0.1170  0.2786
  550TIP3    H223142   0.273   2.427  17.306  0.1367  1.3297  0.9753
  551TIP3   OH223143   2.005   3.576   3.888  0.4108  0.1401  0.2066
  551TIP3    H123144   1.914   3.550   3.898  0.3879 -0.3282 -1.1596
  551TIP3    H223145   2.022   3.632   3.965 -0.3055 -1.6785  1.7717
  552TIP3   OH223146   4.086   5.378   1.378  0.1663  0.2782  0.5260
  552TIP3    H123147   4.084   5.468   1.409  4.0240  0.8334 -0.3018
  552TIP3    H223148   4.071   5.384   1.284 -1.2749 -0.2076  0.7005
  553TIP3   OH223149   2.441   3.382  12.542 -0.4742  0.0825 -0.1835
  553TIP3    H123150   2.371   3.325  12.511  0.4102 -1.4731  0.5942
  553TIP3    H223151   2.407   3.420  12.623  0.0937 -1.8070  0.9827
  554TIP3   OH223152   6.639   4.647   0.389 -0.0392 -0.1122  0.5368
  554TIP3    H123153   6.623   4.737   0.418  2.3975  0.2569  0.9177
  554TIP3    H223154   6.656   4.598   0.469  1.9560 -0.1483  0.1223
  555TIP3   OH223155   3.797   3.629   6.026 -0.2691 -0.9908 -0.2257
  555TIP3    H123156   3.774   3.638   5.934  1.7184  0.6243 -0.6239
  555TIP3    H223157   3.768   3.712   6.066  0.7829 -0.7810  0.1377
  556TIP3   OH223158   0.854   3.130  15.872 -0.0102  0.6065  0.6057
  556TIP3    H123159   0.902   3.199  15.918 -0.1135  0.9049  0.2703
  556TIP3    H223160   0.845   3.059  15.936  0.8682  0.5518  0.6780
  557TIP3   OH223161   3.253   1.953   1.054 -0.2848 -0.0476  0.3006
  557TIP3    H123162   3.253   1.906   1.137 -0.4371 -0.2674  0.1761
  557TIP3    H223163   3.233   1.886   0.988  1.7412 -0.2620 -0.1429
  558TIP3   OH223164   5.640   2.957   0.486 -0.0368 -0.2147  0.5669
  558TIP3    H123165   5.675   2.961   0.397 -0.2886  0.3970  0.4907
  558TIP3    H223166   5.546   2.972   0.476 -0.2128 -1.0759  0.8456
  559TIP3   OH223167   1.981   1.904   2.166  0.2471  0.3614  0.0030
  559TIP3    H123168   1.926   1.889   2.244 -0.5972  2.1642 -0.2053
  559TIP3    H223169   2.022   1.989   2.181  1.1311  0.1202 -0.9363
  560TIP3   OH223170   1.887   5.622  11.939  0.4730  0.6840 -0.3228
  560TIP3    H123171   1.927   5.635  11.853 -0.8705 -0.9281 -1.2546
  560TIP3    H223172   1.796   5.651  11.927  0.6513  1.9494  1.0518
  561TIP3   OH223173   3.693   0.036  13.961  0.3621 -0.4607 -0.1880
  561TIP3    H123174   3.656   0.086  14.034  0.4463 -0.9344  0.1797
  561TIP3    H223175   3.706   0.101  13.892 -1.1522 -0.2713 -0.3313
  562TIP3   OH223176   5.747   1.090   4.046 -0.0424 -0.4670  0.0831
  562TIP3    H123177   5.810   1.125   4.109  0.5483 -0.0719 -0.7089
  562TIP3    H223178   5.786   1.107   3.960 -0.3438 -1.9048 -0.3826
  563TIP3   OH223179   6.476   5.838  13.733 -0.0373 -0.0417  0.1955
  563TIP3    H123180   6.544   5.803  13.790  0.1188 -0.7012 -0.3807
  563TIP3    H223181   6.518   5.847  13.648 -0.3448  0.6744  0.1078
  564TIP3   OH223182   2.192   5.743  16.088 -0.4170 -0.4964 -0.0538
  564TIP3    H123183   2.208   5.659  16.131 -0.9838  0.1381  1.4739
  564TIP3    H223184   2.100   5.762  16.104 -0.6681 -0.2374 -1.6332
  565TIP3   OH223185   6.069   6.067  16.395  0.3726  0.0513 -0.9890
  565TIP3    H123186   6.157   6.104  16.387 -0.4250  2.5495  0.6867
  565TIP3    H223187   6.033   6.070  16.306  1.3709  0.5941 -1.3884
  566TIP3   OH223188   5.638   1.604   4.948 -0.2791 -0.8015 -0.0081
  566TIP3    H123189   5.666   1.581   5.037  1.1322  0.3355 -0.1139
  566TIP3    H223190   5.714   1.648   4.910 -1.9218  1.7098 -0.6483
  567TIP3   OH223191   0.829   4.558   1.315  0.2128  0.3224  0.4025
  567TIP3    H123192   0.760   4.538   1.379  0.1419 -1.2072 -0.0960
  567TIP3    H223193   0.784   4.560   1.231  0.5229  0.9659  0.2446
  568TIP3   OH223194   5.102   4.062  11.975 -0.0539 -0.2789  0.4745
  568TIP3    H123195   5.114   4.101  12.062  2.6847 -2.9165  1.4867
  568TIP3    H223196   5.083   4.136  11.918  0.2494  1.8724  2.9603
  569TIP3   OH223197   4.584   1.486  13.257  0.0155 -0.0437 -0.1033
  569TIP3    H123198   4.625   1.534  13.185 -0.8086  2.0413  0.7366
  569TIP3    H223199   4.502   1.453  13.221  0.2963 -0.2923 -0.5211
  570TIP3   OH223200   1.802   6.358   2.564 -0.4891 -0.0892 -0.6733
  570TIP3    H123201   1.721   6.347   2.615  0.3713 -1.6485  0.4565
  570TIP3    H223202   1.857   6.414   2.619 -0.4385  0.1740 -0.9918
  571TIP3   OH223203   1.012   1.010   0.496 -0.0074 -0.2486  0.8160
  571TIP3    H123204   1.016   0.968   0.582 -0.6555 -0.0954  0.9313
  571TIP3    H223205   1.034   0.940   0.434 -0.4434 -0.6034  1.0495
  572TIP3   OH223206   2.184   5.435  14.926  0.3645 -0.6753 -0.1479
  572TIP3    H123207   2.163   5.480  15.008  0.6140 -1.5125  0.3850
  572TIP3    H223208   2.105   5.385  14.905  0.9929 -2.0619  0.6755
  573TIP3   OH223209   4.187   6.053  14.643  0.0790 -0.7342 -0.2859
  573TIP3    H123210   4.124   5.991  14.679 -0.9144 -0.8136 -2.0500
  573TIP3    H223211   4.140   6.136  14.639  0.6458 -0.3971 -0.0627
  574TIP3   OH223212   1.425   5.299   6.513  0.4298  0.0361 -0.7536
  574TIP3    H123213   1.373   5.321   6.436 -1.2975  1.0648  0.6357
  574TIP3    H223214   1.490   5.369   6.518 -0.9302  1.3031 -0.0232
  575TIP3   OH223215   6.348   2.952  15.174  0.1649 -0.1286  0.1213
  575TIP3    H123216   6.259   2.939  15.208  0.5140 -1.0676  0.7194
  575TIP3    H223217   6.404   2.940  15.251  0.9798 -2.3029 -0.7549
  576TIP3   OH223218   1.592   0.716  15.163 -0.1047  0.1837  0.1452
  576TIP3    H123219   1.498   0.699  15.165  0.0226 -0.6806 -0.6402
  576TIP3    H223220   1.630   0.637  15.125  0.8453  0.9047 -0.4574
  577TIP3   OH223221   4.480   2.646   4.450 -0.1224  0.5715  0.2197
  577TIP3    H123222   4.531   2.703   4.392 -0.6518  0.0755 -0.7649
  577TIP3    H223223   4.433   2.706   4.507 -1.6004  1.2153 -1.5724
  578TIP3   OH223224   6.073   4.988   0.767  0.4845  0.4877  0.3207
  578TIP3    H123225   6.076   5.040   0.687 -0.3925  1.4754  0.8963
  578TIP3    H223226   5.979   4.975   0.783  0.6122  0.8585  1.5131
  579TIP3   OH223227   0.536   3.644   4.834  0.4005 -0.3239  0.3011
  579TIP3    H123228   0.552   3.625   4.741 -1.2659 -0.4548  0.0120
  579TIP3    H223229   0.487   3.567   4.865  0.3208  0.0487  1.1027
  580TIP3   OH223230   1.177   4.700   0.118  0.5470 -0.5947 -0.4919
  580TIP3    H123231   1.180   4.779   0.066 -0.2918 -2.4032 -3.5452
  580TIP3    H223232   1.256   4.652   0.096  1.1778 -0.5845  1.5041
  581TIP3   OH223233   4.059   3.831  16.789  0.3846 -0.2494  0.1261
  581TIP3    H123234   3.985   3.770  16.782  0.6140 -0.6483  0.9539
  581TIP3    H223235   4.034   3.891  16.859  0.1582  0.6212 -0.6973
  582TIP3   OH223236   3.950   5.028  15.439 -0.2291  0.2276  0.8629
  582TIP3    H123237   3.975   4.945  15.479  0.0297  0.6666  1.6376
  582TIP3    H223238   3.971   5.094  15.506 -0.1208  0.9450  0.1371
  583TIP3   OH223239   3.306   2.867  15.397 -0.1135 -0.5256  0.0783
  583TIP3    H123240   3.365   2.876  15.471  0.5710 -1.2203 -0.3625
  583TIP3    H223241   3.362   2.841  15.324 -0.9258 -0.9289 -0.4265
  584TIP3   OH223242   4.820   0.041  12.626 -0.3799 -0.3422  0.2890
  584TIP3    H123243   4.776   0.026  12.710  2.3914 -0.3500  1.8678
  584TIP3    H223244   4.912   0.028  12.646  0.5289  1.3524 -2.4108
  585TIP3   OH223245   0.965   0.573  11.715  0.3060 -0.3479  0.2524
  585TIP3    H123246   0.980   0.664  11.688 -0.0225 -0.3811 -0.0549
  585TIP3    H223247   0.953   0.525  11.633 -0.2263 -0.5406  0.4383
  586TIP3   OH223248   4.268   4.241  15.848 -0.0985  0.2002 -0.1272
  586TIP3    H123249   4.284   4.149  15.828  0.4602  0.1249  0.6208
  586TIP3    H223250   4.324   4.289  15.786  0.7442 -0.0050  0.4533
  587TIP3   OH223251   2.024   6.694   1.779 -0.1814  0.0652 -0.2235
  587TIP3    H123252   1.941   6.732   1.809 -0.8342  0.0182 -1.8519
  587TIP3    H223253   2.089   6.763   1.792 -0.4485  0.0856  1.1181
  588TIP3   OH223254   3.079   5.455  13.750 -0.2504 -0.2754 -0.5506
  588TIP3    H123255   3.084   5.517  13.823  0.7412 -0.1369 -0.7147
  588TIP3    H223256   3.082   5.368  13.791 -0.6683 -0.2061 -0.3750
  589TIP3   OH223257   3.551   4.290   1.143  0.4518  0.3968  0.0682
  589TIP3    H123258   3.643   4.265   1.152  0.2739 -1.7791 -2.6363
  589TIP3    H223259   3.554   4.378   1.105  1.4247  0.4275  0.1936
  590TIP3   OH223260   6.629   2.262   2.655  0.3553  0.4959  0.3126
  590TIP3    H123261   6.704   2.309   2.619 -0.9160  2.9532  0.6452
  590TIP3    H223262   6.554   2.320   2.637 -1.8695 -2.7398 -1.8993
  591TIP3   OH223263   3.292   6.553  12.154 -0.0001 -0.2161  0.3556
  591TIP3    H123264   3.311   6.481  12.213 -0.7049 -2.4043 -1.8967
  591TIP3    H223265   3.372   6.565  12.104 -0.2421 -0.2432 -0.0465
  592TIP3   OH223266   5.170   5.377  16.804 -0.1451  0.0762 -0.6827
  592TIP3    H123267   5.179   5.405  16.713 -0.3659  0.3462 -0.6221
  592TIP3    H223268   5.097   5.428  16.838  0.1966  0.2801 -0.2366
  593TIP3   OH223269   5.601   0.859   3.835 -1.0632  0.5718  0.3743
  593TIP3    H123270   5.690   0.829   3.821 -1.2646 -0.2564  0.7873
  593TIP3    H223271   5.574   0.897   3.751  0.0991  1.9788  0.6116
  594TIP3   OH223272   0.613   5.320  11.379  0.4460 -0.1967 -0.5041
  594TIP3    H123273   0.583   5.411  11.383 -1.5044 -0.7855 -0.7516
  594TIP3    H223274   0.651   5.311  11.292 -1.9712 -0.3256 -1.6183
  595TIP3   OH223275   2.967   6.515   5.401 -0.3380  0.3694 -0.3465
  595TIP3    H123276   2.895   6.475   5.450 -0.5119  0.3658 -0.6006
  595TIP3    H223277   3.040   6.518   5.463 -1.3243  2.8858  0.8571
  596TIP3   OH223278   1.450   5.173   1.245  0.3477  0.3804  0.4843
  596TIP3    H123279   1.498   5.254   1.264  2.5623 -0.4834 -1.0697
  596TIP3    H223280   1.400   5.194   1.166  0.2904  0.4621  0.5416
  597TIP3   OH223281   3.043   0.584   0.129  0.3069  0.1180 -0.4524
  597TIP3    H123282   3.107   0.587   0.058 -0.6034 -0.1531 -1.3109
  597TIP3    H223283   3.033   0.675   0.157  0.5627  0.2486 -0.7823
  598TIP3   OH223284   2.804   0.956   0.972 -0.3343  0.3085  0.2699
  598TIP3    H123285   2.798   0.909   1.055 -1.0651 -1.5595 -0.7726
  598TIP3    H223286   2.717   0.994   0.960 -1.3647 -2.2807 -1.1644
  599TIP3   OH223287   5.184   5.971  17.213 -0.5691 -0.2837 -0.3399
  599TIP3    H123288   5.235   5.915  17.271 -0.0386  1.4724  1.0049
  599TIP3    H223289   5.249   6.031  17.175 -1.0280 -0.8924 -2.2060
  600TIP3   OH223290   3.046   1.660   0.136 -0.0747  0.0733  0.3831
  600TIP3    H123291   3.026   1.733   0.077  2.4037  0.4631 -0.1111
  600TIP3    H223292   3.114   1.611   0.090  1.0137 -0.3482  2.3512
  601TIP3   OH223293   3.033   1.854  13.353  0.5264  0.1693  0.1595
  601TIP3    H123294   2.997   1.837  13.266  0.1449 -1.5728  0.6126
  601TIP3    H223295   2.955   1.872  13.407  0.3647 -2.2396  0.8467
  602TIP3   OH223296   6.512   5.503  13.273  0.1629 -0.6858 -0.7799
  602TIP3    H123297   6.545   5.570  13.333 -0.7114 -1.3508  0.4792
  602TIP3    H223298   6.518   5.421  13.322  0.3028 -1.4034 -1.9506
  603TIP3   OH223299   2.584   6.324   4.272  0.0588  0.3317  0.0007
  603TIP3    H123300   2.514   6.268   4.306  0.8268 -0.4623  0.2980
  603TIP3    H223301   2.648   6.264   4.235  0.2585  1.0894 -0.9239
  604TIP3   OH223302   2.427   6.561   4.259 -0.2976 -0.1891  0.0306
  604TIP3    H123303   2.474   6.622   4.317 -0.4436 -0.1229  0.0800
  604TIP3    H223304   2.480   6.481   4.260 -0.8861 -0.5800  1.1427
  605TIP3   OH223305   3.171   4.297  11.530  0.3508  0.2849  0.2921
  605TIP3    H123306   3.249   4.317  11.582  0.8674  1.8706 -1.0332
  605TIP3    H223307   3.205   4.266  11.446 -0.4336  0.9492 -0.2844
  606TIP3   OH223308   5.241   1.292  12.377 -0.6759  0.1026 -0.1671
  606TIP3    H123309   5.172   1.357  12.364  0.9609  1.8393 -0.6899
  606TIP3    H223310   5.283   1.318  12.459  0.2057 -0.0815 -0.5460
  607TIP3   OH223311   1.695   2.729   4.126 -0.5998  0.1937 -0.1189
  607TIP3    H123312   1.720   2.818   4.102  0.2592  0.2255  0.7997
  607TIP3    H223313   1.721   2.721   4.218  0.5840 -1.4362 -0.5363
  608TIP3   OH223314   3.823   6.483  11.666 -0.3257  0.0299 -0.0312
  608TIP3    H123315   3.903   6.469  11.716  1.2681  0.7699 -2.1877
  608TIP3    H223316   3.827   6.417  11.596  0.7488  2.6576 -2.6987
  609TIP3   OH223317   1.416   1.762  17.099  0.4570 -0.9097 -0.5778
  609TIP3    H123318   1.426   1.801  17.186 -1.2509  0.2628 -0.8543
  609TIP3    H223319   1.322   1.750  17.089  0.6715 -1.5619 -2.0491
  610TIP3   OH223320   5.921   1.678  13.502 -0.9643 -0.6231  0.2784
  610TIP3    H123321   5.877   1.630  13.572 -0.3343 -1.1220  0.3474
  610TIP3    H223322   6.000   1.626  13.484 -1.7899 -1.2892 -1.7439
  611TIP3   OH223323   0.973   3.885  16.458 -0.0903  0.5704 -0.7986
  611TIP3    H123324   0.909   3.925  16.399  1.9890  1.9610 -2.2708
  611TIP3    H223325   1.055   3.929  16.437  1.4244 -1.3116  0.8041
  612TIP3   OH223326   1.083   2.603  14.770 -0.3880 -0.5341  0.7109
  612TIP3    H123327   1.115   2.565  14.688 -1.2337 -0.3570  0.2818
  612TIP3    H223328   1.055   2.528  14.822 -0.0582 -0.6333  0.7444
  613TIP3   OH223329   4.381   6.233   5.448  0.2700  0.1575  0.0002
  613TIP3    H123330   4.406   6.187   5.368 -3.5019 -1.4812 -0.4176
  613TIP3    H223331   4.405   6.172   5.518 -2.3024 -1.4246 -0.3943
  614TIP3   OH223332   4.820   5.644   5.969 -0.3139  0.2074  0.3748
  614TIP3    H123333   4.872   5.654   6.049  2.5006 -0.8874 -1.1500
  614TIP3    H223334   4.823   5.730   5.927  1.5292 -0.1504 -0.3247
  615TIP3   OH223335   5.346   3.078   4.743  0.3307  0.5471 -0.3711
  615TIP3    H123336   5.380   3.002   4.696 -0.7219 -0.4098  0.3515
  615TIP3    H223337   5.424   3.129   4.767  1.0863 -0.5082 -0.5320
  616TIP3   OH223338   5.355   0.029  14.236 -0.2936 -0.0286  0.2837
  616TIP3    H123339   5.352   0.087  14.312 -0.0761  0.2799  0.0619
  616TIP3    H223340   5.361   0.088  14.161 -0.1248 -0.3378  0.0488
  617TIP3   OH223341   3.468   3.474  16.171 -0.1618 -0.2969 -0.5688
  617TIP3    H123342   3.444   3.501  16.082  0.0164  0.8569 -0.2788
  617TIP3    H223343   3.516   3.549  16.206 -4.3495  1.3998  2.2529
  618TIP3   OH223344   6.204   6.086  13.438  0.1463  0.1869  0.6284
  618TIP3    H123345   6.178   6.120  13.352 -0.7806 -0.3987  0.6653
  618TIP3    H223346   6.286   6.040  13.422 -0.7571 -1.1992 -0.2635
  619TIP3   OH223347   3.011   6.166  14.421  0.3356 -0.2199  0.2160
  619TIP3    H123348   2.940   6.229  14.433  2.6480  2.7365 -0.4493
  619TIP3    H223349   3.021   6.125  14.507 -1.6638 -0.2004  0.5087
  620TIP3   OH223350   1.884   0.945  10.969  0.4960  0.0316 -0.3902
  620TIP3    H123351   1.965   0.895  10.973  0.9161  0.5707 -1.6485
  620TIP3    H223352   1.848   0.927  10.882 -1.8712 -1.8519  0.8487
  621TIP3   OH223353   5.483   0.210  10.546  0.2661  0.5045 -0.2931
  621TIP3    H123354   5.565   0.170  10.517  0.9524  2.3604 -1.0561
  621TIP3    H223355   5.421   0.137  10.550  0.8848 -0.3335 -3.5921
  622TIP3   OH223356   1.060   6.583  14.383  0.3063  0.5180 -0.0262
  622TIP3    H123357   1.112   6.608  14.460  0.0250  1.0012  0.0107
  622TIP3    H223358   1.117   6.523  14.334  0.9305  1.0879 -0.0160
  623TIP3   OH223359   6.374   1.781  16.531 -0.0339  0.3367  0.6804
  623TIP3    H123360   6.416   1.847  16.586 -0.1675 -0.3296  1.6079
  623TIP3    H223361   6.381   1.816  16.442  0.5869  1.2263  1.0622
  624TIP3   OH223362   4.477   0.547   3.784  0.0879 -0.0189 -0.1504
  624TIP3    H123363   4.390   0.541   3.743  0.3745  1.5532 -1.0608
  624TIP3    H223364   4.498   0.457   3.808 -1.0728 -0.6728 -1.4436
  625TIP3   OH223365   2.953   2.597  11.845  0.7121  0.0001  0.1279
  625TIP3    H123366   2.962   2.604  11.750  0.2932 -1.9369 -0.1025
  625TIP3    H223367   2.872   2.644  11.865 -0.0690 -0.9361 -0.7176
  626TIP3   OH223368   0.291   1.376   0.773 -0.9888  1.0261  0.0015
  626TIP3    H123369   0.384   1.396   0.776 -0.7266  0.2080 -1.4730
  626TIP3    H223370   0.286   1.283   0.798 -1.3819  1.0246 -0.0781
  627TIP3   OH223371   2.614   2.224   5.578  0.3313 -0.5667 -0.3232
  627TIP3    H123372   2.561   2.288   5.627  1.4114 -0.6556  1.0231
  627TIP3    H223373   2.580   2.139   5.606 -0.1456 -0.6175 -1.0206
  628TIP3   OH223374   6.819   3.869  16.214  0.8238  0.1457 -0.0916
  628TIP3    H123375   6.750   3.933  16.234 -0.1326 -0.3128 -1.7037
  628TIP3    H223376   6.858   3.902  16.133  0.7837 -0.9238 -0.5601
  629TIP3   OH223377   5.215   4.941   2.496  0.9754  0.3838  1.0553
  629TIP3    H123378   5.129   4.940   2.455  1.6497  0.1954 -0.3852
  629TIP3    H223379   5.199   4.909   2.585 -0.0841 -1.9035  0.1055
  630TIP3   OH223380   3.962   3.328  15.614  0.1621 -0.1108 -0.3414
  630TIP3    H123381   4.017   3.257  15.648  0.4947 -0.0522 -0.7378
  630TIP3    H223382   4.014   3.407  15.629 -0.4546  0.1173  0.6159
  631TIP3   OH223383   3.228   0.192   4.377  0.1643 -0.3356  0.1539
  631TIP3    H123384   3.150   0.154   4.417 -0.0265  0.2126  0.3114
  631TIP3    H223385   3.301   0.143   4.414 -0.1542 -1.7103 -0.9248
  632TIP3   OH223386   4.162   3.601  13.739 -0.4842 -0.8925 -0.0996
  632TIP3    H123387   4.165   3.510  13.709  0.4592 -0.7702 -0.4026
  632TIP3    H223388   4.224   3.603  13.813  0.4847 -0.2132 -0.9079
  633TIP3   OH223389   3.594   6.285   6.564 -0.7800 -0.0814 -0.1596
  633TIP3    H123390   3.620   6.286   6.656  0.3421 -0.4215 -0.4472
  633TIP3    H223391   3.564   6.195   6.549 -0.3894 -0.2004 -0.2583
  634TIP3   OH223392   4.548   3.772  15.100 -0.5191 -0.0187  0.0284
  634TIP3    H123393   4.637   3.739  15.105  0.1062  1.2983 -1.5578
  634TIP3    H223394   4.535   3.819  15.183  0.6209  0.5778 -0.1109
  635TIP3   OH223395   0.624   5.151   5.070 -0.6565 -0.2899  0.5055
  635TIP3    H123396   0.625   5.056   5.064 -0.2824 -0.2281 -0.7248
  635TIP3    H223397   0.712   5.178   5.044 -0.7259  0.3907  0.9455
  636TIP3   OH223398   6.707   5.932   0.456 -0.2868  0.2430 -0.1663
  636TIP3    H123399   6.650   5.969   0.389  0.3647 -2.6136 -2.5172
  636TIP3    H223400   6.659   5.855   0.488  0.4811  0.1770  0.8648
  637TIP3   OH223401   1.139   5.229  14.442  0.2582 -0.2124  0.0859
  637TIP3    H123402   1.164   5.244  14.533  1.8797  1.6744 -0.6036
  637TIP3    H223403   1.222   5.226  14.394 -0.5381 -1.6138 -1.2845
  638TIP3   OH223404   0.364   6.544   0.367 -0.2108 -0.0377  0.2504
  638TIP3    H123405   0.458   6.550   0.351 -0.0465  1.1718  1.4524
  638TIP3    H223406   0.355   6.486   0.442 -0.2809  0.9770  1.0550
  639TIP3   OH223407   6.380   6.374   4.943 -0.7342  0.6648 -0.3582
  639TIP3    H123408   6.434   6.300   4.971 -1.8903 -0.3743 -0.7968
  639TIP3    H223409   6.392   6.440   5.011 -0.3234 -0.2497  0.4704
  640TIP3   OH223410   3.522   1.898  11.169  0.0581 -0.0888 -0.5613
  640TIP3    H123411   3.590   1.961  11.145  0.3933  0.7731  2.2558
  640TIP3    H223412   3.441   1.947  11.167  0.2044  0.2385  0.7901
  641TIP3   OH223413   5.412   2.986   0.352 -0.2685 -0.9163 -0.2201
  641TIP3    H123414   5.361   3.058   0.388 -0.5190 -1.8243  1.3531
  641TIP3    H223415   5.356   2.948   0.285 -1.0391 -0.9525  0.4299
  642TIP3   OH223416   0.049   0.329  12.758  1.0596 -0.0591 -0.2138
  642TIP3    H123417  -0.032   0.345  12.710  0.0474 -0.3090  1.3623
  642TIP3    H223418   0.089   0.415  12.767  0.1352  0.3171  0.4177
  643TIP3   OH223419   5.584   0.259   6.148 -0.6860 -0.4686 -0.1328
  643TIP3    H123420   5.666   0.297   6.181 -0.7743  0.6351 -1.1118
  643TIP3    H223421   5.526   0.260   6.224 -0.5026  0.8825  0.0190
  644TIP3   OH223422   4.756   6.345   5.832  0.0142  0.0566 -0.1650
  644TIP3    H123423   4.786   6.432   5.859  0.4545  0.0895 -0.7404
  644TIP3    H223424   4.836   6.299   5.807 -0.3645  0.0924 -1.5707
  645TIP3   OH223425   2.027   2.901   6.039  0.1276  0.4719  0.4528
  645TIP3    H123426   2.017   2.806   6.029 -0.0778  0.4242  1.0501
  645TIP3    H223427   1.999   2.937   5.955  1.1581 -0.0498 -0.1319
  646TIP3   OH223428   6.408   5.667   3.504  0.0304  0.4148  0.0124
  646TIP3    H123429   6.369   5.721   3.572  1.4092  1.7740 -0.2264
  646TIP3    H223430   6.448   5.593   3.551  2.4138  2.1768  0.9553
  647TIP3   OH223431   5.100   5.276   2.133  0.0639  0.7603  0.0219
  647TIP3    H123432   5.121   5.190   2.096  0.8068  1.3950 -1.1130
  647TIP3    H223433   5.162   5.286   2.205  1.1394  1.0108 -0.8952
  648TIP3   OH223434   0.161   2.190   5.329  0.6137  0.3322 -0.4596
  648TIP3    H123435   0.196   2.111   5.370 -0.2880  0.3129  0.3148
  648TIP3    H223436   0.169   2.174   5.235  0.5276 -0.6521 -0.3095
  649TIP3   OH223437   5.738   0.072   2.333 -0.1127  0.4866  0.0602
  649TIP3    H123438   5.705   0.026   2.256  2.2409 -0.9447 -0.2037
  649TIP3    H223439   5.766   0.157   2.299 -1.2044  0.7666 -0.1711
  650TIP3   OH223440   1.222   5.127  17.046 -0.3746  0.6367 -0.2312
  650TIP3    H123441   1.282   5.083  16.986 -0.1169 -0.3210  0.7066
  650TIP3    H223442   1.268   5.208  17.070  0.3323  0.1563  0.0806
  651TIP3   OH223443   2.067   6.691   2.066  0.2990 -0.3315 -0.3410
  651TIP3    H123444   2.104   6.645   1.990 -1.3664 -0.6442 -1.0074
  651TIP3    H223445   1.975   6.706   2.042  0.0112  0.5028  1.1938
  652TIP3   OH223446   3.825   0.333  15.690  0.1165 -0.1800  0.2749
  652TIP3    H123447   3.841   0.239  15.691  2.2777  0.1171  2.2336
  652TIP3    H223448   3.739   0.344  15.732 -1.7922 -1.3763 -2.9640
  653TIP3   OH223449   0.883   6.355  12.248 -0.0817 -0.3193 -0.1270
  653TIP3    H123450   0.796   6.334  12.214 -0.6202  1.5827 -0.0183
  653TIP3    H223451   0.935   6.370  12.170 -0.3957  0.5587 -0.1739
  654TIP3   OH223452   3.680   5.187  14.319  0.2028  0.7212  0.1174
  654TIP3    H123453   3.669   5.172  14.225  0.5487  0.3422  0.1338
  654TIP3    H223454   3.597   5.225  14.347 -0.9237 -1.5561  0.1514
  655TIP3   OH223455   0.735   4.462   5.160 -0.0468  0.0728  0.9581
  655TIP3    H123456   0.799   4.398   5.130  1.4781  1.0934  1.8669
  655TIP3    H223457   0.670   4.411   5.208  1.0172 -0.8199  1.4856
  656TIP3   OH223458   5.034   3.851   2.024 -0.4305 -0.2054  0.1066
  656TIP3    H123459   5.002   3.859   2.114  0.9013  2.7468  0.4309
  656TIP3    H223460   5.128   3.837   2.033 -0.1218  1.1123 -0.7855
  657TIP3   OH223461   3.586   5.234   3.028 -0.1595  0.0823  0.0323
  657TIP3    H123462   3.528   5.235   3.104 -0.8363 -0.5417 -0.4560
  657TIP3    H223463   3.563   5.153   2.981  0.1989  0.4819 -0.8620
  658TIP3   OH223464   5.867   4.460   1.301 -0.1945  0.0732 -0.2025
  658TIP3    H123465   5.887   4.553   1.312 -0.8169  0.0423  1.4516
  658TIP3    H223466   5.953   4.419   1.290  0.4221  0.4948  2.2725
  659TIP3   OH223467   6.436   4.294   2.158  0.3057 -0.0905  0.2626
  659TIP3    H123468   6.440   4.253   2.245  0.6460  1.0230  0.7806
  659TIP3    H223469   6.528   4.298   2.130  0.1901 -0.5060 -0.1816
  660TIP3   OH223470   2.842   0.282   0.216  0.6721 -0.2726  0.1795
  660TIP3    H123471   2.816   0.243   0.133 -1.9038  1.2521  0.1594
  660TIP3    H223472   2.815   0.218   0.282  0.7138 -0.5387 -0.0603
  661TIP3   OH223473   5.237   1.926   3.907  0.3540 -0.0875 -0.3665
  661TIP3    H123474   5.149   1.961   3.926  0.0508 -0.5968 -0.8088
  661TIP3    H223475   5.263   1.884   3.989 -0.9507 -2.2714 -0.9904
  662TIP3   OH223476   2.964   4.500   4.347  0.8597  0.1912 -0.0389
  662TIP3    H123477   3.029   4.488   4.416  1.1791 -0.4682 -0.4424
  662TIP3    H223478   2.936   4.591   4.356  2.4700  0.7533 -0.3707
  663TIP3   OH223479   0.226   0.167   3.423 -0.5011  0.2223  0.7953
  663TIP3    H123480   0.215   0.078   3.455 -2.7620  0.2671  0.3541
  663TIP3    H223481   0.149   0.182   3.366  1.1900  1.5230 -1.3292
  664TIP3   OH223482   6.566   2.560  15.414  0.1205 -0.1390 -0.4505
  664TIP3    H123483   6.647   2.605  15.437  0.3585 -0.7440 -0.0689
  664TIP3    H223484   6.542   2.596  15.329  2.4037 -2.0220 -2.0291
  665TIP3   OH223485   4.105   2.893  12.527  0.2008  0.7876  0.0148
  665TIP3    H123486   4.119   2.966  12.466 -0.3225  0.1918 -0.8327
  665TIP3    H223487   4.096   2.935  12.612  0.7720  1.6512 -0.3385
  666TIP3   OH223488   6.621   4.275  12.786  0.3171  0.2239  0.2830
  666TIP3    H123489   6.667   4.207  12.736 -0.9171  0.1007 -0.7161
  666TIP3    H223490   6.555   4.310  12.726  1.9138  3.4620  0.1717
  667TIP3   OH223491   3.920   2.066  15.970 -0.1799  0.0028 -0.5995
  667TIP3    H123492   3.991   2.003  15.956 -0.2841 -0.1814 -0.2957
  667TIP3    H223493   3.958   2.134  16.025 -0.4820 -0.5380  0.2991
  668TIP3   OH223494   0.452   4.353   3.463 -0.1206 -0.0389  0.5727
  668TIP3    H123495   0.383   4.325   3.523  0.2897 -0.0296  1.0534
  668TIP3    H223496   0.534   4.334   3.509  0.1936  0.3046  0.1699
  669TIP3   OH223497   2.222   6.541   5.417 -0.7382  0.7489  0.8017
  669TIP3    H123498   2.196   6.452   5.442  0.6321 -0.2396 -1.0160
  669TIP3    H223499   2.149   6.596   5.446 -1.6988 -0.9707  1.8468
  670TIP3   OH223500   3.474   5.971   4.860  0.5817  0.2728  0.2120
  670TIP3    H123501   3.449   6.061   4.840 -1.3528 -0.4254 -0.7937
  670TIP3    H223502   3.453   5.922   4.781  1.9278 -1.0312  0.6109
  671TIP3   OH223503   6.496   5.627  15.770 -0.1878  0.2767 -0.5223
  671TIP3    H123504   6.516   5.649  15.861 -1.4920 -0.5490 -0.0076
  671TIP3    H223505   6.418   5.679  15.750 -0.7533 -0.6186 -0.6906
  672TIP3   OH223506   1.531   3.432  13.141 -0.3381 -0.0214  0.0683
  672TIP3    H123507   1.518   3.373  13.066  1.4059  0.4911 -0.6889
  672TIP3    H223508   1.486   3.513  13.116 -0.4191 -0.1086 -0.0705
  673TIP3   OH223509   4.149   4.450  16.819  0.5098 -0.0362 -0.2555
  673TIP3    H123510   4.238   4.417  16.833  1.6380  2.1078 -1.8214
  673TIP3    H223511   4.158   4.545  16.822 -1.9102  0.2436  0.3295
  674TIP3   OH223512   4.166   4.499  13.642 -0.0776  0.4418  0.0049
  674TIP3    H123513   4.091   4.440  13.648  0.3551 -0.0809  0.4075
  674TIP3    H223514   4.128   4.585  13.622 -0.5561 -0.5173 -4.1561
  675TIP3   OH223515   2.501   6.212   1.221  0.1020 -0.4387  0.2039
  675TIP3    H123516   2.431   6.211   1.156  0.5146 -1.0429 -0.2478
  675TIP3    H223517   2.488   6.293   1.270 -1.7605 -1.2047  1.0643
  676TIP3   OH223518   1.437   5.296  11.805 -0.1471 -0.3539 -0.5075
  676TIP3    H123519   1.419   5.202  11.798 -0.1106 -0.5690  1.5438
  676TIP3    H223520   1.380   5.326  11.875 -0.1163  1.1655 -1.1086
  677TIP3   OH223521   0.220   1.854   4.838 -0.0711  0.3445  0.6443
  677TIP3    H123522   0.137   1.821   4.871 -0.6127 -0.0367 -1.0193
  677TIP3    H223523   0.271   1.873   4.916 -0.2833 -3.0128  1.7513
  678TIP3   OH223524   1.828   1.662  11.670 -0.2457  0.3125 -0.3160
  678TIP3    H123525   1.831   1.649  11.575 -1.4113  0.3593 -0.3747
  678TIP3    H223526   1.872   1.746  11.684  2.1788 -0.8243 -0.5201
  679TIP3   OH223527   1.230   5.945   5.734  0.3593 -0.0508 -0.3622
  679TIP3    H123528   1.281   5.972   5.810 -2.6264  3.0819  0.7976
  679TIP3    H223529   1.164   5.885   5.769  1.1098 -1.4275 -1.2162
  680TIP3   OH223530   4.691   5.804   1.619 -0.7928 -0.9435  0.3998
  680TIP3    H123531   4.637   5.850   1.683  1.7017  0.7070  1.4771
  680TIP3    H223532   4.727   5.730   1.667 -3.2816 -3.1295 -0.8100
  681TIP3   OH223533   1.639   4.217  10.697  0.3616  0.3674 -0.7518
  681TIP3    H123534   1.715   4.269  10.670  0.1973 -0.2869 -2.6524
  681TIP3    H223535   1.596   4.193  10.615 -0.6937 -1.0826  0.1690
  682TIP3   OH223536   5.508   3.808  10.518  0.3561 -0.3939  0.5462
  682TIP3    H123537   5.467   3.733  10.475  2.5040 -1.0676 -0.4879
  682TIP3    H223538   5.526   3.870  10.447  0.8910 -0.0271  0.9861
  683TIP3   OH223539   3.220   0.535   5.140  0.0175  0.4338 -0.2526
  683TIP3    H123540   3.185   0.600   5.201  0.2891  0.0417  0.3310
  683TIP3    H223541   3.271   0.587   5.077 -1.7058  1.0392 -1.2267
  684TIP3   OH223542   4.332   4.613   5.026 -0.0888 -0.2218  0.5125
  684TIP3    H123543   4.417   4.655   5.011 -0.8308  0.8723 -0.9178
  684TIP3    H223544   4.296   4.659   5.102  0.9218 -1.2697  1.6658
  685TIP3   OH223545   0.539   5.481   5.754  0.0019  0.1178 -0.4543
  685TIP3    H123546   0.531   5.430   5.673  1.9403 -0.0089 -0.6113
  685TIP3    H223547   0.585   5.423   5.814 -0.3109  0.6637  0.3186
  686TIP3   OH223548   3.729   0.828   5.659 -0.0481  0.3580  0.4120
  686TIP3    H123549   3.723   0.875   5.742  2.1502  2.9436 -0.7580
  686TIP3    H223550   3.817   0.792   5.657 -0.8598 -1.7907  0.1553
  687TIP3   OH223551   2.023   6.138  10.862  0.2445  0.0890 -0.3900
  687TIP3    H123552   1.970   6.073  10.907  1.4177 -0.4251  0.2867
  687TIP3    H223553   2.104   6.141  10.911  0.9473  0.6893 -1.5433
  688TIP3   OH223554   2.582   4.690   4.399  0.2297 -0.3643  0.0136
  688TIP3    H123555   2.600   4.724   4.312  0.3984 -2.1937 -0.6882
  688TIP3    H223556   2.494   4.723   4.419  0.6388  1.0101 -0.3394
  689TIP3   OH223557   0.886   0.925  16.424 -0.0661 -0.1943 -0.4774
  689TIP3    H123558   0.894   0.929  16.329  0.8939 -0.1654 -0.4108
  689TIP3    H223559   0.843   1.007  16.448  1.6806  0.8593 -0.7240
  690TIP3   OH223560   1.376   6.818   0.152 -0.1754 -0.4169  0.9490
  690TIP3    H123561   1.314   6.820   0.225  0.0717 -1.2341  1.1983
  690TIP3    H223562   1.385   6.725   0.131  0.0679 -0.2168  0.1425
  691TIP3   OH223563   2.045   6.133   0.163  0.7153  0.5920  0.3558
  691TIP3    H123564   2.065   6.128   0.257  0.6606  0.9764  0.3880
  691TIP3    H223565   2.059   6.044   0.131  0.5076  0.4065  0.7751
  692TIP3   OH223566   5.654   4.111  15.975  0.5607  0.0242  0.3821
  692TIP3    H123567   5.656   4.018  15.953 -0.7518 -0.5126  2.2811
  692TIP3    H223568   5.592   4.149  15.913 -0.3991 -0.7685  0.8250
  693TIP3   OH223569   6.399   1.243   4.801  0.1089  0.1892  0.1614
  693TIP3    H123570   6.393   1.148   4.812 -0.0523 -0.1355 -2.2482
  693TIP3    H223571   6.492   1.259   4.789 -0.0745 -0.0404 -1.8903
  694TIP3   OH223572   5.431   6.558   1.216  0.4956 -0.0873 -0.5937
  694TIP3    H123573   5.446   6.606   1.135  0.8115  0.3410 -0.2863
  694TIP3    H223574   5.505   6.497   1.221 -1.2946 -2.6040 -2.3771
  695TIP3   OH223575   3.514   3.454   2.587 -0.0456  0.5339 -0.0640
  695TIP3    H123576   3.438   3.415   2.628  0.2441  0.0676  0.0301
  695TIP3    H223577   3.482   3.485   2.502 -0.4829  0.9035  0.2301
  696TIP3   OH223578   2.321   4.760   5.336 -0.1531  0.7447 -0.7742
  696TIP3    H123579   2.415   4.768   5.351  0.1830 -1.1904 -1.5663
  696TIP3    H223580   2.296   4.842   5.293  1.5822  0.5249 -2.3254
  697TIP3   OH223581   1.298   3.984   0.931 -0.4154  0.0650  0.2347
  697TIP3    H123582   1.213   3.948   0.954  0.2734 -1.7342  0.1300
  697TIP3    H223583   1.360   3.941   0.990  0.4881  1.0133  0.0210
  698TIP3   OH223584   3.686   2.893   4.565 -0.0009 -0.5386 -0.1401
  698TIP3    H123585   3.695   2.837   4.488  1.1260 -1.9105  0.9171
  698TIP3    H223586   3.763   2.950   4.562  0.3337 -0.9577  0.2182
  699TIP3   OH223587   3.326   5.736  11.705  0.5578 -0.4560  0.4362
  699TIP3    H123588   3.270   5.806  11.672 -0.0772 -1.7649 -1.4154
  699TIP3    H223589   3.267   5.677  11.750  1.0177 -0.1008  1.5469
  700TIP3   OH223590   6.004   0.825  17.098 -0.1496  0.8297 -0.5207
  700TIP3    H123591   5.922   0.781  17.117  0.1246  0.0030 -1.1634
  700TIP3    H223592   6.006   0.901  17.157  0.0255 -0.7834  1.6669
  701TIP3   OH223593   4.344   4.950   5.989 -0.4583 -0.2768 -0.0869
  701TIP3    H123594   4.272   5.011   5.973 -0.5046 -0.0965  0.7520
  701TIP3    H223595   4.379   4.976   6.073  1.3074  0.3252 -0.9712
  702TIP3   OH223596   5.100   4.009   6.659 -0.4450 -0.5299 -0.2601
  702TIP3    H123597   5.120   4.033   6.568  0.5547 -1.1328 -0.2145
  702TIP3    H223598   5.130   4.085   6.710 -0.0545 -0.6121 -0.3590
  703TIP3   OH223599   2.198   4.008  12.852 -0.5480  0.1773 -0.2309
  703TIP3    H123600   2.251   4.083  12.824 -0.8562  0.2890 -0.5175
  703TIP3    H223601   2.208   3.944  12.781 -0.9427  0.2708 -0.3703
  704TIP3   OH223602   0.266   4.734   1.620  0.1406 -0.3855  0.2837
  704TIP3    H123603   0.291   4.711   1.531  0.2413  0.3511  0.1162
  704TIP3    H223604   0.346   4.770   1.659 -0.0403 -0.2238  0.5072
  705TIP3   OH223605   0.575   5.282  11.092 -0.6753  0.8462  0.5069
  705TIP3    H123606   0.656   5.311  11.050  0.7211  0.3585  2.6801
  705TIP3    H223607   0.560   5.194  11.056  0.3289  0.5489  0.7701
  706TIP3   OH223608   5.715   0.265  14.884  0.4189 -1.2286 -0.6944
  706TIP3    H123609   5.742   0.316  14.960 -1.3701 -1.3947  0.1107
  706TIP3    H223610   5.623   0.245  14.900  0.3578 -2.4315 -2.2715
  707TIP3   OH223611   2.850   0.755   2.952 -0.0888 -0.2162 -0.4073
  707TIP3    H123612   2.924   0.814   2.941 -0.1837 -0.1703 -0.8073
  707TIP3    H223613   2.788   0.781   2.884  0.7982 -2.2223 -2.1083
  708TIP3   OH223614   3.823   1.713  12.812  0.0976  0.7618 -0.3284
  708TIP3    H123615   3.793   1.804  12.816 -2.8327 -0.0852 -0.7575
  708TIP3    H223616   3.858   1.703  12.724  2.0496  1.8158  0.2368
  709TIP3   OH223617   5.298   0.579   0.345  0.3009  0.1695 -0.2898
  709TIP3    H123618   5.277   0.673   0.339 -1.1864 -0.1551 -0.5607
  709TIP3    H223619   5.309   0.564   0.439 -2.0854  0.1376  0.0643
  710TIP3   OH223620   0.997   5.386   6.727 -0.2505 -0.3177 -0.3201
  710TIP3    H123621   1.061   5.315   6.723 -0.9682 -1.0563  0.7048
  710TIP3    H223622   1.037   5.452   6.783  0.8158  0.5397 -2.0271
  711TIP3   OH223623   6.766   0.893   1.929 -0.5584  0.6229 -0.3136
  711TIP3    H123624   6.677   0.923   1.945 -0.8452  1.3756 -2.8918
  711TIP3    H223625   6.815   0.971   1.906 -0.0853 -0.1748 -2.2049
  712TIP3   OH223626   3.201   3.018   6.834 -0.3618  0.0016 -0.0490
  712TIP3    H123627   3.252   3.082   6.784  0.3929 -0.2875  0.3282
  712TIP3    H223628   3.117   3.060   6.849 -0.5533  0.1576 -1.4269
  713TIP3   OH223629   1.327   5.453  15.437  0.4185 -0.0207 -0.7863
  713TIP3    H123630   1.338   5.417  15.348  0.3100 -0.3015 -0.6878
  713TIP3    H223631   1.417   5.461  15.470  0.4113 -0.9800 -0.5063
  714TIP3   OH223632   5.004   3.139   5.232  0.0215  0.3972 -0.3925
  714TIP3    H123633   5.086   3.093   5.216 -0.5225 -0.7050 -0.1535
  714TIP3    H223634   4.963   3.090   5.304 -1.3607  0.1885 -1.2655
  715TIP3   OH223635   2.781   5.863  14.982 -0.1538 -0.2064  0.0657
  715TIP3    H123636   2.871   5.866  15.015  0.0918 -0.5311 -0.5592
  715TIP3    H223637   2.735   5.930  15.032  0.2530 -0.5557  0.9274
  716TIP3   OH223638   3.712   1.232   1.428  0.5351 -0.0470  0.1737
  716TIP3    H123639   3.625   1.251   1.394  0.6132  0.1049  0.0530
  716TIP3    H223640   3.745   1.162   1.373  1.2930  1.2749 -1.1377
  717TIP3   OH223641   0.692   0.378   6.094 -0.1015 -0.2220  0.0456
  717TIP3    H123642   0.656   0.438   6.159 -0.1058  0.0654 -0.2233
  717TIP3    H223643   0.784   0.403   6.088  0.1088 -0.8258  0.5858
  718TIP3   OH223644   2.857   4.499   1.751 -0.0449 -0.2001  0.1323
  718TIP3    H123645   2.807   4.574   1.718 -1.4973 -1.8438 -1.6438
  718TIP3    H223646   2.932   4.493   1.691 -0.9237 -1.2098 -0.9226
  719TIP3   OH223647   0.422   5.489  11.186 -0.8104  0.6857  0.3570
  719TIP3    H123648   0.472   5.570  11.173 -1.1115  0.5493 -2.1386
  719TIP3    H223649   0.470   5.423  11.136  0.3314 -1.1757  3.6186
  720TIP3   OH223650   0.880   3.363   2.656 -0.9981 -0.2222 -0.6267
  720TIP3    H123651   0.850   3.290   2.709 -0.6033  0.3731  0.4325
  720TIP3    H223652   0.963   3.390   2.695 -0.6863  0.2170 -1.5565
  721TIP3   OH223653   0.778   0.024   3.684 -0.3125  0.3066 -0.3310
  721TIP3    H123654   0.772  -0.070   3.669  0.4789  0.4203 -1.4861
  721TIP3    H223655   0.871   0.040   3.703 -0.5692  0.7633  0.6605
  722TIP3   OH223656   1.255   4.127   5.686  0.1028  0.2270 -0.1977
  722TIP3    H123657   1.268   4.081   5.603  0.6090 -2.1606  1.1028
  722TIP3    H223658   1.332   4.183   5.696  0.2093  0.2580 -1.1571
  723TIP3   OH223659   6.155   4.598  16.565  0.0613 -0.3278  0.4213
  723TIP3    H123660   6.225   4.545  16.529 -0.4518 -0.4440 -0.4226
  723TIP3    H223661   6.105   4.537  16.620  0.8838 -0.1313  1.4247
  724TIP3   OH223662   5.887   5.034   4.255  0.5574  1.2118  0.7461
  724TIP3    H123663   5.894   4.960   4.316 -2.4841 -0.5887 -0.8210
  724TIP3    H223664   5.940   5.007   4.179  0.6828  1.3602  0.7807
  725TIP3   OH223665   4.935   1.144  11.571 -0.6682  0.0631 -0.7571
  725TIP3    H123666   5.021   1.116  11.540 -0.2917 -0.5072  0.7255
  725TIP3    H223667   4.929   1.235  11.544  0.1546 -0.0487 -1.3761
  726TIP3   OH223668   5.094   1.225   3.893  0.3188  0.2198 -0.2968
  726TIP3    H123669   5.149   1.147   3.883 -0.7797 -0.4437 -1.5447
  726TIP3    H223670   5.038   1.205   3.968  2.3153  1.2962  1.6075
  727TIP3   OH223671   6.790   3.129   4.296 -0.0444  0.3367  0.5054
  727TIP3    H123672   6.840   3.051   4.319 -1.9908 -0.9346  0.6626
  727TIP3    H223673   6.741   3.104   4.218 -0.6264  1.4269  0.4979
  728TIP3   OH223674   2.677   1.011  16.263 -0.2787  0.3179  0.0255
  728TIP3    H123675   2.649   1.053  16.182 -1.9126  0.1586  0.4670
  728TIP3    H223676   2.760   1.054  16.285  1.0335 -0.6932 -2.4901
  729TIP3   OH223677   6.269   1.637   0.077  0.5297  0.6622 -0.2227
  729TIP3    H123678   6.335   1.679   0.132  1.1947  0.6295 -0.9722
  729TIP3    H223679   6.201   1.704   0.066 -0.7471 -0.0890  2.4884
  730TIP3   OH223680   4.160   0.907   0.621 -0.6616 -0.2128  0.5253
  730TIP3    H123681   4.158   1.002   0.631 -3.3799 -0.2517  1.2235
  730TIP3    H223682   4.116   0.891   0.538  1.2625 -0.8559 -0.4254
  731TIP3   OH223683   1.767   6.313   4.314 -0.7343  0.2297 -0.0654
  731TIP3    H123684   1.831   6.361   4.262 -0.3433 -0.5476 -0.3047
  731TIP3    H223685   1.788   6.221   4.300 -0.3145 -0.0010  1.8169
  732TIP3   OH223686   6.802   1.711   5.916 -0.5078  0.3794  0.1904
  732TIP3    H123687   6.788   1.616   5.927  0.1136  0.3821  1.1074
  732TIP3    H223688   6.815   1.743   6.005 -2.7749  1.6792  0.1073
  733TIP3   OH223689   6.459   4.603  11.481 -1.1198  0.0687  0.3240
  733TIP3    H123690   6.545   4.644  11.487 -0.6702 -0.8759  0.5881
  733TIP3    H223691   6.397   4.675  11.489 -0.3645  0.6311  1.3703
  734TIP3   OH223692   1.238   6.439  16.152  0.2990 -0.2110  0.5060
  734TIP3    H123693   1.211   6.347  16.155 -1.1669  0.1797  0.0251
  734TIP3    H223694   1.242   6.460  16.059  0.7325  0.1858  0.6102
  735TIP3   OH223695   3.193   6.739  11.961  0.6275 -0.4067 -0.3509
  735TIP3    H123696   3.286   6.752  11.942  0.9279 -2.2464 -0.3000
  735TIP3    H223697   3.150   6.749  11.876  0.7154  1.4015 -0.2240
  736TIP3   OH223698   3.128   5.609   0.206  0.0354 -0.3094 -0.3031
  736TIP3    H123699   3.074   5.589   0.282  1.2552  1.9917  1.2995
  736TIP3    H223700   3.197   5.543   0.207  1.0686  0.7211  1.7445
  737TIP3   OH223701   1.104   0.553  13.401 -0.6636  0.0627  0.0077
  737TIP3    H123702   1.085   0.645  13.419 -1.3987 -0.5747  2.9080
  737TIP3    H223703   1.019   0.512  13.391 -0.3425 -0.3905 -1.0995
  738TIP3   OH223704   2.805   5.757  12.542  0.4679  0.6534 -0.0878
  738TIP3    H123705   2.864   5.795  12.606 -0.4756  1.2671  0.4339
  738TIP3    H223706   2.851   5.768  12.458  0.7301  1.8786  0.1963
  739TIP3   OH223707   2.114   5.119   4.277 -0.1305  0.0533 -0.1722
  739TIP3    H123708   2.119   5.026   4.255 -0.8409 -0.5149  1.8858
  739TIP3    H223709   2.203   5.142   4.303 -0.7045 -1.2242  3.4265
  740TIP3   OH223710   4.969   3.615   4.483  0.2275 -0.4342  0.5140
  740TIP3    H123711   4.877   3.627   4.509  0.3081  3.6238 -0.4544
  740TIP3    H223712   4.965   3.568   4.400 -1.0557  0.1539  0.2198
  741TIP3   OH223713   5.370   3.438  13.907 -0.8017  0.3188  0.8177
  741TIP3    H123714   5.308   3.478  13.845 -0.5910 -0.6428 -0.0305
  741TIP3    H223715   5.336   3.350  13.921  1.0326 -0.6841 -0.6606
  742TIP3   OH223716   6.445   4.844   3.913 -0.5900 -0.0327  0.2893
  742TIP3    H123717   6.473   4.814   4.000  0.2233  0.7630  0.3203
  742TIP3    H223718   6.356   4.811   3.904  0.0547 -1.9771  0.5283
  743TIP3   OH223719   3.484   0.080   4.732 -0.1002 -0.1660  0.2164
  743TIP3    H123720   3.512   0.165   4.697  0.7199 -0.5501 -0.0957
  743TIP3    H223721   3.559   0.048   4.782 -0.8183 -0.1941  1.3140
  744TIP3   OH223722   6.200   0.136  16.928 -0.5334 -0.0890  0.3969
  744TIP3    H123723   6.155   0.051  16.932 -0.3270 -0.2047  0.2766
  744TIP3    H223724   6.293   0.114  16.936 -0.3247 -0.0492 -1.5322
  745TIP3   OH223725   4.685   0.607  13.723  0.5355 -0.6938 -0.3036
  745TIP3    H123726   4.659   0.526  13.678 -0.0512 -0.6801 -0.0097
  745TIP3    H223727   4.762   0.582  13.774  0.5582 -0.9832 -0.4765
  746TIP3   OH223728   2.161   5.477  17.105 -0.1880 -0.4806 -0.1301
  746TIP3    H123729   2.237   5.487  17.162 -0.7854  0.1920  0.5709
  746TIP3    H223730   2.087   5.468  17.165 -0.8623  0.4630 -0.7802
  747TIP3   OH223731   0.627   0.950  14.430  0.6472  0.4499  0.5171
  747TIP3    H123732   0.585   0.864  14.421 -0.3724  0.8590  1.2451
  747TIP3    H223733   0.720   0.928  14.442  0.4757 -0.5281  0.2147
  748TIP3   OH223734   4.153   6.249   5.836 -0.4871  0.2693  0.4790
  748TIP3    H123735   4.125   6.257   5.928  2.4608  2.0822  1.3766
  748TIP3    H223736   4.134   6.335   5.798  0.6896  0.4409  0.2179
  749TIP3   OH223737   1.612   2.573  11.942 -0.9987  0.2702  0.2723
  749TIP3    H123738   1.526   2.610  11.961 -2.6343 -3.0547 -0.0235
  749TIP3    H223739   1.643   2.542  12.027  1.3404  3.8427  0.9390
  750TIP3   OH223740   4.915   6.695   0.097  0.2322  0.2803 -0.2844
  750TIP3    H123741   4.998   6.667   0.059  0.2255  2.2258 -1.8699
  750TIP3    H223742   4.854   6.696   0.023 -0.5170  1.4717  0.3201
  751TIP3   OH223743   5.866   3.173  10.421  0.4284  0.3231  0.2121
  751TIP3    H123744   5.812   3.096  10.441  0.5686 -0.2070 -1.3117
  751TIP3    H223745   5.956   3.141  10.423  0.5059  0.5113 -0.1102
  752TIP3   OH223746   1.906   5.495  14.442 -0.1696 -0.3890 -0.0025
  752TIP3    H123747   1.838   5.519  14.504 -1.2793 -3.8460  0.3122
  752TIP3    H223748   1.987   5.497  14.493 -0.5193  0.3913  0.5359
  753TIP3   OH223749   1.041   2.662   2.747 -0.2013  0.1671 -0.1285
  753TIP3    H123750   1.043   2.573   2.783  0.6509 -0.3193 -1.3398
  753TIP3    H223751   1.045   2.719   2.825 -1.9593 -0.8077  0.7376
  754TIP3   OH223752   2.728   2.815  13.514 -0.4693  0.2371 -0.4649
  754TIP3    H123753   2.771   2.900  13.505 -0.0799  0.2231  0.9935
  754TIP3    H223754   2.670   2.809  13.438  1.3756  0.6775 -1.9733
  755TIP3   OH223755   4.360   3.350   5.341  0.1960 -0.0184  0.1418
  755TIP3    H123756   4.404   3.386   5.264  1.1041  1.7067  1.3856
  755TIP3    H223757   4.423   3.287   5.377 -0.5400 -1.3958 -0.8930
  756TIP3   OH223758   0.488   3.483  13.187 -0.7967 -0.0457 -0.3523
  756TIP3    H123759   0.448   3.450  13.267 -0.3430 -0.3632 -0.2574
  756TIP3    H223760   0.555   3.418  13.164  0.4676  1.0512  0.1135
  757TIP3   OH223761   0.521   3.426   5.877 -0.0814 -0.0120  0.2082
  757TIP3    H123762   0.558   3.392   5.796  0.0197 -1.1049  0.6923
  757TIP3    H223763   0.550   3.517   5.881 -0.0934  0.0515 -0.9729
  758TIP3   OH223764   1.665   1.649  16.810 -0.3768  0.1322 -0.2017
  758TIP3    H123765   1.733   1.587  16.783  0.6951  0.7093  1.0612
  758TIP3    H223766   1.675   1.655  16.905 -1.9996  0.4857 -0.0322
  759TIP3   OH223767   3.598   3.268  11.591  0.4756 -0.1921  0.2044
  759TIP3    H123768   3.529   3.249  11.655 -0.1934  0.2303 -0.3731
  759TIP3    H223769   3.626   3.183  11.560 -2.2376 -0.3852 -2.1049
  760TIP3   OH223770   4.165   3.209   2.877 -0.6071  0.0118 -0.2238
  760TIP3    H123771   4.210   3.294   2.877 -0.8974  0.1656 -0.5578
  760TIP3    H223772   4.112   3.210   2.956 -0.0490 -0.1613  0.1643
  761TIP3   OH223773   3.638   4.727  15.091 -0.0701 -0.0790 -0.1670
  761TIP3    H123774   3.709   4.666  15.069  1.1767  0.5022  1.9344
  761TIP3    H223775   3.578   4.676  15.146  0.8815  0.4696  1.4435
  762TIP3   OH223776   3.138   5.834  13.801  0.1060  0.1338 -0.4128
  762TIP3    H123777   3.128   5.863  13.711 -0.3985 -0.4092 -0.5390
  762TIP3    H223778   3.159   5.914  13.850 -3.6530  1.2567 -0.3225
  763TIP3   OH223779   0.937   2.291  11.457  0.0467  0.1410 -0.3566
  763TIP3    H123780   1.025   2.325  11.473  0.8007 -0.9465 -1.9045
  763TIP3    H223781   0.887   2.366  11.426 -0.3253  1.3443  2.8474
  764TIP3   OH223782   0.266   3.579  10.366 -0.3326 -0.9710  0.1225
  764TIP3    H123783   0.317   3.593  10.446 -0.0909 -0.5091 -0.1031
  764TIP3    H223784   0.242   3.667  10.338 -0.1782 -1.1082 -0.4580
  765TIP3   OH223785   4.381   0.595   4.940 -0.0424  0.0531  0.2275
  765TIP3    H123786   4.291   0.589   4.909  0.1112 -1.0708 -0.0342
  765TIP3    H223787   4.407   0.685   4.919  0.2516 -0.7284 -3.5765
  766TIP3   OH223788   1.700   3.835  13.877  0.0631 -0.1269  0.3337
  766TIP3    H123789   1.643   3.849  13.802  1.5085  0.4975 -0.7000
  766TIP3    H223790   1.727   3.743  13.870 -0.8706 -0.4553  0.8910
  767TIP3   OH223791   2.094   0.952   2.961  0.0272 -0.1078  0.5376
  767TIP3    H123792   2.131   0.956   3.050 -0.1687  1.1628  0.5795
  767TIP3    H223793   2.014   0.901   2.971  0.8261 -1.3429  0.7843
  768TIP3   OH223794   3.354   5.719  17.224  0.1846 -0.0608 -0.4277
  768TIP3    H123795   3.341   5.651  17.290  0.6471 -2.2937 -2.4594
  768TIP3    H223796   3.271   5.723  17.177  0.3459  0.3736 -0.6882
  769TIP3   OH223797   4.329   3.920  17.022  0.0514 -0.1787 -0.0392
  769TIP3    H123798   4.423   3.933  17.039  0.2135 -0.5183 -0.6619
  769TIP3    H223799   4.312   3.968  16.941 -0.0897 -0.9597 -0.4799
  770TIP3   OH223800   4.923   6.750   5.259  0.4546  0.3291 -0.1020
  770TIP3    H123801   4.944   6.736   5.166  0.5518  0.1574 -0.0556
  770TIP3    H223802   5.003   6.724   5.305  0.8552  1.6071 -0.0437
  771TIP3   OH223803   3.128   6.474   1.574 -0.0312 -0.3593 -0.0881
  771TIP3    H123804   3.150   6.480   1.668 -2.5750  0.4110  0.5410
  771TIP3    H223805   3.046   6.425   1.572  0.3048 -0.9154 -2.0173
  772TIP3   OH223806   0.545   1.540   1.163  0.2056 -0.2483  0.3414
  772TIP3    H123807   0.561   1.633   1.147  1.7746 -0.5690 -0.1041
  772TIP3    H223808   0.449   1.531   1.160 -0.0062  1.4299  0.9499
  773TIP3   OH223809   2.924   2.743  10.500  0.1255  0.4908  0.1970
  773TIP3    H123810   2.830   2.755  10.484  0.4289  1.0571 -1.3170
  773TIP3    H223811   2.961   2.831  10.494  0.9335  0.1107 -0.6555
  774TIP3   OH223812   6.215   3.168  14.209 -0.3262 -1.0550 -0.4436
  774TIP3    H123813   6.264   3.242  14.172 -1.0001 -0.3345  0.0824
  774TIP3    H223814   6.139   3.159  14.151 -0.7333 -0.7178  0.0238
  775TIP3   OH223815   6.712   2.733  10.615  0.1024 -0.1976 -0.6633
  775TIP3    H123816   6.790   2.686  10.644 -0.8039 -0.6263  1.2335
  775TIP3    H223817   6.658   2.665  10.573 -0.3980 -0.5226  0.4469
  776TIP3   OH223818   5.603   4.519   1.691 -0.2301  0.0790 -0.1775
  776TIP3    H123819   5.634   4.596   1.643 -1.5068  0.2665 -0.7487
  776TIP3    H223820   5.654   4.447   1.655 -0.5024  0.3591 -1.1724
  777TIP3   OH223821   6.468   5.773   6.060 -0.1837  0.1375 -0.2157
  777TIP3    H123822   6.545   5.794   6.112  0.2181 -0.6980 -0.4720
  777TIP3    H223823   6.496   5.702   6.002 -0.6672  0.9177 -1.4519
  778TIP3   OH223824   1.139   6.293   0.664 -0.1274 -0.2922  0.1677
  778TIP3    H123825   1.231   6.266   0.668  0.3088  1.1317  0.4106
  778TIP3    H223826   1.135   6.353   0.589 -0.6279  0.4052  0.7336
  779TIP3   OH223827   5.312   2.733   1.307  0.0086  0.0702 -0.7263
  779TIP3    H123828   5.248   2.755   1.375 -0.5677  0.5415 -1.4016
  779TIP3    H223829   5.375   2.805   1.310 -1.1542  1.2199 -2.0487
  780TIP3   OH223830   1.405   5.298   3.522  0.1881  0.5023  0.4118
  780TIP3    H123831   1.337   5.280   3.456  1.2561  1.5312 -1.0241
  780TIP3    H223832   1.480   5.247   3.492 -0.1157 -1.2497  2.4151
  781TIP3   OH223833   1.054   6.536  12.903  0.0869 -0.3019 -0.0074
  781TIP3    H123834   0.960   6.554  12.903 -0.3695 -2.0141  2.7617
  781TIP3    H223835   1.090   6.598  12.965  0.6523 -0.2305 -0.4042
  782TIP3   OH223836   3.682   5.120  12.032  0.4736 -0.1382  0.5006
  782TIP3    H123837   3.654   5.208  12.006 -0.5404  0.2384  2.6804
  782TIP3    H223838   3.724   5.132  12.117  2.0256 -1.5381 -0.0167
  783TIP3   OH223839   2.513   2.227   0.786 -0.1291 -0.4300 -0.5636
  783TIP3    H123840   2.492   2.137   0.762 -1.2219 -0.1582 -0.6618
  783TIP3    H223841   2.430   2.274   0.780  0.5143  0.6945 -0.9862
  784TIP3   OH223842   0.875   3.660  16.952  0.1112 -0.0449 -0.4496
  784TIP3    H123843   0.789   3.619  16.954  0.7199 -1.3888  1.7167
  784TIP3    H223844   0.885   3.692  16.862 -2.1658 -0.8305 -1.0398
  785TIP3   OH223845   4.234   2.320  14.430  0.5539  0.3160 -0.2271
  785TIP3    H123846   4.269   2.255  14.491 -1.6614  0.5938  1.4650
  785TIP3    H223847   4.309   2.347  14.378  2.5580 -0.0423  2.2944
  786TIP3   OH223848   0.824   4.427   0.897 -0.3710 -0.1046 -0.0795
  786TIP3    H123849   0.819   4.333   0.915  3.3225 -0.3493  0.5515
  786TIP3    H223850   0.803   4.436   0.804  1.0856 -1.8955 -0.6409
  787TIP3   OH223851   0.485   1.106  16.076  0.1352 -0.1439 -0.4597
  787TIP3    H123852   0.557   1.132  16.133 -0.6053 -3.2514  2.2400
  787TIP3    H223853   0.527   1.057  16.005  0.8600  0.2549 -0.3151
  788TIP3   OH223854   4.017   6.537   2.077  0.2459  0.8555 -0.3929
  788TIP3    H123855   4.063   6.500   2.152 -0.7746  0.2180 -0.0610
  788TIP3    H223856   4.053   6.626   2.069 -1.4901  2.0005  2.5930
  789TIP3   OH223857   4.866   1.807   5.158 -0.7939  0.3403  0.6109
  789TIP3    H123858   4.861   1.804   5.062 -0.4659  2.5034  0.4594
  789TIP3    H223859   4.818   1.730   5.188  0.4237 -1.2660 -1.2943
  790TIP3   OH223860   5.598   6.041   3.838  0.8137  0.1828 -0.2356
  790TIP3    H123861   5.646   6.124   3.839  0.7663  0.2433 -1.2610
  790TIP3    H223862   5.627   5.998   3.757  0.9367 -0.8650  0.3567
  791TIP3   OH223863   6.542   1.797   3.229  0.4228  0.3114  0.6022
  791TIP3    H123864   6.600   1.828   3.299  1.3824 -1.8415  0.8374
  791TIP3    H223865   6.588   1.723   3.190 -1.6755 -0.7917  0.0335
  792TIP3   OH223866   4.558   1.530   3.422  0.0967  0.1935 -0.9444
  792TIP3    H123867   4.537   1.612   3.378  0.7386  1.1150  0.4132
  792TIP3    H223868   4.641   1.547   3.466 -0.2972 -0.8137  0.2587
  793TIP3   OH223869   3.250   5.387   3.880 -0.3564 -0.6108  0.3074
  793TIP3    H123870   3.307   5.313   3.899  3.7468  2.2088  0.1281
  793TIP3    H223871   3.257   5.399   3.785  0.9263  1.2882  0.5979
  794TIP3   OH223872   3.222   5.374   0.723  0.2557 -0.1418 -0.2748
  794TIP3    H123873   3.309   5.348   0.753  0.2006  0.2992  0.2768
  794TIP3    H223874   3.222   5.353   0.629  0.0644 -2.5187  0.1777
  795TIP3   OH223875   2.670   5.322   3.660  0.6882  0.1836  0.1591
  795TIP3    H123876   2.580   5.293   3.647  0.5426  0.0983  1.2772
  795TIP3    H223877   2.708   5.323   3.572 -0.1945 -0.4505 -0.2393
  796TIP3   OH223878   4.656   2.469   2.809 -0.1667 -0.5138 -0.2160
  796TIP3    H123879   4.732   2.427   2.851 -0.8900  0.0429  1.7864
  796TIP3    H223880   4.582   2.416   2.838 -0.7097 -0.0394 -0.7266
  797TIP3   OH223881   6.293   4.671  16.289 -0.0031  0.5022  0.8922
  797TIP3    H123882   6.214   4.681  16.237 -0.0836  2.3666  1.2884
  797TIP3    H223883   6.297   4.751  16.342  2.3817  0.7004  0.5436
  798TIP3   OH223884   1.564   2.202   1.261 -0.2666 -0.1417  0.3995
  798TIP3    H123885   1.642   2.159   1.298 -0.1327 -1.0508 -0.8339
  798TIP3    H223886   1.561   2.170   1.170 -1.3677  0.8756  0.0549
  799TIP3   OH223887   3.433   0.819  11.248  0.1305 -0.2045  0.5592
  799TIP3    H123888   3.396   0.869  11.321 -1.4366 -0.1089 -0.2700
  799TIP3    H223889   3.415   0.727  11.270  0.4587 -0.2388  0.7022
  800TIP3   OH223890   5.953   3.679   0.291 -0.2577  0.1066 -0.6487
  800TIP3    H123891   5.877   3.628   0.320  0.5413  0.3697  2.1563
  800TIP3    H223892   5.935   3.768   0.320  1.2472  0.1026  0.4230
  801TIP3   OH223893   5.117   2.321  16.095 -0.1450  0.5125  0.1305
  801TIP3    H123894   5.175   2.342  16.168 -0.1611  0.4579  0.1582
  801TIP3    H223895   5.044   2.274  16.134  1.2372 -2.1785 -0.2304
  802TIP3   OH223896   4.293   4.091   5.414  0.1227 -0.1273 -0.4430
  802TIP3    H123897   4.202   4.078   5.440  0.3570 -1.9754 -0.4518
  802TIP3    H223898   4.342   4.092   5.497  0.2456 -0.4879 -0.5104
  803TIP3   OH223899   5.781   6.481   2.096 -0.0875 -0.0613  0.9562
  803TIP3    H123900   5.849   6.519   2.042 -0.7392 -1.2837 -0.7939
  803TIP3    H223901   5.726   6.431   2.036 -1.8159 -0.1485  2.4870
  804TIP3   OH223902   5.462   2.955   3.442  0.6176  0.5445  0.8293
  804TIP3    H123903   5.504   2.947   3.528 -0.3650 -0.7152  1.2254
  804TIP3    H223904   5.453   3.049   3.429 -0.4416  0.7594  2.7557
  805TIP3   OH223905   4.414   3.251   0.413 -0.0134  0.2916 -0.1194
  805TIP3    H123906   4.400   3.174   0.359 -0.3709 -0.4423  0.9806
  805TIP3    H223907   4.429   3.216   0.501 -2.4818  1.5293  0.8687
  806TIP3   OH223908   1.356   3.334   6.710  0.2646 -0.1684 -0.4103
  806TIP3    H123909   1.281   3.319   6.653  1.0705 -0.8777 -1.3088
  806TIP3    H223910   1.431   3.342   6.651  0.8014  1.3494  0.4107
  807TIP3   OH223911   6.121   6.149   5.782 -0.1704  0.6808 -0.1325
  807TIP3    H123912   6.138   6.241   5.798  4.9475  0.0481 -0.3631
  807TIP3    H223913   6.157   6.132   5.695 -1.6826 -1.4498 -0.4298
  808TIP3   OH223914   2.063   3.860  11.280 -0.1942  0.2793  0.4109
  808TIP3    H123915   2.107   3.828  11.201  0.7076  1.9975  0.1613
  808TIP3    H223916   2.134   3.899  11.332 -0.7991 -0.6665  2.0150
  809TIP3   OH223917   6.162   4.890   4.658 -0.0068  0.3484 -0.3078
  809TIP3    H123918   6.204   4.809   4.688  1.7074  1.4655  0.4831
  809TIP3    H223919   6.232   4.937   4.614 -1.6206  0.3129 -3.0932
  810TIP3   OH223920   0.025   0.400   0.120 -0.7277 -0.4851  0.0088
  810TIP3    H123921   0.114   0.371   0.141 -0.8641 -0.4269  0.7081
  810TIP3    H223922  -0.028   0.321   0.128 -0.9208 -0.2883  0.7921
  811TIP3   OH223923   4.687   1.618  14.630 -0.4219 -0.1380 -0.3071
  811TIP3    H123924   4.653   1.672  14.558 -2.4580 -0.8034  0.0660
  811TIP3    H223925   4.781   1.631  14.628 -0.5883  1.1818 -2.0257
  812TIP3   OH223926   4.286   0.540  15.668  0.1382  0.4936  0.6421
  812TIP3    H123927   4.205   0.491  15.654  0.6143  0.0023 -0.5596
  812TIP3    H223928   4.260   0.616  15.720 -1.5402  1.5818 -1.6388
  813TIP3   OH223929   5.287   6.506  10.770  0.0506 -0.1255  0.2082
  813TIP3    H123930   5.256   6.438  10.710  3.1196  0.1724 -1.9536
  813TIP3    H223931   5.381   6.512  10.753  0.8653  0.9645  4.2088
  814TIP3   OH223932   5.272   4.630   5.289  0.2823  0.7309 -0.0362
  814TIP3    H123933   5.326   4.584   5.225 -0.5224 -1.0350  0.4990
  814TIP3    H223934   5.314   4.611   5.373  0.1069  1.2680  0.1795
  815TIP3   OH223935   0.219   0.252   4.852  0.2614 -0.2596 -0.1261
  815TIP3    H123936   0.233   0.287   4.764 -1.3991  1.7527  0.3142
  815TIP3    H223937   0.304   0.262   4.895  0.6044  0.5466 -0.9426
  816TIP3   OH223938   2.568   2.476  15.683  0.1202  0.3369  0.4181
  816TIP3    H123939   2.522   2.423  15.747 -0.9250  1.3168  0.5229
  816TIP3    H223940   2.660   2.465  15.704 -0.0770 -1.1743  0.6162
  817TIP3   OH223941   5.454   3.452  15.743 -0.0628  0.3157 -0.5732
  817TIP3    H123942   5.530   3.437  15.687 -1.1850  1.8149 -2.6545
  817TIP3    H223943   5.436   3.545  15.735 -2.5273 -0.0932 -0.7775
  818TIP3   OH223944   0.610   4.883   2.943 -0.1045 -0.0846 -0.3197
  818TIP3    H123945   0.662   4.827   2.885 -1.1626 -0.6952 -0.6969
  818TIP3    H223946   0.571   4.949   2.885  0.8888  0.8835  0.0785
  819TIP3   OH223947   0.834   2.150   5.591  0.3552 -0.4736  0.1885
  819TIP3    H123948   0.865   2.073   5.639  1.9726 -0.7948 -1.2890
  819TIP3    H223949   0.784   2.113   5.518  0.9026 -0.1168 -0.3694
  820TIP3   OH223950   3.259   3.018  13.935 -0.6787  0.3280 -0.4497
  820TIP3    H123951   3.338   3.040  13.985 -0.9214 -0.9450  0.5515
  820TIP3    H223952   3.198   2.985  14.001 -0.6225 -2.5356 -1.6841
  821TIP3   OH223953   3.420   4.237  15.568  0.0492 -0.1405 -0.3675
  821TIP3    H123954   3.479   4.180  15.519  0.8874  2.4543 -2.5987
  821TIP3    H223955   3.471   4.266  15.643  0.6318 -0.1029 -0.7740
  822TIP3   OH223956   0.326   1.802  17.054  0.1276  0.1074  0.3319
  822TIP3    H123957   0.359   1.876  17.003  1.4780 -0.1103  0.8348
  822TIP3    H223958   0.266   1.841  17.117 -1.0777  0.4496 -0.9928
  823TIP3   OH223959   4.153   3.179  15.757  0.2190  0.3350  0.0421
  823TIP3    H123960   4.148   3.118  15.831  2.1398  0.9970  0.7730
  823TIP3    H223961   4.230   3.150  15.707 -0.4732  0.5030 -1.1654
  824TIP3   OH223962   2.490   0.044   1.690 -0.3439  0.4716 -0.3622
  824TIP3    H123963   2.431   0.119   1.686 -0.4807  0.5603  1.9089
  824TIP3    H223964   2.432  -0.032   1.682 -0.2352  0.5469 -2.3764
  825TIP3   OH223965   0.073   6.319   1.454  0.1090  0.4917  0.1485
  825TIP3    H123966   0.003   6.360   1.403  0.8980  1.0579 -0.4955
  825TIP3    H223967   0.028   6.254   1.507 -0.6569 -0.8923 -2.0328
  826TIP3   OH223968   5.724   6.356  13.156  0.6304  0.3478 -0.0939
  826TIP3    H123969   5.775   6.286  13.116  0.0031  1.0064 -2.1691
  826TIP3    H223970   5.750   6.435  13.108 -0.2425  1.1756  0.7551
  827TIP3   OH223971   4.051   2.787  13.249  0.0609 -0.0985 -0.2200
  827TIP3    H123972   4.131   2.819  13.208 -0.2460  1.3081  0.1951
  827TIP3    H223973   4.063   2.805  13.343 -1.3450  1.6473 -0.3179
  828TIP3   OH223974   4.730   5.568   5.700 -1.0283 -0.3762 -0.0031
  828TIP3    H123975   4.696   5.648   5.660 -3.3549 -1.1336  0.3319
  828TIP3    H223976   4.732   5.586   5.793  1.8982  0.4655 -0.1165
  829TIP3   OH223977   0.482   6.374   4.865 -0.3744 -0.3991 -0.3017
  829TIP3    H123978   0.526   6.442   4.814  2.5254  0.0216  2.4478
  829TIP3    H223979   0.418   6.422   4.918  1.4056  0.2699  1.3581
  830TIP3   OH223980   3.583   0.224  12.550 -0.4541  0.0292  0.3986
  830TIP3    H123981   3.650   0.233  12.482  0.4703 -2.2544  0.8967
  830TIP3    H223982   3.505   0.195  12.503  0.6611 -3.3273  0.3294
  831TIP3   OH223983   3.525   5.841  11.859 -0.1098  0.5862  0.5193
  831TIP3    H123984   3.603   5.804  11.818 -0.3191  0.0046  0.6379
  831TIP3    H223985   3.453   5.815  11.801 -0.4094 -0.2602  1.2505
  832TIP3   OH223986   6.477   2.707   3.499  0.0971  0.5235 -0.1568
  832TIP3    H123987   6.429   2.643   3.550  1.2094 -1.0745 -1.0298
  832TIP3    H223988   6.501   2.661   3.418  2.1478  1.5651 -0.2188
  833TIP3   OH223989   0.683   1.164   1.808  0.1976  0.2533 -1.0456
  833TIP3    H123990   0.688   1.169   1.903  0.9609  1.6509 -1.1350
  833TIP3    H223991   0.590   1.160   1.789 -0.0376  1.4366 -0.2714
  834TIP3   OH223992   4.021   0.494   5.361 -0.2486 -0.2731  0.3756
  834TIP3    H123993   3.961   0.453   5.424 -0.4811 -1.7522 -0.7605
  834TIP3    H223994   4.081   0.545   5.415 -2.3132  1.0510  1.5984
  835TIP3   OH223995   6.235   1.195   4.542  0.6326 -0.1030  0.6540
  835TIP3    H123996   6.178   1.119   4.534 -0.8133  0.8970  1.0943
  835TIP3    H223997   6.276   1.184   4.628  1.7116 -1.1990  0.0325
  836TIP3   OH223998   5.997   5.494   5.639  0.3560  0.0910 -0.2899
  836TIP3    H123999   6.007   5.502   5.734  0.1955 -0.5213 -0.2135
  836TIP3    H224000   6.077   5.450   5.610 -0.1918 -0.9884 -0.2400
  837TIP3   OH224001   0.293   5.614   3.701 -0.6925  0.4568  0.2208
  837TIP3    H124002   0.364   5.678   3.692  1.0018 -1.3933 -0.4175
  837TIP3    H224003   0.268   5.593   3.611  0.7673 -1.7866  0.2630
  838TIP3   OH224004   1.478   3.624   4.016 -0.0528 -0.3579 -0.0758
  838TIP3    H124005   1.397   3.576   4.038  0.2955  0.0698  2.5404
  838TIP3    H224006   1.448   3.699   3.965 -1.0946 -1.1064 -0.6154
  839TIP3   OH224007   0.533   3.493  13.967 -0.2525  0.2540  0.5696
  839TIP3    H124008   0.629   3.490  13.970 -0.2049 -0.4794 -0.7787
  839TIP3    H224009   0.514   3.553  13.894 -0.7816 -0.7133 -0.1089
  840TIP3   OH224010   0.648   4.428   6.080 -0.4722 -0.3877  0.3545
  840TIP3    H124011   0.577   4.484   6.110  0.3677  0.8171  0.1737
  840TIP3    H224012   0.668   4.459   5.992  1.1085  0.1927  0.8660
  841TIP3   OH224013   0.576   3.218  11.143  0.6452 -0.1118  0.0167
  841TIP3    H124014   0.569   3.123  11.135  0.1679 -0.0199 -0.7991
  841TIP3    H224015   0.488   3.250  11.123  0.8895  0.5163 -0.0667
  842TIP3   OH224016   6.620   2.242  12.881 -0.4206 -0.3988  0.7425
  842TIP3    H124017   6.665   2.322  12.857 -0.9483 -0.5462 -0.8449
  842TIP3    H224018   6.687   2.174  12.877 -0.5035 -0.4276 -0.4294
  843TIP3   OH224019   1.066   4.378  15.357  0.5821 -0.2141  0.3691
  843TIP3    H124020   1.123   4.449  15.328  1.1786 -1.0853 -0.6938
  843TIP3    H224021   1.034   4.406  15.442  0.0889  1.7170 -0.4055
  844TIP3   OH224022   0.054   2.496   1.019  0.0472  0.2991  0.2720
  844TIP3    H124023   0.013   2.478   1.104  2.2098  3.0738  2.1182
  844TIP3    H224024   0.133   2.441   1.019 -1.5008 -2.1077 -1.5153
  845TIP3   OH224025   1.078   4.919   2.784  0.0997  0.4489  0.2249
  845TIP3    H124026   1.125   4.938   2.703 -0.1315 -1.9525 -0.5489
  845TIP3    H224027   1.147   4.918   2.851  0.7160 -0.0395 -0.3917
  846TIP3   OH224028   2.143   4.677  11.533 -0.0372  0.4747  0.4114
  846TIP3    H124029   2.196   4.627  11.594  0.1035  0.8618  0.6094
  846TIP3    H224030   2.200   4.748  11.503  0.2178 -0.2432 -0.8953
  847TIP3   OH224031   4.960   1.053   2.925 -0.2270 -0.3114  0.4490
  847TIP3    H124032   4.981   0.960   2.932 -1.0034 -0.4892  0.5761
  847TIP3    H224033   4.894   1.057   2.855  1.6237  0.4653 -1.3331
  848TIP3   OH224034   1.392   2.556   1.004  0.4211  0.4237  0.4018
  848TIP3    H124035   1.381   2.494   0.932  0.4255  1.0034 -0.1108
  848TIP3    H224036   1.302   2.582   1.027  0.3193 -1.0066  1.7348
  849TIP3   OH224037   3.870   4.912   5.433 -0.2407 -0.5121 -0.1639
  849TIP3    H124038   3.864   4.976   5.505 -0.0291 -0.6553 -0.0171
  849TIP3    H224039   3.783   4.912   5.394 -0.6284 -1.0932  0.6682
  850TIP3   OH224040   4.702   3.372  15.719 -0.1611  0.0522  1.1530
  850TIP3    H124041   4.764   3.299  15.713  0.5371  0.7231 -1.0156
  850TIP3    H224042   4.757   3.449  15.734 -0.4207  0.6084 -0.4498
  851TIP3   OH224043   2.625   4.959  12.112 -0.4259  0.2783 -0.3445
  851TIP3    H124044   2.648   5.048  12.141 -0.3842  0.1685 -0.0352
  851TIP3    H224045   2.609   4.968  12.018  0.5919  0.4117 -0.5129
  852TIP3   OH224046   6.153   4.195  16.293 -0.0746  0.1492 -0.6612
  852TIP3    H124047   6.110   4.143  16.361  1.1516 -0.1635 -0.0842
  852TIP3    H224048   6.114   4.282  16.302 -1.3658 -0.3796 -0.9169
  853TIP3   OH224049   4.809   1.360  13.276  0.1425 -0.1434 -0.1129
  853TIP3    H124050   4.717   1.379  13.297 -0.0982 -1.7615  0.4828
  853TIP3    H224051   4.837   1.434  13.223 -1.2388  0.8374  0.4452
  854TIP3   OH224052   2.606   1.332   2.239 -0.1510  0.2580  0.2837
  854TIP3    H124053   2.586   1.406   2.297  0.4460  2.2219 -1.8914
  854TIP3    H224054   2.523   1.312   2.196 -0.3006 -0.3452  0.8339
  855TIP3   OH224055   2.719   6.454  14.136 -0.2006 -0.7155  0.0858
  855TIP3    H124056   2.647   6.444  14.197 -0.0525 -0.2903  0.3408
  855TIP3    H224057   2.737   6.366  14.104 -2.1632 -0.6018 -1.5501
  856TIP3   OH224058   1.414   6.696   2.710 -0.2341 -0.2775 -0.5455
  856TIP3    H124059   1.476   6.715   2.640  0.7706  0.3077  0.4786
  856TIP3    H224060   1.436   6.607   2.739 -1.1073 -0.7965 -1.4128
  857TIP3   OH224061   1.539   5.379  16.083  0.5692  0.2525 -0.0647
  857TIP3    H124062   1.569   5.432  16.009  1.2352 -3.4343 -2.7254
  857TIP3    H224063   1.454   5.346  16.055 -0.1387  0.4002  1.8014
  858TIP3   OH224064   3.072   4.315  15.976  0.0729  0.1499 -0.3198
  858TIP3    H124065   3.132   4.257  16.022 -0.4381  0.5469  0.8775
  858TIP3    H224066   3.079   4.288  15.884  2.2154  0.3444 -0.2573
  859TIP3   OH224067   6.502   4.364  11.610 -0.1836 -0.2398 -0.5505
  859TIP3    H124068   6.428   4.304  11.614 -0.2193 -0.1920 -0.4799
  859TIP3    H224069   6.469   4.442  11.566  0.1946 -0.7404 -1.7574
  860TIP3   OH224070   6.592   1.753  15.954 -0.1934  0.0408 -0.4762
  860TIP3    H124071   6.539   1.679  15.924 -0.5084 -0.4456  1.1426
  860TIP3    H224072   6.682   1.730  15.931 -0.5021  0.1896 -1.9323
  861TIP3   OH224073   1.322   2.905   2.159 -0.1527  0.4972  0.5240
  861TIP3    H124074   1.352   2.815   2.144  0.0634  1.0254 -2.7073
  861TIP3    H224075   1.231   2.895   2.187  0.5420 -0.7539  2.5957
  862TIP3   OH224076   0.066   5.017   0.366  0.1581 -0.2396  0.1719
  862TIP3    H124077   0.016   5.014   0.447 -1.3088  0.6782 -0.6466
  862TIP3    H224078   0.073   5.111   0.345  0.5672 -0.4548 -0.7190
  863TIP3   OH224079   2.747   2.954   4.211 -0.0285 -0.0166  0.0273
  863TIP3    H124080   2.829   2.925   4.171  1.4954 -0.4400  3.1139
  863TIP3    H224081   2.757   3.049   4.220  0.0148 -0.0295  0.1240
  864TIP3   OH224082   2.941   0.954  12.252  0.5341  0.5177 -0.1499
  864TIP3    H124083   3.013   0.996  12.205 -0.2545  1.6688 -0.3585
  864TIP3    H224084   2.879   0.928  12.184 -0.9200  2.7721  0.2213
  865TIP3   OH224085   1.128   4.876  16.706 -0.1672  0.4370  0.3681
  865TIP3    H124086   1.163   4.830  16.783 -0.1798  1.1571  0.8100
  865TIP3    H224087   1.161   4.826  16.632 -0.0134 -0.1752  0.8310
  866TIP3   OH224088   0.379   1.389  11.443  0.6495  0.0410 -0.1766
  866TIP3    H124089   0.339   1.374  11.358  1.1062 -0.2772 -0.3391
  866TIP3    H224090   0.473   1.392  11.426  0.7689 -0.3630  0.3597
  867TIP3   OH224091   1.488   4.452   5.865  0.2439 -0.4749  0.1277
  867TIP3    H124092   1.450   4.367   5.887 -0.0390 -0.0141  1.5593
  867TIP3    H224093   1.414   4.503   5.831  0.4368 -0.8290 -0.8326
  868TIP3   OH224094   0.001   5.415  12.437  0.0392 -0.4607  0.1003
  868TIP3    H124095  -0.086   5.392  12.469  0.3231 -1.9933 -0.1518
  868TIP3    H224096   0.012   5.506  12.462 -1.5855 -0.2654  0.2481
  869TIP3   OH224097   6.140   1.775  16.155 -0.4998  0.6718 -0.9204
  869TIP3    H124098   6.222   1.803  16.195 -0.4800 -1.8125  0.9832
  869TIP3    H224099   6.165   1.704  16.096 -1.3395 -0.6799  0.3094
  870TIP3   OH224100   3.086   2.430   3.187 -0.2182 -0.4086  0.5015
  870TIP3    H124101   3.144   2.477   3.247  0.5376 -2.5464  1.5621
  870TIP3    H224102   3.087   2.340   3.219 -0.1727 -1.5706 -2.4574
  871TIP3   OH224103   6.454   2.969  12.907  0.2305 -0.0977  0.0130
  871TIP3    H124104   6.418   2.881  12.895 -1.3194  0.3412  1.0590
  871TIP3    H224105   6.383   3.028  12.881 -0.0791  0.8121  2.6455
  872TIP3   OH224106   5.818   0.009  11.951 -0.5980  0.1377 -0.1663
  872TIP3    H124107   5.889  -0.019  11.893 -0.5279  0.6550 -0.3347
  872TIP3    H224108   5.773  -0.073  11.974 -2.4280  0.1034 -3.2509
  873TIP3   OH224109   4.500   2.055   5.534 -0.1762 -0.2904 -0.3308
  873TIP3    H124110   4.520   2.003   5.456  1.3096 -2.0799  1.1418
  873TIP3    H224111   4.519   1.996   5.608  1.5329  2.2831  1.4731
  874TIP3   OH224112   3.546   6.188  15.823 -0.2761  0.0411 -1.3391
  874TIP3    H124113   3.541   6.106  15.774  0.9534 -1.7472  1.2869
  874TIP3    H224114   3.567   6.161  15.912 -1.4801  3.1552  0.0139
  875TIP3   OH224115   1.430   3.734   3.301  0.3648 -0.0956  0.2671
  875TIP3    H124116   1.367   3.790   3.346 -0.9292 -0.7565 -0.6611
  875TIP3    H224117   1.415   3.647   3.338  2.2160  0.0724  1.5454
  876TIP3   OH224118   0.684   6.496  13.136  0.1526 -0.0694 -0.1162
  876TIP3    H124119   0.701   6.585  13.164 -1.2176  0.2320 -0.1381
  876TIP3    H224120   0.683   6.500  13.040  2.3726 -0.6005 -0.2099
  877TIP3   OH224121   4.793   1.365   2.473 -0.2371 -0.5284 -0.0267
  877TIP3    H124122   4.757   1.276   2.461  1.1972 -1.1047 -0.1835
  877TIP3    H224123   4.733   1.421   2.422  0.3703 -1.7668 -2.2667
  878TIP3   OH224124   0.763   5.131   1.597  0.5016 -0.2609  0.3431
  878TIP3    H124125   0.687   5.158   1.648 -0.0348  0.4384 -0.8082
  878TIP3    H224126   0.733   5.055   1.547 -0.5145  1.9126 -2.5900
  879TIP3   OH224127   3.149   5.697  16.971 -0.9514 -0.2802  0.1594
  879TIP3    H124128   3.083   5.744  16.920 -1.8092 -1.0229  0.5716
  879TIP3    H224129   3.111   5.691  17.059  1.5539  3.3073  1.7565
  880TIP3   OH224130   4.831   5.072   5.274  0.2358 -0.5775  0.3152
  880TIP3    H124131   4.787   5.117   5.346 -0.5493  0.8731 -1.0210
  880TIP3    H224132   4.817   4.979   5.292  0.1456 -0.2608  2.0679
  881TIP3   OH224133   0.866   0.413   2.805  0.4791 -0.3508 -0.0500
  881TIP3    H124134   0.818   0.494   2.824 -1.1432 -1.3920  0.4858
  881TIP3    H224135   0.876   0.414   2.710  0.0919  0.2809 -0.0971
  882TIP3   OH224136   5.048   5.157   1.583  0.2250  0.1915  0.2457
  882TIP3    H124137   4.954   5.155   1.564  0.4740  1.4505 -1.2598
  882TIP3    H224138   5.057   5.106   1.664 -1.8110  0.5170  0.7193
  883TIP3   OH224139   0.386   5.099   3.272  0.0181 -0.5631 -0.1234
  883TIP3    H124140   0.329   5.066   3.342  0.3722 -0.6044  0.1460
  883TIP3    H224141   0.406   5.022   3.219  2.9838 -1.4203  1.9718
  884TIP3   OH224142   0.009   4.183  14.948 -0.1548 -0.2426  0.6557
  884TIP3    H124143  -0.083   4.160  14.945 -0.1940 -0.1028  0.7403
  884TIP3    H224144   0.010   4.272  14.984 -0.0341  0.0533 -0.0623
  885TIP3   OH224145   4.087   3.439  14.136 -0.2209  0.4998 -0.6555
  885TIP3    H124146   4.064   3.346  14.143  1.7422  0.0597  1.1707
  885TIP3    H224147   4.037   3.481  14.207 -0.3289  0.6593 -0.8265
  886TIP3   OH224148   1.464   3.489   0.137 -0.6013  0.4589  0.1322
  886TIP3    H124149   1.377   3.519   0.110 -0.6117 -1.0722 -1.6741
  886TIP3    H224150   1.522   3.562   0.114 -1.2331  1.0293  0.2884
  887TIP3   OH224151   3.298   4.359   4.062  0.1793 -0.4039 -0.0713
  887TIP3    H124152   3.293   4.426   3.994  0.7943  1.4582  1.6068
  887TIP3    H224153   3.207   4.340   4.084 -0.0123  0.4913 -0.0396
  888TIP3   OH224154   0.710   6.279  12.607 -0.1429  0.3938 -0.6120
  888TIP3    H124155   0.696   6.220  12.681  1.9768 -0.6309 -0.9460
  888TIP3    H224156   0.635   6.338  12.608 -0.6111 -0.1589  1.8019
  889TIP3   OH224157   6.506   2.591   3.955 -0.2341  0.0150  0.0774
  889TIP3    H124158   6.545   2.655   4.014  0.7907 -0.2227 -0.3022
  889TIP3    H224159   6.574   2.578   3.888 -1.1010 -0.2142 -0.7668
  890TIP3   OH224160   4.909   1.309   1.919 -0.6139 -0.4278  0.3517
  890TIP3    H124161   4.958   1.389   1.936  1.9052 -1.3539 -1.8435
  890TIP3    H224162   4.852   1.299   1.995  0.0275  2.6372  1.3784
  891TIP3   OH224163   2.107   2.572   1.587  0.3586  0.0336  0.5153
  891TIP3    H124164   2.036   2.522   1.627  0.6217  0.3936  1.4707
  891TIP3    H224165   2.063   2.647   1.546  0.2191  0.5321  1.5467
  892TIP3   OH224166   2.416   3.423  11.709 -0.2225 -0.5696 -0.7939
  892TIP3    H124167   2.501   3.442  11.669 -0.5279 -0.3389 -1.3524
  892TIP3    H224168   2.355   3.483  11.665 -0.4253  0.3536  0.6700
  893TIP3   OH224169   6.419   4.857  15.989  0.9468 -0.5157 -0.4354
  893TIP3    H124170   6.331   4.881  16.019  1.0676 -0.6237  0.0138
  893TIP3    H224171   6.477   4.917  16.036  1.1538 -0.8104 -0.3117
  894TIP3   OH224172   4.174   4.969  15.785  0.6449 -0.0526  0.1263
  894TIP3    H124173   4.266   4.949  15.768  1.0405 -0.3166  2.2972
  894TIP3    H224174   4.128   4.887  15.764  1.1469 -0.5053  0.7633
  895TIP3   OH224175   3.719   2.379  12.417 -0.4347  0.1057  0.2535
  895TIP3    H124176   3.673   2.453  12.459 -0.7223  0.0481  0.0429
  895TIP3    H224177   3.656   2.345  12.353 -0.6629 -0.9111  0.9963
  896TIP3   OH224178   0.530   3.115  17.155 -0.3364  0.1087 -0.1865
  896TIP3    H124179   0.593   3.043  17.165 -0.3543  0.3427  1.9415
  896TIP3    H224180   0.558   3.160  17.075  1.3682 -0.6209 -0.0415
  897TIP3   OH224181   0.026   5.013  12.906  0.0369  0.9864 -0.0449
  897TIP3    H124182  -0.069   5.023  12.905  0.1380  2.3409 -2.4805
  897TIP3    H224183   0.041   4.930  12.859  0.0700  0.6721  0.5119
  898TIP3   OH224184   2.001   4.167  16.872  0.3581 -0.2171 -0.0568
  898TIP3    H124185   1.950   4.227  16.817 -1.6919 -0.7752  1.1082
  898TIP3    H224186   2.050   4.113  16.811  2.0919  2.4154 -1.1647
  899TIP3   OH224187   0.457   5.244   4.060  0.2256 -0.1203  0.1421
  899TIP3    H124188   0.432   5.152   4.054 -1.4635  0.3850 -1.3449
  899TIP3    H224189   0.546   5.242   4.096  0.2989 -2.3263 -0.0170
  900TIP3   OH224190   6.033   1.031   0.013 -0.1368  0.0286  0.3158
  900TIP3    H124191   6.096   1.049   0.083 -0.4528 -0.2721  0.6835
  900TIP3    H224192   5.966   1.098   0.024 -0.2995 -0.1541  0.4390
  901TIP3   OH224193   5.665   5.145   1.288  0.3271 -0.1814  0.2838
  901TIP3    H124194   5.576   5.128   1.258  0.0935  0.6523  0.5042
  901TIP3    H224195   5.668   5.238   1.307  1.7409  0.1627 -1.3550
  902TIP3   OH224196   0.845   4.014   2.169  0.2874 -0.0580 -0.7212
  902TIP3    H124197   0.772   4.063   2.205 -0.9584 -1.2968 -1.4334
  902TIP3    H224198   0.805   3.934   2.133  2.0628 -1.0748 -0.5862
  903TIP3   OH224199   5.627   2.565  11.170 -0.2616  0.5226 -0.1755
  903TIP3    H124200   5.588   2.577  11.256 -2.6511 -0.5151 -1.0456
  903TIP3    H224201   5.586   2.632  11.115 -1.1058 -0.7691 -1.1820
  904TIP3   OH224202   2.303   2.834  14.719  0.0166  0.8068  0.8352
  904TIP3    H124203   2.321   2.866  14.630 -2.7691  0.6395  0.1279
  904TIP3    H224204   2.338   2.745  14.720  0.4490  0.9572  0.0624
  905TIP3   OH224205   1.400   6.014  13.676  0.4386 -0.2468 -0.0901
  905TIP3    H124206   1.449   5.977  13.749  1.3100 -1.9385 -1.4438
  905TIP3    H224207   1.448   6.092  13.652  0.3845  0.0883  0.8513
  906TIP3   OH224208   3.970   1.571   4.581 -0.0418 -0.1402 -0.4048
  906TIP3    H124209   3.985   1.477   4.576  1.5200 -0.2658  3.3524
  906TIP3    H224210   3.899   1.580   4.645 -1.0340  1.2462 -1.6512
  907TIP3   OH224211   3.558   1.871   1.117 -0.5144 -0.0962  0.4740
  907TIP3    H124212   3.470   1.847   1.146 -1.6490  1.6084 -1.2762
  907TIP3    H224213   3.559   1.849   1.024  1.0265 -0.3165  0.5207
  908TIP3   OH224214   5.025   3.730  12.666 -0.0458 -0.1879 -0.1581
  908TIP3    H124215   4.963   3.757  12.598  0.2625  1.9058  0.3145
  908TIP3    H224216   5.023   3.802  12.729  0.0195 -1.8685  1.8311
  909TIP3   OH224217   0.488   2.708  12.186 -0.0044 -0.0559 -0.2212
  909TIP3    H124218   0.454   2.797  12.181 -0.9389 -0.4370 -0.8954
  909TIP3    H224219   0.451   2.673  12.267  0.2484  0.1115 -0.0303
  910TIP3   OH224220   3.142   5.961  14.187  0.4204 -0.0902  0.0449
  910TIP3    H124221   3.160   6.013  14.266 -2.7573 -0.6016  1.2530
  910TIP3    H224222   3.198   5.884  14.195  0.7064  0.2373  1.4233
  911TIP3   OH224223   1.279   1.839  11.170 -0.0846 -0.1634 -0.2820
  911TIP3    H124224   1.373   1.835  11.184 -0.4315 -0.6496  2.3367
  911TIP3    H224225   1.267   1.912  11.108  1.9251  0.5976  0.1496
  912TIP3   OH224226   0.751   3.909   4.867 -0.2137 -0.0755 -0.1116
  912TIP3    H124227   0.843   3.901   4.844  0.1225  0.8487  0.8313
  912TIP3    H224228   0.718   3.819   4.865  0.5914 -0.3732 -0.8602
  913TIP3   OH224229   3.239   0.745  12.410 -0.2521  0.0754  0.2985
  913TIP3    H124230   3.151   0.752  12.447  0.3276  0.7464  1.6465
  913TIP3    H224231   3.296   0.782  12.478  1.4839 -3.4703  1.0214
  914TIP3   OH224232   5.684   0.266   3.784 -0.3410  0.0022  0.1679
  914TIP3    H124233   5.764   0.280   3.834  0.3740 -0.5024 -0.8005
  914TIP3    H224234   5.678   0.170   3.775  1.3551  0.0698 -3.4250
  915TIP3   OH224235   3.594   3.643  14.009  0.5979  0.2529  0.3346
  915TIP3    H124236   3.515   3.600  14.042 -0.2387  2.4515  1.3662
  915TIP3    H224237   3.625   3.696  14.082  4.4016 -2.1898  0.7502
  916TIP3   OH224238   1.990   1.987   1.214 -0.7335 -0.3473  0.3575
  916TIP3    H124239   1.930   1.964   1.143 -0.7918  1.4305 -0.1963
  916TIP3    H224240   2.066   2.025   1.170  0.1396 -1.1073  1.1539
  917TIP3   OH224241   4.365   6.068  12.882  0.4838 -0.1684  0.3748
  917TIP3    H124242   4.454   6.049  12.855  0.8162  0.0986  1.2517
  917TIP3    H224243   4.323   6.105  12.804  0.1556 -3.2613 -1.0393
  918TIP3   OH224244   5.031   1.801   1.535 -0.4787 -0.2444  0.2558
  918TIP3    H124245   5.043   1.708   1.555 -0.5957  0.0074  1.6184
  918TIP3    H224246   4.945   1.822   1.571 -0.6442  0.2925 -0.4415
  919TIP3   OH224247   2.288   3.557   0.012  0.4087 -0.0359 -0.3202
  919TIP3    H124248   2.235   3.592   0.083  0.4628 -0.4116 -0.0929
  919TIP3    H224249   2.281   3.462   0.021  1.6354 -0.1073  0.1189
  920TIP3   OH224250   5.372   4.296   6.090 -0.7076  0.6960  0.4229
  920TIP3    H124251   5.327   4.340   6.163  2.0892 -0.1957  2.9013
  920TIP3    H224252   5.438   4.241   6.133  0.4532 -0.6584 -2.8146
  921TIP3   OH224253   3.902   0.446  14.446  0.2154  0.1112  0.6514
  921TIP3    H124254   3.899   0.540  14.428  0.1026 -0.3545 -2.2252
  921TIP3    H224255   3.971   0.412  14.389 -1.0907 -1.8036  0.0874
  922TIP3   OH224256   2.450   3.498   6.275 -0.6771  0.4130 -0.0147
  922TIP3    H124257   2.545   3.503   6.279 -0.6396 -0.6880  0.6825
  922TIP3    H224258   2.429   3.408   6.298 -1.8001  0.1275 -1.9162
  923TIP3   OH224259   2.923   1.349   5.444 -0.0734 -0.0919  0.5878
  923TIP3    H124260   2.945   1.265   5.403  0.7477 -0.4235  1.6865
  923TIP3    H224261   3.007   1.392   5.458 -0.4209  0.4560  1.0009
  924TIP3   OH224262   2.406   2.836  14.041 -0.3318 -0.0458  0.2321
  924TIP3    H124263   2.357   2.765  14.000  2.7801 -2.2432 -0.0194
  924TIP3    H224264   2.424   2.897  13.970 -1.1356 -0.1003 -0.0303
  925TIP3   OH224265   6.418   4.665   5.594 -0.1290 -0.2086 -0.5478
  925TIP3    H124266   6.324   4.658   5.608 -0.0929 -0.5949 -0.4774
  925TIP3    H224267   6.453   4.582   5.627  0.3438  0.3338  0.3584
  926TIP3   OH224268   4.482   5.142   4.808  0.3730 -0.1527 -0.3237
  926TIP3    H124269   4.387   5.153   4.812  0.3475 -0.1801 -0.8550
  926TIP3    H224270   4.517   5.211   4.865  0.0168 -0.4582  0.2677
  927TIP3   OH224271   0.339   4.633   0.622  0.5083  0.0600 -0.6911
  927TIP3    H124272   0.289   4.554   0.639 -1.1750  1.1227 -0.4291
  927TIP3    H224273   0.370   4.625   0.532  1.3318 -1.3600 -0.3075
  928TIP3   OH224274   4.006   5.990  12.597 -0.8977 -0.3141  0.0864
  928TIP3    H124275   3.915   6.008  12.622 -1.1323 -1.7022  0.3428
  928TIP3    H224276   4.037   5.929  12.664 -0.3236 -1.1888 -0.9487
  929TIP3   OH224277   5.149   1.728  13.903 -0.3985  0.0494  0.8350
  929TIP3    H124278   5.081   1.792  13.924 -0.3435  0.9257 -1.3403
  929TIP3    H224279   5.231   1.774  13.920 -0.3578  0.6651 -0.8211
  930TIP3   OH224280   4.533   2.229   3.478 -0.4536 -0.4469 -0.2999
  930TIP3    H124281   4.467   2.198   3.541 -0.1345 -2.1749 -0.7635
  930TIP3    H224282   4.564   2.149   3.435 -0.7154  0.6681 -2.7113
  931TIP3   OH224283   5.996   1.066  11.285  0.4574  0.1811 -0.2414
  931TIP3    H124284   5.950   0.982  11.287  0.6795  0.0716  0.9677
  931TIP3    H224285   5.933   1.126  11.244  0.3996 -0.6151 -1.3792
  932TIP3   OH224286   4.709   3.003  13.211 -0.1564  0.0341 -0.3158
  932TIP3    H124287   4.749   3.080  13.169 -1.5199 -0.1191 -1.9918
  932TIP3    H224288   4.700   3.028  13.303 -0.6498  1.9296 -0.8389
  933TIP3   OH224289   5.410   0.578  16.906  1.3070  0.0294 -0.1678
  933TIP3    H124290   5.450   0.578  16.992 -0.1332  0.3684  0.5257
  933TIP3    H224291   5.354   0.655  16.905  2.0104  0.5702 -1.7647
  934TIP3   OH224292   1.122   3.104  15.620 -0.4454  0.1265  0.1345
  934TIP3    H124293   1.178   3.181  15.625 -1.0427  0.5077  1.9965
  934TIP3    H224294   1.043   3.135  15.576 -1.1770  0.9681  1.9339
  935TIP3   OH224295   4.713   2.832   2.779 -0.5034  0.0275 -0.0314
  935TIP3    H124296   4.626   2.793   2.776 -0.5543  0.0191  1.0259
  935TIP3    H224297   4.745   2.813   2.867 -0.6901  2.7000  0.7094
  936TIP3   OH224298   6.525   6.697   2.830 -0.0708  0.5811 -0.1929
  936TIP3    H124299   6.606   6.645   2.826 -1.2194 -1.2777 -0.8962
  936TIP3    H224300   6.529   6.754   2.753 -0.1063 -0.6330 -1.1347
  937TIP3   OH224301   5.085   5.280  10.679  0.1030  0.1604  0.4489
  937TIP3    H124302   5.092   5.215  10.609 -0.1177 -0.3453  0.8899
  937TIP3    H224303   5.175   5.294  10.708  0.5787  2.3956 -1.7208
  938TIP3   OH224304   1.688   5.472   3.970  0.3554  0.2112  0.2236
  938TIP3    H124305   1.776   5.493   3.937  1.2610 -2.4622  0.7071
  938TIP3    H224306   1.658   5.400   3.915 -1.9986  1.6294 -0.5082
  939TIP3   OH224307   0.340   2.417  16.568  0.0677 -0.4910  0.0483
  939TIP3    H124308   0.328   2.341  16.510  0.0014  0.1636 -0.8279
  939TIP3    H224309   0.251   2.451  16.580  0.2242  0.2110 -0.6546
  940TIP3   OH224310   3.350   2.636   1.047  0.1778  0.4040  0.2466
  940TIP3    H124311   3.415   2.701   1.022  0.5484  0.3011  0.9273
  940TIP3    H224312   3.317   2.602   0.964 -0.3357  1.7588 -0.1251
  941TIP3   OH224313   6.396   3.756  11.254 -0.4688  0.3847 -0.3009
  941TIP3    H124314   6.397   3.817  11.329  0.2564  0.3659 -0.2856
  941TIP3    H224315   6.352   3.678  11.287  0.8224 -0.0538  0.4691
  942TIP3   OH224316   5.754   3.967   5.858 -0.1416 -0.5195 -0.6508
  942TIP3    H124317   5.825   3.907   5.836 -1.3973 -2.3485  0.0173
  942TIP3    H224318   5.713   3.988   5.774 -0.0145 -1.0245 -0.8403
  943TIP3   OH224319   4.826   4.404  12.641 -0.3158 -0.3238 -0.2896
  943TIP3    H124320   4.769   4.467  12.596  1.0940  1.9335  0.9104
  943TIP3    H224321   4.775   4.377  12.717 -0.9838 -0.8012 -0.8839
  944TIP3   OH224322   2.130   3.929   0.771  0.2650  0.2657 -0.4870
  944TIP3    H124323   2.146   4.022   0.753 -0.8542  0.5729  0.0746
  944TIP3    H224324   2.212   3.886   0.746  2.1745  1.7988  2.5306
  945TIP3   OH224325   0.816   1.521  14.465  1.0123  0.1854  0.1971
  945TIP3    H124326   0.894   1.474  14.436  1.1814 -0.0604  1.0426
  945TIP3    H224327   0.840   1.560  14.549 -0.2910 -1.3220  1.3443
  946TIP3   OH224328   3.538   5.463  12.230 -0.4148 -0.2078  0.1335
  946TIP3    H124329   3.611   5.426  12.280  0.2933  0.1936 -0.5810
  946TIP3    H224330   3.525   5.550  12.269  1.2513  0.8059 -1.3946
  947TIP3   OH224331   1.097   3.430   6.026  0.1125  0.1457 -0.4317
  947TIP3    H124332   1.139   3.516   6.017  0.1490 -0.0122 -1.9552
  947TIP3    H224333   1.005   3.447   6.003 -0.1611  0.0127  0.5233
  948TIP3   OH224334   4.894   2.876  16.085  0.5553  0.0174 -0.2773
  948TIP3    H124335   4.864   2.788  16.108 -0.4437 -0.0222 -1.6301
  948TIP3    H224336   4.987   2.875  16.107  0.4554 -1.2227  0.1932
  949TIP3   OH224337   1.165   3.666   2.554 -0.1315  0.3620 -0.1306
  949TIP3    H124338   1.162   3.633   2.644  2.5182  2.4220  0.8343
  949TIP3    H224339   1.088   3.722   2.546 -0.0977  0.5889  1.0428
  950TIP3   OH224340   0.020   4.618   5.373 -0.0477  0.4466 -0.0372
  950TIP3    H124341  -0.070   4.647   5.354 -0.5065 -0.7917  0.1578
  950TIP3    H224342   0.043   4.562   5.299 -0.2365 -0.9210  0.8968
  951TIP3   OH224343   6.238   5.956  12.495 -0.0677 -0.6558 -0.3733
  951TIP3    H124344   6.221   5.865  12.472  0.1739 -0.5350 -1.0722
  951TIP3    H224345   6.189   5.970  12.576 -0.8534 -1.1480 -0.7471
  952TIP3   OH224346   3.020   3.897  13.994 -0.0058  0.4938 -0.4098
  952TIP3    H124347   3.005   3.837  14.067 -1.3171 -1.5487 -2.2796
  952TIP3    H224348   3.045   3.841  13.921  1.8058  2.5343 -1.4612
  953TIP3   OH224349   2.815   0.395   0.941 -0.2621 -0.0421  0.3903
  953TIP3    H124350   2.853   0.313   0.973 -1.9494 -1.6419 -1.3959
  953TIP3    H224351   2.839   0.398   0.848 -1.9362  0.3866 -0.0729
  954TIP3   OH224352   1.514   4.074   6.359  0.2110  0.9850  0.0003
  954TIP3    H124353   1.540   3.992   6.317 -1.8257  0.4322 -0.2954
  954TIP3    H224354   1.549   4.143   6.302 -0.2745  0.2683 -1.2043
  955TIP3   OH224355   3.710   5.682  13.407 -0.1523  0.0350 -0.0525
  955TIP3    H124356   3.655   5.621  13.358  2.5223 -1.8189 -0.9346
  955TIP3    H224357   3.687   5.768  13.372 -1.4613 -0.7928 -1.3613
  956TIP3   OH224358   6.464   1.529   2.631  0.4616 -0.2390  0.0608
  956TIP3    H124359   6.502   1.515   2.545  0.9692  2.0018 -0.1355
  956TIP3    H224360   6.483   1.621   2.651  0.3816 -0.7090  2.5784
  957TIP3   OH224361   0.097   2.827  14.871 -0.1338  0.5935 -0.1144
  957TIP3    H124362   0.045   2.906  14.883  1.8141  1.7431  1.2381
  957TIP3    H224363   0.130   2.805  14.958 -0.8577 -1.9483 -0.3769
  958TIP3   OH224364   0.388   0.755  16.971  0.0475  0.7597 -0.0893
  958TIP3    H124365   0.457   0.726  17.030 -0.7873  0.9073  1.0034
  958TIP3    H224366   0.412   0.719  16.886  1.7839  1.3402  0.1095
  959TIP3   OH224367   2.085   0.244   4.497  0.2234  0.1222 -0.1621
  959TIP3    H124368   2.007   0.203   4.459 -1.5662  0.3905  2.8778
  959TIP3    H224369   2.134   0.172   4.535 -0.8602  0.3046  1.6942
  960TIP3   OH224370   3.452   2.703  16.065  0.5139 -0.0920 -0.4150
  960TIP3    H124371   3.360   2.730  16.071  0.3481 -0.8665  0.7059
  960TIP3    H224372   3.493   2.738  16.144  0.7907 -1.1769 -0.0592
  961TIP3   OH224373   0.641   0.948   5.575 -0.3146 -0.1232 -0.4481
  961TIP3    H124374   0.681   1.015   5.630 -0.8780 -0.3599  0.2819
  961TIP3    H224375   0.695   0.870   5.589 -1.1778 -0.5462  0.8266
  962TIP3   OH224376   2.799   1.032  14.520 -0.8869  0.1764 -0.6145
  962TIP3    H124377   2.793   1.092  14.445  0.1028  3.4291  1.7150
  962TIP3    H224378   2.887   1.044  14.553 -1.3736 -0.9921  1.2414
  963TIP3   OH224379   0.814   5.329  12.825 -0.0406 -0.6476  0.2188
  963TIP3    H124380   0.844   5.367  12.742  1.9259 -1.7288  0.3936
  963TIP3    H224381   0.721   5.312  12.810 -0.2501  1.2513 -0.9580
  964TIP3   OH224382   0.976   4.946   3.506 -0.0212  0.1421  0.1413
  964TIP3    H124383   0.905   4.942   3.443  0.0553 -1.2131  0.1150
  964TIP3    H224384   1.038   4.878   3.478  0.3321 -0.0363  1.2731
  965TIP3   OH224385   6.041   6.209   5.240 -0.3075  0.0335 -0.2738
  965TIP3    H124386   5.948   6.191   5.255 -0.2414  1.3518  2.4419
  965TIP3    H224387   6.043   6.300   5.209  0.0876  0.3129  0.5406
  966TIP3   OH224388   1.232   1.350   1.229  0.1201  0.5180  0.6994
  966TIP3    H124389   1.252   1.341   1.136 -3.2815  0.0592 -0.1326
  966TIP3    H224390   1.173   1.425   1.234  0.9243  1.0880  2.6637
  967TIP3   OH224391   0.061   0.062  12.701 -0.3219 -0.4693 -0.0949
  967TIP3    H124392   0.137   0.058  12.644 -0.1989 -2.7538  0.1469
  967TIP3    H224393   0.044   0.156  12.712  2.8400  0.1534  0.3728
  968TIP3   OH224394   6.008   4.534   4.744 -0.4436  0.0424 -0.8141
  968TIP3    H124395   6.065   4.466   4.779 -2.3606 -1.6913 -0.8805
  968TIP3    H224396   6.060   4.614   4.748  2.3235 -1.5757 -1.7811
  969TIP3   OH224397   3.228   4.249  17.230 -0.0605 -0.3312  0.1361
  969TIP3    H124398   3.309   4.204  17.205 -0.3310 -1.3747  1.0812
  969TIP3    H224399   3.187   4.270  17.146  1.3748  0.6263 -0.3794
  970TIP3   OH224400   5.517   5.776  17.067  0.1844 -0.5094  0.3867
  970TIP3    H124401   5.456   5.723  17.017 -0.4015  0.8095 -0.3471
  970TIP3    H224402   5.537   5.850  17.010  0.3769  0.4561  1.6652
  971TIP3   OH224403   2.689   3.580   2.072  0.9252 -0.4343  0.5097
  971TIP3    H124404   2.653   3.509   2.124  0.7948  0.1639  1.2521
  971TIP3    H224405   2.618   3.607   2.014  0.0592  0.8595  2.0861
  972TIP3   OH224406   4.514   3.385   3.488 -0.1322 -0.0838 -0.6045
  972TIP3    H124407   4.434   3.429   3.459 -0.8669 -0.5989  0.5865
  972TIP3    H224408   4.499   3.367   3.581  0.6207 -1.7858 -0.7818
  973TIP3   OH224409   4.503   0.809  11.255  0.3108 -0.3589  0.0598
  973TIP3    H124410   4.577   0.829  11.311  0.3180 -0.0246 -0.0637
  973TIP3    H224411   4.537   0.747  11.190  0.1737 -1.1429  0.7229
  974TIP3   OH224412   3.059   4.388   5.375  0.0094 -0.3377  0.6836
  974TIP3    H124413   3.089   4.405   5.286  2.2259 -1.8745  1.0749
  974TIP3    H224414   3.091   4.300   5.395  0.0712  0.1898  3.1880
  975TIP3   OH224415   6.752   6.025   3.068  0.6088 -0.0389  0.3509
  975TIP3    H124416   6.679   5.989   3.119 -1.0719 -1.3969 -2.6949
  975TIP3    H224417   6.724   6.114   3.046  0.3983 -0.1468  0.1739
  976TIP3   OH224418   1.878   5.429  14.168 -0.4706  0.8294  0.2250
  976TIP3    H124419   1.884   5.460  14.258  0.2108  0.8439  0.1847
  976TIP3    H224420   1.787   5.443  14.144 -0.8976 -0.1152  1.2363
  977TIP3   OH224421   0.454   4.155   2.663 -0.0956 -0.1209 -0.6992
  977TIP3    H124422   0.525   4.098   2.634  1.3249  0.4147  1.4655
  977TIP3    H224423   0.381   4.096   2.681  0.9340 -1.1317  0.2732
  978TIP3   OH224424   0.879   1.758  11.597 -0.2448 -0.7350 -0.0350
  978TIP3    H124425   0.798   1.713  11.573 -1.4463 -0.4169  2.9623
  978TIP3    H224426   0.855   1.850  11.607  0.3328 -0.7015  1.3199
  979TIP3   OH224427   3.022   0.001   4.730 -0.1250  0.1341  0.2756
  979TIP3    H124428   3.086   0.059   4.771 -0.0349  0.0299  0.2821
  979TIP3    H224429   3.035  -0.083   4.774 -0.7889  0.3060  0.8279
  980TIP3   OH224430   1.974   0.999   4.785  0.0780 -0.1174 -0.2812
  980TIP3    H124431   2.032   0.979   4.858  0.1753  0.0582 -0.3094
  980TIP3    H224432   1.988   0.927   4.722  0.6844  0.2167 -0.5358
  981TIP3   OH224433   2.045   2.639  10.783  0.0943  0.1062  0.2527
  981TIP3    H124434   1.987   2.641  10.707 -0.5538 -0.9472  0.6916
  981TIP3    H224435   2.002   2.579  10.844  0.8051  0.6213  1.2906
  982TIP3   OH224436   0.079   2.556  13.216 -0.0569  0.2989  0.1004
  982TIP3    H124437   0.029   2.511  13.284  0.8671 -0.2020  0.4684
  982TIP3    H224438   0.030   2.637  13.199 -0.3810  0.3491  1.2415
  983TIP3   OH224439   5.773   6.445   3.067  0.7814 -0.0207 -0.2082
  983TIP3    H124440   5.815   6.512   3.121  1.3260 -0.5569  0.0481
  983TIP3    H224441   5.723   6.392   3.129 -0.3122  0.6240 -0.5152
  984TIP3   OH224442   2.797   1.925   3.621 -0.1237 -0.0370 -0.0957
  984TIP3    H124443   2.849   1.868   3.565 -1.6205  0.0079 -1.6130
  984TIP3    H224444   2.844   2.009   3.620  1.2569 -0.7484  0.9105
  985TIP3   OH224445   0.403   5.228  13.790 -0.5229  0.0772  0.2489
  985TIP3    H124446   0.368   5.142  13.769 -0.8961  0.5610 -1.1811
  985TIP3    H224447   0.353   5.255  13.868 -1.2129 -0.5009  0.0213
  986TIP3   OH224448   5.550   6.150   5.229 -0.2447  0.8162  0.4206
  986TIP3    H124449   5.536   6.238   5.266 -0.0323  0.5704  1.1115
  986TIP3    H224450   5.558   6.164   5.135  0.0981  1.5769  0.5541
  987TIP3   OH224451   3.251   3.051  12.846  0.6132  0.5011  0.3560
  987TIP3    H124452   3.328   2.994  12.848  1.0336  1.0676  1.0186
  987TIP3    H224453   3.249   3.091  12.933  0.3003  1.4401 -0.0698
  988TIP3   OH224454   1.516   4.300  14.726 -0.0733 -0.0320 -0.4184
  988TIP3    H124455   1.558   4.383  14.704  0.1169 -0.0635 -0.1813
  988TIP3    H224456   1.423   4.319  14.722 -0.0293  0.2476 -0.1732
  989TIP3   OH224457   6.589   3.013   6.493  0.0929  0.5812 -0.2167
  989TIP3    H124458   6.679   3.047   6.486  0.0631  0.8011  0.4447
  989TIP3    H224459   6.576   2.966   6.411  0.6222  1.0120 -0.5615
  990TIP3   OH224460   0.936   1.531  16.431  0.4536 -0.1643  0.2752
  990TIP3    H124461   1.019   1.527  16.478  0.7955  1.1969 -0.1761
  990TIP3    H224462   0.936   1.617  16.389 -0.2927 -0.9430 -1.4102
  991TIP3   OH224463   6.096   5.800  14.853 -0.1130 -0.0822 -0.5362
  991TIP3    H124464   6.091   5.817  14.947  1.6646 -1.8123 -0.0604
  991TIP3    H224465   6.074   5.884  14.812 -0.3358  0.8697  1.4154
  992TIP3   OH224466   5.688   5.967   3.210 -0.0776 -0.1165  0.6427
  992TIP3    H124467   5.774   5.928   3.200  0.6993  1.7248 -0.3782
  992TIP3    H224468   5.627   5.900   3.177  1.2742 -0.1023 -2.1956
  993TIP3   OH224469   5.693   5.360  12.434  0.4035 -0.1417  0.4669
  993TIP3    H124470   5.611   5.365  12.484  0.7845  0.4138  1.0489
  993TIP3    H224471   5.760   5.345  12.500  0.7337 -0.9670 -0.0490
  994TIP3   OH224472   4.982   3.190  12.576  0.0269  0.3836 -0.3686
  994TIP3    H124473   4.896   3.182  12.617  0.9788 -0.7252  1.5443
  994TIP3    H224474   5.012   3.278  12.600  0.0155  0.2444  0.1514
  995TIP3   OH224475   2.618   1.286   5.379 -0.0038  0.0805  0.7032
  995TIP3    H124476   2.710   1.297   5.399  0.3645 -0.7307 -0.4322
  995TIP3    H224477   2.615   1.212   5.319 -1.3268  0.4861  0.2252
  996TIP3   OH224478   5.195   0.323   0.312  0.3882 -0.2274 -0.3007
  996TIP3    H124479   5.203   0.284   0.225  0.4716  1.9225 -1.3207
  996TIP3    H224480   5.222   0.414   0.300 -0.5704  0.3927  1.7705
  997TIP3   OH224481   3.892   1.961  12.448  0.0621 -0.0506  0.4647
  997TIP3    H124482   3.903   1.897  12.378 -0.7579  0.3948 -0.0818
  997TIP3    H224483   3.970   2.017  12.441 -0.1005  0.0963 -0.2068
  998TIP3   OH224484   0.208   2.466  12.997  0.2185 -0.3155  0.4918
  998TIP3    H124485   0.166   2.527  13.057  0.5365  0.3104  0.0880
  998TIP3    H224486   0.182   2.380  13.028 -2.1060  0.0484 -0.2472
  999TIP3   OH224487   4.727   0.044   1.352 -0.1767 -0.1374  0.4245
  999TIP3    H124488   4.774   0.096   1.285  0.9555 -1.4040  0.1834
  999TIP3    H224489   4.792   0.031   1.421 -0.6588 -0.6763  0.7784
 1000TIP3   OH224490   0.216   4.454   6.357 -0.4654 -0.4561  0.8904
 1000TIP3    H124491   0.152   4.467   6.427  1.4691  2.6852  2.2890
 1000TIP3    H224492   0.205   4.529   6.300 -0.8421 -2.1018 -1.3498
 1001TIP3   OH224493   5.660   6.537   3.406 -0.2199  0.2246 -0.0657
 1001TIP3    H124494   5.609   6.615   3.385 -1.0924 -0.7960 -1.9410
 1001TIP3    H224495   5.622   6.504   3.487 -1.7113  0.2208 -0.7327
 1002TIP3   OH224496   2.513   4.735   3.315 -0.1499  0.4275  0.5390
 1002TIP3    H124497   2.560   4.654   3.335 -1.0926 -1.0221 -2.4914
 1002TIP3    H224498   2.582   4.797   3.290  0.4286 -0.3984  0.0444
 1003TIP3   OH224499   4.092   5.116  12.175 -0.8519 -0.2877 -0.2219
 1003TIP3    H124500   4.017   5.122  12.234 -0.9038 -0.8498 -0.2198
 1003TIP3    H224501   4.059   5.149  12.091 -1.5030 -1.7053 -0.5640
 1004TIP3   OH224502   5.006   6.386  13.727 -0.2715  0.0774  0.1891
 1004TIP3    H124503   5.059   6.329  13.672  0.7736  1.0955  0.1083
 1004TIP3    H224504   4.930   6.409  13.673  0.5086  0.6887 -0.6612
 1005TIP3   OH224505   1.193   0.597   0.916 -0.0335  0.0893  0.1825
 1005TIP3    H124506   1.171   0.685   0.886 -1.5331 -0.4284 -0.3183
 1005TIP3    H224507   1.194   0.605   1.012  0.8983  0.8659  0.1301
 1006TIP3   OH224508   3.446   6.044   3.536  0.0563  0.1858 -0.3582
 1006TIP3    H124509   3.472   6.071   3.448  1.2561 -1.2970 -0.5065
 1006TIP3    H224510   3.353   6.024   3.529  0.5831 -2.2084 -1.9775
 1007TIP3   OH224511   3.392   0.373   2.966 -0.2587  0.0094  0.1180
 1007TIP3    H124512   3.301   0.350   2.984 -0.4226 -0.2885 -1.0298
 1007TIP3    H224513   3.387   0.452   2.912  0.0236 -1.3034 -1.9779
 1008TIP3   OH224514   1.683   2.831   0.392  0.2971 -0.6528 -0.1549
 1008TIP3    H124515   1.596   2.867   0.409  0.0866 -1.4309  0.4958
 1008TIP3    H224516   1.669   2.737   0.383  1.3867 -1.1771  2.6290
 1009TIP3   OH224517   1.811   2.133   1.648  0.0064 -0.1428  0.1449
 1009TIP3    H124518   1.737   2.093   1.603 -1.4243  0.4885  1.8046
 1009TIP3    H224519   1.887   2.111   1.595 -1.3489 -0.9383 -1.5461
 1010TIP3   OH224520   6.777   2.097  12.312 -0.3864  0.5554 -0.4297
 1010TIP3    H124521   6.741   2.009  12.315 -1.5918  1.0412 -0.0851
 1010TIP3    H224522   6.751   2.136  12.396 -0.7968  1.5916 -1.0291
 1011TIP3   OH224523   0.935   4.737   1.533 -0.5423  0.1201  0.1885
 1011TIP3    H124524   0.862   4.790   1.500 -0.4174  0.2570  0.1331
 1011TIP3    H224525   0.968   4.692   1.455  0.2813  1.0723 -0.0299
 1012TIP3   OH224526   6.262   4.115   3.228  0.6057  0.0541 -0.1669
 1012TIP3    H124527   6.352   4.091   3.204  0.6250 -1.2655  1.0197
 1012TIP3    H224528   6.211   4.099   3.150  1.5589  2.0831 -1.2844
 1013TIP3   OH224529   1.663   3.101   4.286 -0.3775 -0.3848  0.1280
 1013TIP3    H124530   1.687   3.148   4.366 -0.4919  0.1611 -0.1556
 1013TIP3    H224531   1.731   3.124   4.223 -0.5801 -0.3894 -0.0938
 1014TIP3   OH224532   0.031   5.890   1.678  0.0320 -0.0982 -0.0964
 1014TIP3    H124533  -0.031   5.933   1.738  1.8164 -0.1213  1.8703
 1014TIP3    H224534   0.006   5.922   1.592 -2.9782 -0.4339  0.5232
 1015TIP3   OH224535   4.010   2.972   3.653 -0.9251  0.1511 -0.2340
 1015TIP3    H124536   3.925   2.935   3.678 -1.8493  0.1952 -2.9606
 1015TIP3    H224537   4.054   2.902   3.606 -0.1863  0.6718 -0.3349
 1016TIP3   OH224538   5.063   2.226  12.702 -0.2400 -0.2410  0.1151
 1016TIP3    H124539   5.116   2.304  12.722  0.0043  0.6765 -3.4364
 1016TIP3    H224540   5.124   2.153  12.710  0.0046  0.0866  1.6499
 1017TIP3   OH224541   4.209   3.894  13.289 -0.7943  0.5788  0.0913
 1017TIP3    H124542   4.243   3.872  13.202 -0.1734  2.2273 -0.1325
 1017TIP3    H224543   4.243   3.826  13.347  0.3468  0.4848 -0.6660
 1018TIP3   OH224544   2.698   3.904  11.567  0.1656 -0.6690 -0.0708
 1018TIP3    H124545   2.672   3.995  11.553 -0.3161 -0.2821  2.6625
 1018TIP3    H224546   2.621   3.862  11.605  0.4442 -2.2096 -1.0958
 1019TIP3   OH224547   0.276   4.261   6.151 -0.0462  0.4114 -0.1564
 1019TIP3    H124548   0.240   4.177   6.179 -0.6046  0.4815 -0.6430
 1019TIP3    H224549   0.265   4.319   6.226 -1.1677  0.4964 -0.3770
 1020TIP3   OH224550   6.497   6.675  16.312  0.7198 -0.9221 -0.2927
 1020TIP3    H124551   6.528   6.641  16.228 -0.4761 -1.0816 -0.6951
 1020TIP3    H224552   6.401   6.665  16.307  0.5899 -0.3055  0.8159
 1021TIP3   OH224553   0.119   3.101   2.408 -0.1743 -0.0893  0.0552
 1021TIP3    H124554   0.182   3.149   2.354 -0.3095 -0.0966 -0.1107
 1021TIP3    H224555   0.070   3.170   2.453 -2.0292  0.0808 -2.0204
 1022TIP3   OH224556   1.661   1.322  11.899 -0.3418 -0.2750 -0.3419
 1022TIP3    H124557   1.576   1.340  11.938  1.2072  1.1338  2.7561
 1022TIP3    H224558   1.659   1.368  11.815 -2.6286 -0.4046 -0.4192
 1023TIP3   OH224559   1.562   0.113  11.796 -0.2540 -1.0616 -0.5075
 1023TIP3    H124560   1.555   0.207  11.782 -1.8306 -1.0641  0.1103
 1023TIP3    H224561   1.654   0.093  11.778  0.3048  0.7207  0.1409
 1024TIP3   OH224562   3.774   2.146  11.672  0.1597 -0.3310 -0.4958
 1024TIP3    H124563   3.788   2.096  11.591  2.0617  1.8808 -1.6629
 1024TIP3    H224564   3.688   2.186  11.661  0.6092  0.3589 -1.7090
 1025TIP3   OH224565   6.410   2.002  12.978 -0.0129 -0.1768  0.1671
 1025TIP3    H124566   6.485   2.059  12.998 -0.7514  0.6906  0.5190
 1025TIP3    H224567   6.360   1.999  13.060 -1.6003  1.1563 -0.6983
 1026TIP3   OH224568   4.324   6.436   2.086  0.1362 -0.3377 -0.1258
 1026TIP3    H124569   4.387   6.497   2.123 -1.4897  2.2422 -1.3139
 1026TIP3    H224570   4.273   6.405   2.161  0.5910  0.2517  0.4357
 1027TIP3   OH224571   2.404   5.362   0.393 -0.0956  0.3305  0.6044
 1027TIP3    H124572   2.499   5.364   0.406 -0.1335 -0.4574  1.1265
 1027TIP3    H224573   2.368   5.384   0.479 -0.3924  1.1019  0.2859
 1028TIP3   OH224574   6.758   1.621  16.377  0.0416 -0.1892 -0.4106
 1028TIP3    H124575   6.796   1.579  16.300 -2.2310 -1.0581 -1.1657
 1028TIP3    H224576   6.699   1.687  16.341 -1.9582 -1.4010  0.4396
 1029TIP3   OH224577   2.537   0.104  16.003  0.1660  0.3676 -0.0752
 1029TIP3    H124578   2.547   0.086  16.097  0.5043  0.3048 -0.1203
 1029TIP3    H224579   2.447   0.136  15.994  0.4461  1.3277  0.4227
 1030TIP3   OH224580   6.591   1.821  13.602  0.5406 -0.1750 -0.0111
 1030TIP3    H124581   6.549   1.808  13.517 -0.7627 -2.3811  0.9040
 1030TIP3    H224582   6.543   1.765  13.662  1.1390  1.6460  2.3265
 1031TIP3   OH224583   5.808   4.439  16.636 -0.2100  0.6250 -0.0474
 1031TIP3    H124584   5.808   4.489  16.717  0.8673 -0.2087  0.4977
 1031TIP3    H224585   5.741   4.480  16.582 -0.9096  1.2274  1.2408
 1032TIP3   OH224586   4.440   1.764  10.472  0.4019 -0.0508 -0.4132
 1032TIP3    H124587   4.393   1.846  10.460 -0.3367 -0.5553 -1.0688
 1032TIP3    H224588   4.400   1.704  10.409  0.8117 -0.9638  0.1743
 1033TIP3   OH224589   5.454   0.370   5.429  0.1641  0.4393  0.0952
 1033TIP3    H124590   5.455   0.418   5.346  0.0908 -1.3998 -1.0259
 1033TIP3    H224591   5.526   0.406   5.479  0.1946  1.6038 -0.7622
 1034TIP3   OH224592   4.223   2.188   1.341 -0.5748 -0.4911  0.7978
 1034TIP3    H124593   4.223   2.236   1.424 -0.9441 -0.5253  0.8171
 1034TIP3    H224594   4.255   2.101   1.364  0.0421 -0.2791  0.7730
 1035TIP3   OH224595   1.992   0.021   0.087  0.0673 -0.1433 -0.1170
 1035TIP3    H124596   1.943  -0.061   0.080  0.7591 -0.5456 -0.3385
 1035TIP3    H224597   2.078   0.001   0.048  0.2343  0.6885 -0.1881
 1036TIP3   OH224598   0.461   3.556   3.898 -1.1711  0.5913  0.1919
 1036TIP3    H124599   0.421   3.629   3.945  1.9007  2.6271 -0.0891
 1036TIP3    H224600   0.555   3.565   3.914 -0.1945 -0.4356 -3.7870
 1037TIP3   OH224601   5.843   2.355  17.042  0.3896  0.4425 -0.0404
 1037TIP3    H124602   5.895   2.345  16.963 -1.0505 -1.4564 -0.8280
 1037TIP3    H224603   5.754   2.331  17.015 -0.6690  2.2858  1.5522
 1038TIP3   OH224604   3.864   2.487   2.054 -0.7495 -0.4597  0.0744
 1038TIP3    H124605   3.844   2.455   2.142  1.5297 -1.1847  0.4154
 1038TIP3    H224606   3.927   2.558   2.068  0.0704 -0.9455 -0.9564
 1039TIP3   OH224607   2.444   6.239   3.975  0.1838 -0.2697 -0.5572
 1039TIP3    H124608   2.471   6.228   3.884 -0.4425 -1.2793 -0.6420
 1039TIP3    H224609   2.429   6.150   4.006  2.9031 -0.1834  1.3436
 1040TIP3   OH224610   1.789   3.439   3.569 -0.1490  0.3989 -0.0102
 1040TIP3    H124611   1.872   3.393   3.582 -0.0441  0.6903  0.4024
 1040TIP3    H224612   1.804   3.526   3.606  0.4110  1.6073 -2.8445
 1041TIP3   OH224613   2.143   0.498   1.836 -0.3529  0.5078  0.3101
 1041TIP3    H124614   2.229   0.525   1.869 -0.8166 -0.3846  2.3996
 1041TIP3    H224615   2.081   0.549   1.887 -1.1707  3.0380 -2.8867
 1042TIP3   OH224616   6.247   3.463  16.324 -0.0241  0.2686 -0.1081
 1042TIP3    H124617   6.169   3.451  16.379  0.2380 -0.2499  0.1622
 1042TIP3    H224618   6.320   3.447  16.384  0.2659 -0.3133 -0.6124
 1043TIP3   OH224619   2.809   1.779  12.054 -0.1955  0.5645  0.2155
 1043TIP3    H124620   2.856   1.854  12.092  0.1502 -0.1385  1.2093
 1043TIP3    H224621   2.866   1.751  11.981 -0.3660  1.2967 -0.2192
 1044TIP3   OH224622   0.460   6.317  10.816 -0.6207  0.1226  0.0593
 1044TIP3    H124623   0.478   6.394  10.870  2.0626  0.9347 -1.7937
 1044TIP3    H224624   0.400   6.349  10.748 -0.9203  0.1094  0.3172
 1045TIP3   OH224625   4.443   6.426  12.785  0.1389 -0.3155  0.6186
 1045TIP3    H124626   4.368   6.425  12.846  0.5626  0.3700  1.1712
 1045TIP3    H224627   4.506   6.365  12.824  1.4274  1.9108  2.2418
 1046TIP3   OH224628   0.536   1.949   0.907 -0.8218  0.0934  0.0955
 1046TIP3    H124629   0.618   1.909   0.938 -0.0915  1.4352 -0.0450
 1046TIP3    H224630   0.479   1.874   0.890 -0.4148 -0.8076  2.3224
 1047TIP3   OH224631   0.439   2.074  13.678 -0.3738  0.0059  0.0857
 1047TIP3    H124632   0.402   2.153  13.637  0.5928  0.0089 -0.8297
 1047TIP3    H224633   0.364   2.030  13.718 -1.0440  1.0059 -0.0382
 1048TIP3   OH224634   1.962   2.743  13.962 -0.0076 -0.4101 -0.2405
 1048TIP3    H124635   2.042   2.695  13.937  0.2124 -0.3922  0.4155
 1048TIP3    H224636   1.952   2.809  13.893  1.0930  0.2139  0.1757
 1049TIP3   OH224637   0.000   0.859   2.600  0.1217  0.5361 -0.4261
 1049TIP3    H124638  -0.015   0.778   2.649  2.9887  0.6607  0.8690
 1049TIP3    H224639  -0.025   0.929   2.660 -0.3672  0.6392 -0.7482
 1050TIP3   OH224640   6.491   3.111  15.942  0.3074  0.1247 -0.0405
 1050TIP3    H124641   6.450   3.192  15.971  2.0234  1.0122  0.0286
 1050TIP3    H224642   6.544   3.082  16.016  2.0707  0.6001 -1.0525
 1051TIP3   OH224643   3.414   4.890   2.282  0.5457  0.2717  0.4334
 1051TIP3    H124644   3.506   4.916   2.278  0.4586  0.5889  0.4658
 1051TIP3    H224645   3.414   4.811   2.335  0.8329  0.1190  0.2120
 1052TIP3   OH224646   6.397   0.482  14.719 -0.2902  0.6711  0.0441
 1052TIP3    H124647   6.309   0.517  14.703 -0.2616  0.0319 -1.7529
 1052TIP3    H224648   6.382   0.390  14.742 -0.1961  1.1081  2.0109
 1053TIP3   OH224649   4.111   0.036  11.665  0.6898 -0.1388 -0.1914
 1053TIP3    H124650   4.088   0.001  11.579 -2.5207  1.3305 -0.0907
 1053TIP3    H224651   4.147   0.123  11.647 -0.5059  0.3987 -0.0821
 1054TIP3   OH224652   4.601   1.996  11.447  0.1230 -0.3963 -0.3591
 1054TIP3    H124653   4.631   2.074  11.400 -3.1551  2.0153  1.1035
 1054TIP3    H224654   4.620   2.014  11.539 -2.1037 -0.4352  0.1838
 1055TIP3   OH224655   4.024   2.391   6.359 -0.3285 -0.2381  0.4855
 1055TIP3    H124656   4.061   2.470   6.398 -0.4609 -0.4857  1.1302
 1055TIP3    H224657   3.947   2.371   6.412 -0.6271 -0.4800 -0.0221
 1056TIP3   OH224658   6.528   5.109   3.175 -0.1999  0.0386 -0.2962
 1056TIP3    H124659   6.553   5.020   3.200  0.1677  0.3705  0.5837
 1056TIP3    H224660   6.481   5.099   3.092 -3.0395 -1.3281  1.3422
 1057TIP3   OH224661   5.518   3.224  13.523 -0.0913  0.9222  0.3251
 1057TIP3    H124662   5.429   3.199  13.546 -0.2241  0.2428 -0.8507
 1057TIP3    H224663   5.518   3.320  13.527 -0.8834  0.9263  0.3127
 1058TIP3   OH224664   5.898   2.191  15.571  0.1407  0.1523 -0.4545
 1058TIP3    H124665   5.933   2.223  15.655 -1.0324  2.0219 -0.6191
 1058TIP3    H224666   5.835   2.123  15.596  0.4413  0.0729  0.1214
 1059TIP3   OH224667   0.866   6.062   1.903  0.1685 -0.6477  0.0421
 1059TIP3    H124668   0.901   5.980   1.869 -1.8653 -0.7831 -1.9541
 1059TIP3    H224669   0.772   6.049   1.904 -0.3538  2.2143 -1.9985
 1060TIP3   OH224670   0.631   3.652   3.257  0.2699 -0.0669 -0.2692
 1060TIP3    H124671   0.688   3.687   3.326  2.1148 -1.6386 -0.9154
 1060TIP3    H224672   0.690   3.631   3.185 -1.4686  0.4271 -1.9161
 1061TIP3   OH224673   1.002   1.944  16.413  0.3600 -0.6171 -0.1133
 1061TIP3    H124674   1.020   2.025  16.366  0.2529  0.6417  1.9246
 1061TIP3    H224675   1.074   1.935  16.476 -0.8674 -0.7987  1.3180
 1062TIP3   OH224676   0.028   0.713   2.860  0.2062  0.2501  0.0877
 1062TIP3    H124677   0.038   0.624   2.894  0.9958  0.7863  1.2925
 1062TIP3    H224678  -0.046   0.749   2.907 -2.1465 -0.7215 -2.5529
 1063TIP3   OH224679   6.665   1.594  11.943  0.0257  0.0974  0.4133
 1063TIP3    H124680   6.576   1.573  11.916  0.0046 -0.5010  0.9296
 1063TIP3    H224681   6.698   1.652  11.875  0.1308 -1.6952 -1.1473
 1064TIP3   OH224682   0.331   6.738   4.196 -0.0414  0.3771  0.3187
 1064TIP3    H124683   0.399   6.784   4.245  1.1643 -0.7233 -0.2368
 1064TIP3    H224684   0.293   6.676   4.259 -0.1940  0.6594  0.5041
 1065TIP3   OH224685   3.190   6.607   4.034  0.1836  0.2803  0.1340
 1065TIP3    H124686   3.214   6.529   4.084 -3.3364 -1.1408 -0.1697
 1065TIP3    H224687   3.138   6.660   4.095 -0.5034  0.6209 -0.7304
 1066TIP3   OH224688   4.953   5.587   5.461 -0.0910 -0.0654  0.1463
 1066TIP3    H124689   4.915   5.667   5.425  1.3892  0.4611 -0.2953
 1066TIP3    H224690   5.036   5.577   5.416  0.2741 -1.2336  1.0309
 1067TIP3   OH224691   2.795   5.968  13.001  0.0850  0.0319 -0.7273
 1067TIP3    H124692   2.820   5.887  12.956 -1.5251 -0.1348 -1.3732
 1067TIP3    H224693   2.741   5.939  13.074  1.5840  0.3965  0.5680
 1068TIP3   OH224694   1.170   4.784   5.343  0.6802 -0.0458  0.3578
 1068TIP3    H124695   1.174   4.707   5.399  2.2599 -0.3862 -0.1703
 1068TIP3    H224696   1.105   4.762   5.276  0.1164 -0.3491  0.9947
 1069TIP3   OH224697   1.712   2.966  13.596  0.0976 -0.0040 -0.2481
 1069TIP3    H124698   1.664   2.900  13.545 -0.4560 -0.2505  0.5793
 1069TIP3    H224699   1.796   2.974  13.550 -0.4623 -0.0605 -1.3217
 1070TIP3   OH224700   3.601   1.451  16.262  0.2362 -0.0993 -0.6696
 1070TIP3    H124701   3.580   1.538  16.298  0.1793  0.0693 -1.0994
 1070TIP3    H224702   3.557   1.390  16.320  0.9981  0.1125  0.1547
 1071TIP3   OH224703   6.156   4.336   5.857 -0.4102 -0.4564 -0.4693
 1071TIP3    H124704   6.136   4.292   5.774 -0.3805 -1.0665 -0.1531
 1071TIP3    H224705   6.083   4.314   5.914 -1.1480  1.1150 -0.7489
 1072TIP3   OH224706   6.605   3.267   2.811  0.8936 -0.1449 -0.2832
 1072TIP3    H124707   6.586   3.270   2.717  0.5562 -1.1415 -0.2519
 1072TIP3    H224708   6.686   3.318   2.820  0.4738  0.6794 -0.9818
 1073TIP3   OH224709   2.245   6.575  14.263  0.0411  0.4232  0.1345
 1073TIP3    H124710   2.314   6.637  14.241  1.0216 -0.8511 -0.5096
 1073TIP3    H224711   2.192   6.569  14.184  1.2746 -1.2015 -0.6406
 1074TIP3   OH224712   2.184   1.993   3.020 -0.2648 -0.1632  0.2669
 1074TIP3    H124713   2.260   2.005   2.964  0.3371  1.6404  1.3769
 1074TIP3    H224714   2.199   1.910   3.064  1.5048  0.5184  1.0433
 1075TIP3   OH224715   3.262   2.594   3.311 -0.0588 -0.5103 -0.2216
 1075TIP3    H124716   3.340   2.543   3.290 -0.5529 -0.8924 -1.2218
 1075TIP3    H224717   3.288   2.685   3.296  0.5412 -0.5369  0.6310
 1076TIP3   OH224718   2.845   5.541   4.403  0.2331 -0.1372 -0.4310
 1076TIP3    H124719   2.811   5.490   4.476  0.9428 -0.9526 -0.6656
 1076TIP3    H224720   2.936   5.559   4.425  0.7611 -1.2799 -1.5631
 1077TIP3   OH224721   2.016   3.202  15.006  0.3062 -0.5681 -0.0258
 1077TIP3    H124722   2.095   3.165  14.967  1.6907  1.9429  0.1397
 1077TIP3    H224723   2.043   3.229  15.094 -1.0168 -0.5626  0.4004
 1078TIP3   OH224724   6.761   1.834   2.855  0.1204 -0.0933  0.3395
 1078TIP3    H124725   6.854   1.848   2.840  0.4299 -2.7442 -0.8427
 1078TIP3    H224726   6.719   1.914   2.822  1.9053  0.8082  0.1241
 1079TIP3   OH224727   0.551   3.549   1.968 -0.1205 -0.0357  0.4416
 1079TIP3    H124728   0.600   3.475   2.005  0.0814 -1.3239 -2.1636
 1079TIP3    H224729   0.608   3.584   1.900 -1.2030  1.0202  0.0395
 1080TIP3   OH224730   3.247   2.235   3.844  0.1903  0.3228 -0.0695
 1080TIP3    H124731   3.262   2.151   3.886 -2.3106 -1.4968 -2.4538
 1080TIP3    H224732   3.334   2.262   3.814  1.0105 -1.6614  0.3448
 1081TIP3   OH224733   6.303   1.207   1.837 -0.1836  0.8284 -0.2338
 1081TIP3    H124734   6.210   1.188   1.849 -0.9053  2.5639 -2.3541
 1081TIP3    H224735   6.346   1.122   1.845 -2.1538 -0.3043 -0.9638
 1082TIP3   OH224736   0.525   1.745   0.601  0.3467 -0.0719  0.5601
 1082TIP3    H124737   0.492   1.751   0.690  0.1963 -0.7350  0.5545
 1082TIP3    H224738   0.544   1.652   0.588 -0.3557 -0.1057 -0.3462
 1083TIP3   OH224739   2.545   2.827  11.414 -0.5193  0.8329  0.0444
 1083TIP3    H124740   2.581   2.851  11.499  1.0774  0.2415 -0.4315
 1083TIP3    H224741   2.493   2.748  11.431 -2.3892  2.1732  0.8855
 1084TIP3   OH224742   1.430   4.653   5.595 -0.1957  0.4698 -0.5039
 1084TIP3    H124743   1.430   4.597   5.518  0.9772  0.0211 -0.2091
 1084TIP3    H224744   1.417   4.741   5.562  2.0166  0.5211 -1.4505
 1085TIP3   OH224745   0.252   3.903   2.555 -0.2423  0.5422 -0.7386
 1085TIP3    H124746   0.338   3.865   2.576  0.3578  1.5151 -1.3600
 1085TIP3    H224747   0.189   3.839   2.588  0.6803  0.5704  1.1930
 1086TIP3   OH224748   3.017   4.364  11.797 -0.1073  0.4819 -0.1815
 1086TIP3    H124749   3.111   4.357  11.815 -0.4430  0.0645  1.6318
 1086TIP3    H224750   2.990   4.444  11.842 -1.1113 -0.9172  1.8885
 1087TIP3   OH224751   1.649   4.836   2.462  0.2644 -0.0738  0.9001
 1087TIP3    H124752   1.593   4.768   2.498  2.7387 -3.2718 -0.7233
 1087TIP3    H224753   1.595   4.880   2.397 -1.8600  0.6293  3.0281
 1088TIP3   OH224754   2.319   0.224  17.118  0.3665 -0.0456  0.1033
 1088TIP3    H124755   2.239   0.189  17.079 -1.5052  1.7789  2.0537
 1088TIP3    H224756   2.390   0.182  17.068 -1.7355 -2.2416 -1.2818
 1089TIP3   OH224757   0.265   2.143   6.031  0.3109 -0.2333  0.3802
 1089TIP3    H124758   0.195   2.131   6.095  0.0302 -0.9175 -0.0384
 1089TIP3    H224759   0.326   2.072   6.048  2.7039  2.2338  2.9449
 1090TIP3   OH224760   0.417   5.956   2.912  0.1698 -0.0576  0.4791
 1090TIP3    H124761   0.345   5.941   2.973 -2.1718 -2.1517 -2.5402
 1090TIP3    H224762   0.471   5.877   2.919  0.5894  0.2463  0.7007
 1091TIP3   OH224763   6.057   4.839  12.823  0.1159 -0.4060  0.2740
 1091TIP3    H124764   6.049   4.811  12.732 -0.1515  1.2670 -0.2394
 1091TIP3    H224765   6.119   4.776  12.861 -0.6263 -1.8155 -0.7296
 1092TIP3   OH224766   1.565   5.815   0.066 -0.3451 -0.4184 -0.2822
 1092TIP3    H124767   1.482   5.779   0.034 -0.1437  0.6016 -2.0668
 1092TIP3    H224768   1.616   5.832  -0.013  0.6485  1.1678  0.6519
 1093TIP3   OH224769   4.680   5.451  17.050  0.0829  0.1335  0.1857
 1093TIP3    H124770   4.589   5.478  17.038 -0.5127 -0.6352  2.5129
 1093TIP3    H224771   4.683   5.415  17.138  2.5029 -0.5328 -0.0997
 1094TIP3   OH224772   5.619   5.251  11.957 -0.5996  0.4636 -0.2736
 1094TIP3    H124773   5.610   5.265  11.862 -1.1055  0.3373 -0.2460
 1094TIP3    H224774   5.660   5.331  11.989  0.9375 -0.0528 -0.8033
 1095TIP3   OH224775   1.513   6.573  11.251 -0.0251 -0.0761 -0.2525
 1095TIP3    H124776   1.479   6.494  11.293 -0.3246 -0.0095 -0.3653
 1095TIP3    H224777   1.554   6.542  11.171  1.6737 -0.3624  0.6711
 1096TIP3   OH224778   0.306   0.424   2.727  0.6354 -0.7747  0.2114
 1096TIP3    H124779   0.390   0.440   2.682  0.0041  0.1216 -0.6966
 1096TIP3    H224780   0.278   0.511   2.755 -1.1979 -0.6511 -1.7403
 1097TIP3   OH224781   4.534   0.373  12.247 -0.1905  0.2318  0.5087
 1097TIP3    H124782   4.517   0.467  12.255 -2.6217  0.1779 -2.1793
 1097TIP3    H224783   4.476   0.333  12.312  0.1913  0.5134  1.0385
 1098TIP3   OH224784   3.203   6.035   0.065  0.1538 -0.1756 -0.3771
 1098TIP3    H124785   3.151   6.115   0.077  0.4205 -0.0631  0.0650
 1098TIP3    H224786   3.156   5.986  -0.002  0.3317  0.6535 -1.1355
 1099TIP3   OH224787   5.043   4.665  12.961 -0.3447 -0.3406  0.1044
 1099TIP3    H124788   5.043   4.748  13.008  0.5895 -0.4481  0.3164
 1099TIP3    H224789   5.114   4.615  13.001 -0.3258 -0.9056 -0.6121
 1100TIP3   OH224790   4.672   5.039   2.499  0.0555 -0.0354 -0.9970
 1100TIP3    H124791   4.593   5.008   2.542  0.3943 -1.9339 -1.6266
 1100TIP3    H224792   4.646   5.120   2.455 -0.5454  1.4304  1.8185
 1101TIP3   OH224793   1.995   5.948  14.434  0.1818 -0.1071  0.6330
 1101TIP3    H124794   1.980   5.913  14.522  1.4009 -0.1699  0.8329
 1101TIP3    H224795   2.064   6.014  14.446 -0.2615  0.5083 -0.1423
 1102TIP3   OH224796   1.647   0.397   5.292 -0.4333 -0.1273 -0.1229
 1102TIP3    H124797   1.711   0.404   5.363  0.2929 -2.0373 -0.5272
 1102TIP3    H224798   1.583   0.333   5.323 -0.8023 -0.0457 -0.6993
 1103TIP3   OH224799   0.509   4.179   4.619  0.0402 -0.1707 -0.7780
 1103TIP3    H124800   0.484   4.116   4.686  0.9967 -0.6248 -0.8322
 1103TIP3    H224801   0.477   4.263   4.652  0.2531 -0.4283  0.1134
 1104TIP3   OH224802   2.777   4.224  14.824 -0.1378  0.5163  0.0240
 1104TIP3    H124803   2.827   4.223  14.905 -0.0249  1.7674 -0.0091
 1104TIP3    H224804   2.792   4.311  14.787  0.8440 -0.4305 -2.0026
 1105TIP3   OH224805   4.678   2.241   1.412 -0.7460  0.1118 -0.4423
 1105TIP3    H124806   4.671   2.147   1.395 -2.2274  0.2750 -0.9075
 1105TIP3    H224807   4.699   2.280   1.327  0.9288  0.1228 -0.0426
 1106TIP3   OH224808   0.223   3.087  14.996  0.1563 -0.2339 -0.0525
 1106TIP3    H124809   0.182   3.173  14.988  0.4816  0.2968  2.9171
 1106TIP3    H224810   0.154   3.031  15.030  0.9023 -0.1490  1.7161
 1107TIP3   OH224811   5.407   5.146  15.661  0.2186 -0.3213  0.0031
 1107TIP3    H124812   5.382   5.228  15.618  0.1149  0.3190  1.2435
 1107TIP3    H224813   5.337   5.085  15.639  0.3163 -0.0924 -0.9674
 1108TIP3   OH224814   5.185   3.869   5.077 -0.1692  0.3514  0.2542
 1108TIP3    H124815   5.205   3.955   5.113  0.6119 -0.4579  1.8943
 1108TIP3    H224816   5.189   3.881   4.982  0.7880  1.9224  0.4520
 1109TIP3   OH224817   1.960   2.655   4.814  0.0381 -0.0247 -0.6108
 1109TIP3    H124818   1.944   2.614   4.729  2.0884 -1.8923 -0.1868
 1109TIP3    H224819   2.009   2.590   4.864  2.3268  2.4397  0.6334
 1110TIP3   OH224820   5.845   3.608   5.046 -0.3746 -0.2398 -0.1976
 1110TIP3    H124821   5.864   3.679   5.107  1.1714 -0.8365  0.0624
 1110TIP3    H224822   5.779   3.555   5.091  0.0964 -0.1843  0.5705
 1111TIP3   OH224823   6.318   2.826   2.542  0.0253 -0.4240  0.1358
 1111TIP3    H124824   6.270   2.831   2.625  1.0485  0.4356  0.7035
 1111TIP3    H224825   6.287   2.746   2.501 -0.8799 -0.5984  1.1142
 1112TIP3   OH224826   5.448   5.798  15.964  0.0064  0.4518 -0.9036
 1112TIP3    H124827   5.454   5.710  15.927 -1.0055  1.2941 -3.1962
 1112TIP3    H224828   5.465   5.857  15.891  2.6610  2.2445  0.9668
 1113TIP3   OH224829   4.716   0.351   3.543  0.4683  0.1795  0.1994
 1113TIP3    H124830   4.744   0.431   3.587 -0.0184  1.2002 -1.2386
 1113TIP3    H224831   4.622   0.364   3.527  0.0679 -1.2927  1.1562
 1114TIP3   OH224832   1.704   3.123   1.682  0.2837 -0.2296 -0.2456
 1114TIP3    H124833   1.744   3.199   1.725  0.3514 -0.4163  0.0261
 1114TIP3    H224834   1.774   3.057   1.679 -1.1038 -2.5123  4.8393
 1115TIP3   OH224835   6.370   5.115  16.112  0.0608 -0.2384  0.5379
 1115TIP3    H124836   6.439   5.131  16.177  0.1014  0.8004  0.2567
 1115TIP3    H224837   6.297   5.080  16.163  0.8629 -1.5639  0.8082
 1116TIP3   OH224838   5.398   5.867  16.576  0.4841 -0.4401  0.2054
 1116TIP3    H124839   5.403   5.816  16.496  0.1926  0.1728 -0.2157
 1116TIP3    H224840   5.435   5.952  16.553 -0.7106  0.1487  0.3725
 1117TIP3   OH224841   5.453   4.075  12.581  0.7229  0.1627 -0.2053
 1117TIP3    H124842   5.514   4.021  12.630 -0.8848  0.4765  2.3286
 1117TIP3    H224843   5.467   4.163  12.613 -1.1801  0.2017  0.6680
 1118TIP3   OH224844   3.595   3.875   0.893  0.1986 -0.6402  0.0425
 1118TIP3    H124845   3.563   3.925   0.969  0.2298 -1.6798  0.7543
 1118TIP3    H224846   3.681   3.912   0.875  0.3418 -0.6181  0.7372
 1119TIP3   OH224847   5.471   6.525   5.600  0.1966  0.2666  0.1329
 1119TIP3    H124848   5.531   6.552   5.531  0.6494 -2.2274 -0.5628
 1119TIP3    H224849   5.388   6.510   5.555 -0.1806  0.9294  0.5876
 1120TIP3   OH224850   1.854   3.674  13.155 -0.4884 -0.2513 -0.4502
 1120TIP3    H124851   1.848   3.766  13.130 -0.5487 -0.0587  0.2675
 1120TIP3    H224852   1.791   3.630  13.098 -1.1742  0.2939 -0.1255
 1121TIP3   OH224853   5.366   5.311   4.882 -0.5284  0.4581 -0.0253
 1121TIP3    H124854   5.422   5.305   4.960 -0.9908 -2.0761  0.2026
 1121TIP3    H224855   5.315   5.230   4.884 -1.2963  0.8317 -2.4241
 1122TIP3   OH224856   6.017   0.094   0.096 -0.0040 -0.3095 -0.5324
 1122TIP3    H124857   6.052   0.015   0.055  1.9719  0.9031 -1.3233
 1122TIP3    H224858   6.046   0.166   0.039 -0.0109  1.1638  1.2270
 1123TIP3   OH224859   5.045   5.078  11.608 -0.6768  0.1353 -0.2852
 1123TIP3    H124860   4.982   5.101  11.540  0.2843  1.1874 -0.8637
 1123TIP3    H224861   5.130   5.080  11.563 -0.0857  0.2009  0.8018
 1124TIP3   OH224862   3.050   2.367   4.766 -0.8611  0.0830 -0.2101
 1124TIP3    H124863   3.032   2.329   4.851 -1.1057 -0.4038 -0.4770
 1124TIP3    H224864   2.997   2.317   4.705  2.0548 -2.1191 -1.1840
 1125TIP3   OH224865   5.969   1.863   4.706 -0.0103 -0.0283  0.0673
 1125TIP3    H124866   5.966   1.959   4.701  0.5751  0.0230  0.5923
 1125TIP3    H224867   6.062   1.842   4.702 -0.1372 -0.5752 -0.0248
 1126TIP3   OH224868   1.987   0.969  14.819 -0.3091 -0.5055 -0.0889
 1126TIP3    H124869   1.931   1.022  14.762 -0.9891 -0.7532  0.3411
 1126TIP3    H224870   1.927   0.909  14.863  0.2586 -0.5885  0.5893
 1127TIP3   OH224871   5.483   5.520   0.587  0.6225 -0.3426 -0.2073
 1127TIP3    H124872   5.399   5.564   0.601  1.2468  1.0970 -0.7148
 1127TIP3    H224873   5.486   5.504   0.492  0.6696 -0.9389 -0.1099
 1128TIP3   OH224874   5.148   3.739  15.246 -0.4485  0.0980 -0.7061
 1128TIP3    H124875   5.080   3.806  15.245 -0.1829  0.3847 -2.6268
 1128TIP3    H224876   5.227   3.786  15.273 -0.5807  0.2179 -0.5242
 1129TIP3   OH224877   0.293   2.577  12.760 -0.1592  0.1637  0.2529
 1129TIP3    H124878   0.252   2.542  12.839 -0.5979 -0.8214 -0.3855
 1129TIP3    H224879   0.373   2.526  12.749  0.2117  0.7044  0.3761
 1130TIP3   OH224880   1.302   6.156  14.560  0.0700 -0.3911 -0.1049
 1130TIP3    H124881   1.394   6.136  14.580  1.3636  1.7789 -3.1189
 1130TIP3    H224882   1.291   6.128  14.469 -1.8431  0.7187 -0.2579
 1131TIP3   OH224883   6.762   2.461  13.439  0.8065  0.2197  0.1142
 1131TIP3    H124884   6.801   2.472  13.526 -0.7468  1.4234  0.7001
 1131TIP3    H224885   6.668   2.474  13.452  0.6046  1.2007 -1.8656
 1132TIP3   OH224886   6.334   6.587  16.921  0.1660 -0.3805 -0.1794
 1132TIP3    H124887   6.369   6.500  16.904  0.4006 -0.2304 -0.4932
 1132TIP3    H224888   6.353   6.604  17.013  0.5206 -0.4805 -0.2336
 1133TIP3   OH224889   3.342   5.943  12.584  0.5517 -0.0732 -0.8031
 1133TIP3    H124890   3.353   5.913  12.674 -0.2020 -0.9060 -0.9679
 1133TIP3    H224891   3.390   6.025  12.580 -0.1376  0.4472  0.6089
 1134TIP3   OH224892   5.977   3.294  13.175  0.1555  0.2290 -0.6043
 1134TIP3    H124893   5.900   3.240  13.192  0.2201  0.9346  2.4523
 1134TIP3    H224894   5.963   3.373  13.226  1.9008  1.3951 -1.8044
 1135TIP3   OH224895   0.047   4.638  15.418  0.3978  0.0012 -0.2666
 1135TIP3    H124896   0.017   4.550  15.442 -0.0824  0.1579 -0.2851
 1135TIP3    H224897  -0.009   4.697  15.469 -0.3779  0.3362 -1.4700
 1136TIP3   OH224898   1.989   5.480   0.043 -0.2827 -0.1401 -0.1305
 1136TIP3    H124899   2.059   5.525   0.089  0.5561 -1.3564 -0.1643
 1136TIP3    H224900   1.945   5.428   0.110 -1.6576  1.1707  0.0357
 1137TIP3   OH224901   1.914   4.296   0.626  0.0369 -0.4952  0.3982
 1137TIP3    H124902   1.829   4.302   0.584  0.2971 -0.2801 -0.1152
 1137TIP3    H224903   1.957   4.380   0.606  0.4447 -0.6819  0.4720
 1138TIP3   OH224904   6.129   6.162   6.386 -0.4177 -0.6361  0.4829
 1138TIP3    H124905   6.133   6.200   6.474 -0.2087  2.0139 -0.6072
 1138TIP3    H224906   6.037   6.169   6.361 -0.0459  1.1373 -0.5125
 1139TIP3   OH224907   2.819   3.475   3.617  0.1522 -0.2531 -0.4304
 1139TIP3    H124908   2.913   3.487   3.632 -0.1815  0.6476  1.1735
 1139TIP3    H224909   2.778   3.508   3.697 -1.4639 -1.9418 -0.5085
 1140TIP3   OH224910   5.294   3.488  16.069  0.6457  0.0079 -0.9379
 1140TIP3    H124911   5.306   3.583  16.059  0.6866  0.2133  0.7552
 1140TIP3    H224912   5.233   3.479  16.142 -0.7316 -1.2632 -2.1951
 1141TIP3   OH224913   3.257   3.191   4.644  0.1403  0.0647  0.2058
 1141TIP3    H124914   3.303   3.108   4.630 -0.5752 -0.1030 -1.5652
 1141TIP3    H224915   3.280   3.218   4.732  3.2715 -0.1930 -0.4136
 1142TIP3   OH224916   0.580   6.558   5.519  0.6446 -0.3537  0.1058
 1142TIP3    H124917   0.651   6.496   5.501 -1.4101 -2.5167 -1.0604
 1142TIP3    H224918   0.547   6.533   5.605  1.2464  0.6918  0.6723
 1143TIP3   OH224919   4.099   0.273   1.198 -0.3839  0.4300 -0.3325
 1143TIP3    H124920   4.062   0.337   1.259  1.8143  0.9874  0.5164
 1143TIP3    H224921   4.074   0.306   1.111 -0.0527  1.9562  0.1214
 1144TIP3   OH224922   4.067   1.789   1.060  0.1631 -0.4314 -0.1307
 1144TIP3    H124923   4.107   1.750   0.982 -1.4815  1.1061 -1.8633
 1144TIP3    H224924   4.039   1.714   1.113  2.3741 -1.5179 -0.3771
 1145TIP3   OH224925   1.567   1.675  12.304  0.4321  0.5016 -0.1001
 1145TIP3    H124926   1.640   1.645  12.249  1.3214  2.3555 -0.0020
 1145TIP3    H224927   1.490   1.632  12.266  1.4986 -1.3117 -0.3559
 1146TIP3   OH224928   0.159   1.981   4.543 -0.1249  0.4999  0.5373
 1146TIP3    H124929   0.239   1.980   4.491  0.2890 -2.1223  1.0908
 1146TIP3    H224930   0.186   2.015   4.628  0.2792  0.0786  0.5774
 1147TIP3   OH224931   6.274   1.195   3.305 -0.2333 -0.4735 -0.2743
 1147TIP3    H124932   6.220   1.267   3.272 -0.4595 -1.0676 -1.2268
 1147TIP3    H224933   6.247   1.119   3.254 -1.2220 -1.6495  1.8686
 1148TIP3   OH224934   1.794   2.940  11.605 -0.1818  0.4576 -0.4099
 1148TIP3    H124935   1.844   3.007  11.559  1.4255  0.1431  0.7976
 1148TIP3    H224936   1.854   2.866  11.612 -1.0650 -0.2029  0.4714
 1149TIP3   OH224937   1.935   3.752  16.267 -0.4813 -0.0483 -0.7103
 1149TIP3    H124938   1.943   3.700  16.348 -1.0438  0.8477 -0.0623
 1149TIP3    H224939   1.852   3.724  16.229 -0.1913 -0.5085 -1.0183
 1150TIP3   OH224940   4.536   0.311  14.580 -0.4325 -0.4845 -0.4940
 1150TIP3    H124941   4.462   0.370  14.596  0.5056  0.2387  1.6260
 1150TIP3    H224942   4.571   0.338  14.495  0.9132  3.2502  1.0328
 1151TIP3   OH224943   3.021   0.028   0.249  0.8886  0.1891  0.0430
 1151TIP3    H124944   3.105   0.068   0.271  0.5152  0.6726  0.6509
 1151TIP3    H224945   2.964   0.050   0.323 -0.8362  3.0436 -1.9089
 1152TIP3   OH224946   4.607   6.174  12.848 -0.4210  0.4662 -0.4059
 1152TIP3    H124947   4.630   6.105  12.910  0.5897  0.1854 -1.0733
 1152TIP3    H224948   4.668   6.245  12.867 -0.0815  0.3626 -1.0901
 1153TIP3   OH224949   5.929   5.569  12.671  0.1757 -0.4628 -0.0711
 1153TIP3    H124950   5.995   5.507  12.703  2.0274  0.8868 -1.0555
 1153TIP3    H224951   5.866   5.515  12.624  0.9236 -1.7487  0.3315
 1154TIP3   OH224952   3.613   0.519   0.954 -0.0016 -0.6823 -0.0426
 1154TIP3    H124953   3.661   0.509   0.872 -1.2862  1.5339 -1.1467
 1154TIP3    H224954   3.657   0.591   0.999  0.2039 -1.3632  0.8749
 1155TIP3   OH224955   1.256   0.464  11.349 -0.1384 -0.0965  0.0630
 1155TIP3    H124956   1.316   0.480  11.421  0.6189  0.0763 -0.5902
 1155TIP3    H224957   1.264   0.371  11.330  0.0650 -0.0400 -0.1390
 1156TIP3   OH224958   0.681   2.066   2.519 -0.3255 -0.3102 -0.3768
 1156TIP3    H124959   0.639   1.989   2.483  0.1034 -0.2519 -1.0337
 1156TIP3    H224960   0.720   2.037   2.601 -0.8809 -0.5755 -0.2023
 1157TIP3   OH224961   1.350   3.896  16.532 -0.6313  0.7053 -0.1910
 1157TIP3    H124962   1.348   3.909  16.627 -0.8095 -0.7917  0.0362
 1157TIP3    H224963   1.306   3.812  16.519  1.1853 -0.0986 -1.4233
 1158TIP3   OH224964   5.112   1.027  14.719 -0.0566  0.9998 -0.0948
 1158TIP3    H124965   5.174   1.091  14.753  0.1603  0.1265  1.2131
 1158TIP3    H224966   5.026   1.063  14.740  0.0571  0.9695  0.4184
 1159TIP3   OH224967   3.005   6.199  11.198 -0.2030  0.3103 -0.0906
 1159TIP3    H124968   2.919   6.209  11.157  0.6741  1.4353 -1.7702
 1159TIP3    H224969   3.054   6.275  11.169  0.9239  0.4919  2.0760
 1160TIP3   OH224970   0.042   1.443   5.706 -0.4564 -0.7811  0.0333
 1160TIP3    H124971   0.125   1.422   5.748  0.4361  0.5903 -0.9591
 1160TIP3    H224972   0.062   1.517   5.649 -1.9378 -1.6217 -1.6815
 1161TIP3   OH224973   5.867   1.340   1.503  0.6715  0.3377 -0.3463
 1161TIP3    H124974   5.952   1.382   1.490  1.3476 -0.9619 -0.2980
 1161TIP3    H224975   5.806   1.413   1.515  1.5167  1.3429 -1.8240
 1162TIP3   OH224976   1.606   4.605   1.238 -0.1272 -0.2794 -0.2008
 1162TIP3    H124977   1.556   4.680   1.270 -0.4389 -1.6499  2.9737
 1162TIP3    H224978   1.578   4.593   1.148 -2.9784  1.0537  0.4166
 1163TIP3   OH224979   1.147   0.022   5.187  0.1146 -0.1823 -0.4172
 1163TIP3    H124980   1.223  -0.018   5.145  1.9280  0.6495  1.8096
 1163TIP3    H224981   1.166   0.116   5.185 -1.2541  0.1124 -0.4780
 1164TIP3   OH224982   3.113   3.926  13.593 -0.5894 -0.3198  0.3380
 1164TIP3    H124983   3.041   3.960  13.540 -0.6212  0.1404  0.6719
 1164TIP3    H224984   3.183   3.909  13.530 -0.2122  1.3106  0.2676
 1165TIP3   OH224985   1.336   1.347  13.657  0.0763 -0.4939 -0.1118
 1165TIP3    H124986   1.296   1.272  13.701 -1.5558 -1.1519 -2.5202
 1165TIP3    H224987   1.286   1.422  13.687  0.1188 -0.6779  0.4353
 1166TIP3   OH224988   0.077   6.450   5.782  0.0685  0.3536  0.4343
 1166TIP3    H124989   0.034   6.531   5.811 -0.1558  1.4671 -2.6931
 1166TIP3    H224990   0.006   6.394   5.752  0.3792 -0.2079  0.7319
 1167TIP3   OH224991   3.997   2.440   0.281 -0.6136  0.2206 -0.0127
 1167TIP3    H124992   3.964   2.436   0.371 -0.6577  1.8467  0.0622
 1167TIP3    H224993   4.080   2.487   0.289 -1.8290  2.7173 -1.1096
 1168TIP3   OH224994   0.669   1.074  11.004  0.4341  0.2858 -0.1476
 1168TIP3    H124995   0.585   1.114  10.979 -0.7397 -0.4447  2.3321
 1168TIP3    H224996   0.664   0.985  10.970  0.4712  0.4328 -0.5401
 1169TIP3   OH224997   1.445   4.947   2.321  0.6443 -0.0891 -0.3448
 1169TIP3    H124998   1.388   4.877   2.287  0.5396 -0.0446 -0.2591
 1169TIP3    H224999   1.457   5.006   2.247  1.3844 -0.6134 -0.6613
 1170TIP3   OH225000   5.497   5.526   0.211  0.2630 -0.0728 -0.5697
 1170TIP3    H125001   5.544   5.597   0.168 -0.5683  0.6976 -0.2459
 1170TIP3    H225002   5.406   5.556   0.213  0.0287 -0.8046  0.2664
 1171TIP3   OH225003   3.987   1.546  14.895 -0.2216 -0.0689 -0.3756
 1171TIP3    H125004   3.963   1.472  14.952  0.2262 -0.3550 -0.5489
 1171TIP3    H225005   4.076   1.526  14.866  0.1749  0.8929  0.1333
 1172TIP3   OH225006   1.669   3.197  17.086 -0.1829 -0.1581  0.2129
 1172TIP3    H125007   1.686   3.182  17.179  1.7214  0.2377 -0.0385
 1172TIP3    H225008   1.585   3.243  17.084 -0.6331 -0.8674  1.6713
 1173TIP3   OH225009   4.179   2.655   5.842  0.0740  0.7709 -0.6009
 1173TIP3    H125010   4.112   2.660   5.774  1.1416  1.0075 -1.6642
 1173TIP3    H225011   4.255   2.700   5.805  1.0778 -0.1392  0.2760
 1174TIP3   OH225012   1.260   2.139  15.313  0.8132 -0.7186  0.0109
 1174TIP3    H125013   1.169   2.163  15.301  0.4360 -2.4789 -1.0356
 1174TIP3    H225014   1.309   2.218  15.291 -0.4151 -0.0444 -0.3781
 1175TIP3   OH225015   1.161   2.610   0.214 -0.2525  0.4691 -0.2578
 1175TIP3    H125016   1.163   2.584   0.122 -1.2908 -1.5258  0.2241
 1175TIP3    H225017   1.078   2.576   0.247  0.3040  0.7360  1.5505
 1176TIP3   OH225018   1.487   3.411   1.113  0.1772 -0.7618  0.0273
 1176TIP3    H125019   1.523   3.364   1.188 -1.1660 -1.1445  0.4494
 1176TIP3    H225020   1.538   3.379   1.039  2.2654  0.4228  0.8776
 1177TIP3   OH225021   4.792   4.829   5.524  0.2346 -0.2388  0.1720
 1177TIP3    H125022   4.725   4.897   5.528 -0.2839 -0.7931  1.4293
 1177TIP3    H225023   4.774   4.783   5.442 -1.7106 -1.1450  1.0529
 1178TIP3   OH225024   1.475   2.144  11.766 -0.4225  0.5347  0.1698
 1178TIP3    H125025   1.488   2.237  11.782 -1.2376  0.9976 -1.5411
 1178TIP3    H225026   1.381   2.136  11.747 -0.3386 -0.5995  0.1619
 1179TIP3   OH225027   6.499   5.682  12.561  0.2085  0.3260 -0.1130
 1179TIP3    H125028   6.518   5.744  12.490  0.3695 -0.3620 -0.6841
 1179TIP3    H225029   6.403   5.682  12.568  0.2138  0.7039 -0.0526
 1180TIP3   OH225030   4.001   5.821  13.988  0.2407 -0.3160 -0.2322
 1180TIP3    H125031   3.923   5.846  14.037 -0.1360  0.0076 -0.9776
 1180TIP3    H225032   3.972   5.816  13.897  0.6958 -1.8395 -0.3359
 1181TIP3   OH225033   5.517   2.446   3.078 -0.3509  0.1510 -0.7114
 1181TIP3    H125034   5.422   2.435   3.081 -0.4073  0.8038  0.5688
 1181TIP3    H225035   5.551   2.356   3.076 -0.9770 -0.1016 -0.3775
 1182TIP3   OH225036   1.220   5.414   4.615 -1.0770 -0.1681  0.4046
 1182TIP3    H125037   1.252   5.440   4.701 -1.9571 -2.3067  1.4687
 1182TIP3    H225038   1.293   5.366   4.576 -1.3575 -1.0015  0.8711
 1183TIP3   OH225039   0.315   6.364  13.678  0.9009 -0.5375 -0.1456
 1183TIP3    H125040   0.393   6.364  13.622  0.2518  0.7963 -1.0807
 1183TIP3    H225041   0.241   6.368  13.618  0.1315 -0.6405  0.7697
 1184TIP3   OH225042   3.533   5.516  13.303 -0.6684  0.6524  0.3438
 1184TIP3    H125043   3.469   5.587  13.312 -0.6198  0.7874 -0.3225
 1184TIP3    H225044   3.516   5.459  13.378  0.2948  2.1567  1.7711
 1185TIP3   OH225045   2.974   0.104  13.146  0.3415  0.6433  0.0246
 1185TIP3    H125046   3.061   0.101  13.186 -0.4992 -0.6737  1.9693
 1185TIP3    H225047   2.936   0.018  13.166 -1.6645  1.4415 -0.1097
 1186TIP3   OH225048   0.308   4.578  16.318 -0.1212 -0.6435 -0.7215
 1186TIP3    H125049   0.359   4.505  16.354  0.9480  0.0641 -0.7547
 1186TIP3    H225050   0.224   4.574  16.365  1.8202  1.4263  3.4957
 1187TIP3   OH225051   6.783   5.389   0.578  0.0727  0.1405  0.3852
 1187TIP3    H125052   6.766   5.449   0.651 -0.3632 -0.0153  0.4174
 1187TIP3    H225053   6.710   5.405   0.517  1.5433  1.8059 -1.0430
 1188TIP3   OH225054   2.252   5.471   2.414 -0.2368  0.0206 -0.2217
 1188TIP3    H125055   2.316   5.541   2.423 -0.3691  0.0036  1.1034
 1188TIP3    H225056   2.233   5.466   2.320  1.3827  0.3031 -0.5823
 1189TIP3   OH225057   0.973   0.040  12.070 -0.5869  0.5221  0.0255
 1189TIP3    H125058   1.016   0.066  11.989 -0.6882  1.8278  0.3710
 1189TIP3    H225059   0.882   0.070  12.059 -1.1018 -1.0080 -0.1495
 1190TIP3   OH225060   3.057   4.894  16.908 -0.0551 -0.4178 -0.1063
 1190TIP3    H125061   3.133   4.950  16.928  0.0754 -0.1909 -1.1694
 1190TIP3    H225062   3.043   4.907  16.814  0.0908 -2.3193 -0.4223
 1191TIP3   OH225063   2.803   4.327   0.449 -0.3960  0.3735  0.7601
 1191TIP3    H125064   2.895   4.339   0.424 -0.1171 -1.0321  0.9718
 1191TIP3    H225065   2.783   4.237   0.423 -2.7589  1.6167 -2.3436
 1192TIP3   OH225066   5.802   5.229   2.635 -0.7877 -0.5572 -0.3663
 1192TIP3    H125067   5.736   5.297   2.622 -1.2918 -0.5100  2.0741
 1192TIP3    H225068   5.886   5.275   2.629 -1.1308  0.4856  1.9470
 1193TIP3   OH225069   4.667   5.793  14.980  0.2108  0.7928  0.2504
 1193TIP3    H125070   4.665   5.858  15.050 -2.4123  1.3059 -0.1952
 1193TIP3    H225071   4.633   5.840  14.903 -2.4951 -1.1701  0.0856
 1194TIP3   OH225072   0.658   5.321   0.738  0.1194  0.0283 -0.1400
 1194TIP3    H125073   0.680   5.404   0.781 -0.0878 -0.6854  1.4078
 1194TIP3    H225074   0.741   5.274   0.731 -0.1079 -0.6437  1.2751
 1195TIP3   OH225075   0.359   1.975   5.370 -0.2362  0.2802 -0.5552
 1195TIP3    H125076   0.355   1.900   5.429 -0.6623 -0.5627 -1.6064
 1195TIP3    H225077   0.403   2.044   5.420  1.5911 -1.1595 -0.0800
 1196TIP3   OH225078   0.104   2.511  15.501  0.1980 -0.4491  0.0678
 1196TIP3    H125079   0.081   2.596  15.539 -2.8848 -0.3037 -1.7454
 1196TIP3    H225080   0.044   2.449  15.542  0.6653 -1.2890 -0.4791
 1197TIP3   OH225081   3.438   4.917   2.641  0.2344  0.5792 -0.0766
 1197TIP3    H125082   3.349   4.953   2.640  0.4373  1.1021  0.3475
 1197TIP3    H225083   3.485   4.968   2.576  1.2379  3.0164  2.3421
 1198TIP3   OH225084   5.661   5.594  11.999 -0.2764 -0.7689  0.1693
 1198TIP3    H125085   5.717   5.541  12.055  0.9870 -1.4780 -1.6596
 1198TIP3    H225086   5.574   5.584  12.035  0.3846 -1.7569  1.5631
 1199TIP3   OH225087   2.104   2.003  12.396  0.3947 -0.4782  0.0670
 1199TIP3    H125088   2.193   1.982  12.366  0.4635  0.6934 -0.6391
 1199TIP3    H225089   2.047   1.957  12.334  0.5299 -0.0786 -0.3647
 1200TIP3   OH225090   4.782   2.861  14.529  0.3133  0.2940  0.2343
 1200TIP3    H125091   4.866   2.828  14.562  0.2793  1.0370  1.1070
 1200TIP3    H225092   4.806   2.926  14.463  0.4461  0.7340  0.7041
 1201TIP3   OH225093   0.373   6.203  12.983 -0.1381  0.3732 -0.0615
 1201TIP3    H125094   0.278   6.201  12.995 -0.2839 -0.5567 -1.1875
 1201TIP3    H225095   0.385   6.222  12.890  0.7979  0.8411  0.1424
 1202TIP3   OH225096   2.672   5.583  15.219  0.2345 -0.3023  0.2746
 1202TIP3    H125097   2.602   5.567  15.156  0.6875 -2.3991  0.2299
 1202TIP3    H225098   2.633   5.560  15.304 -0.4898  2.8450  0.9130
 1203TIP3   OH225099   6.719   1.364   4.499 -0.0159  0.6577  0.1540
 1203TIP3    H125100   6.645   1.319   4.538  0.1647  1.0776  1.0055
 1203TIP3    H225101   6.710   1.348   4.405 -0.8860  0.2709  0.2927
 1204TIP3   OH225102   6.464   6.005  14.628  0.3967  0.0177  0.1965
 1204TIP3    H125103   6.543   6.013  14.574  0.3139  2.8392  0.3965
 1204TIP3    H225104   6.470   6.077  14.691 -1.8513 -0.3261  0.8950
 1205TIP3   OH225105   0.690   6.409   2.648  0.4668  0.2110  0.1985
 1205TIP3    H125106   0.784   6.430   2.642  0.8162 -1.1268  0.6340
 1205TIP3    H225107   0.659   6.415   2.558  1.3116 -0.7668 -0.1789
 1206TIP3   OH225108   3.292   5.176  11.422 -0.3113  0.7075 -0.2274
 1206TIP3    H125109   3.354   5.249  11.426 -0.5703  0.9487 -0.5957
 1206TIP3    H225110   3.209   5.215  11.395 -0.4497  0.2762 -0.4479
 1207TIP3   OH225111   1.794   4.406   2.625  0.3411 -0.0785  0.2110
 1207TIP3    H125112   1.825   4.352   2.552 -0.1223 -1.4187  0.9870
 1207TIP3    H225113   1.836   4.491   2.611  0.9214 -0.5626 -1.1477
 1208TIP3   OH225114   4.513   1.633  16.470 -0.5327 -0.7473 -0.3613
 1208TIP3    H125115   4.422   1.664  16.473 -0.2452  0.2825 -1.3133
 1208TIP3    H225116   4.566   1.712  16.485  0.2265 -1.6000  1.8089
 1209TIP3   OH225117   3.698   4.386  14.032 -0.7203 -0.2393 -0.2809
 1209TIP3    H125118   3.714   4.383  13.937 -0.4183  2.0277 -0.3721
 1209TIP3    H225119   3.609   4.422  14.040 -1.4098 -1.9674  0.3299
 1210TIP3   OH225120   0.101   2.710  14.606 -0.2445  0.2017  0.3107
 1210TIP3    H125121   0.192   2.700  14.580 -0.9032 -1.4102 -1.6120
 1210TIP3    H225122   0.105   2.731  14.699  2.0785  0.2039  0.2647
 1211TIP3   OH225123   3.805   2.452   4.187 -0.0633  0.3883 -0.3714
 1211TIP3    H125124   3.794   2.368   4.230 -1.2386  0.4900 -0.4587
 1211TIP3    H225125   3.765   2.442   4.101 -0.1332  1.0081 -0.4204
 1212TIP3   OH225126   5.325   2.054  12.810  0.4761 -0.1408 -0.1111
 1212TIP3    H125127   5.249   1.996  12.818 -0.7192  1.1215 -1.7557
 1212TIP3    H225128   5.372   2.042  12.893 -0.3843 -2.4878  0.1205
 1213TIP3   OH225129   6.215   6.131   1.273  0.4634  0.0843 -0.1450
 1213TIP3    H125130   6.166   6.061   1.229 -1.0060  0.9022  0.1333
 1213TIP3    H225131   6.181   6.212   1.235  0.8424  0.7171  0.8346
 1214TIP3   OH225132   1.327   6.422   2.142 -0.9587 -0.2272 -0.6067
 1214TIP3    H125133   1.254   6.475   2.108 -0.2397  0.4549 -1.1051
 1214TIP3    H225134   1.372   6.480   2.202 -0.8429 -0.6655 -0.2696
 1215TIP3   OH225135   2.491   0.150  13.209 -0.6550 -0.1029 -0.1467
 1215TIP3    H125136   2.465   0.087  13.142 -1.5904  1.1254 -0.9906
 1215TIP3    H225137   2.409   0.175  13.251 -0.5481  1.7765 -0.9639
 1216TIP3   OH225138   5.004   2.265   2.664 -0.0565 -0.0629  0.1538
 1216TIP3    H125139   5.096   2.266   2.637  0.0075  2.1038  0.2919
 1216TIP3    H225140   4.990   2.351   2.704 -1.5864 -1.1632  2.1043
 1217TIP3   OH225141   1.609   5.479  14.192  0.1444  0.3749  0.5209
 1217TIP3    H125142   1.548   5.544  14.228  0.9263  1.4983 -0.0978
 1217TIP3    H225143   1.576   5.461  14.104 -0.5764 -0.7671  1.0123
 1218TIP3   OH225144   4.586   5.943  17.116  0.5033  0.6016 -0.0813
 1218TIP3    H125145   4.627   6.009  17.061  3.0140  0.4305  1.4574
 1218TIP3    H225146   4.588   5.863  17.062 -0.2809  1.1627 -0.9921
 1219TIP3   OH225147   1.651   1.270  16.443 -0.0760 -0.3704 -0.1716
 1219TIP3    H125148   1.722   1.329  16.469 -1.9527  1.4373  1.2668
 1219TIP3    H225149   1.650   1.274  16.348  1.1489  0.3092 -0.1732
 1220TIP3   OH225150   4.042   4.397  11.890  0.5414  0.7641  0.1630
 1220TIP3    H125151   3.990   4.451  11.830 -0.0180  1.1835  0.9998
 1220TIP3    H225152   3.983   4.380  11.964  1.1552  0.1061  0.5140
 1221TIP3   OH225153   2.202   6.425  14.650  0.1066 -0.2443 -0.6150
 1221TIP3    H125154   2.106   6.427  14.640  0.2443 -1.2471 -2.6975
 1221TIP3    H225155   2.215   6.409  14.743 -1.6925  1.8654  0.0929
 1222TIP3   OH225156   3.382   2.723  13.983  0.0451  0.1757 -0.0807
 1222TIP3    H125157   3.319   2.725  13.911 -1.0501  1.2676  0.8545
 1222TIP3    H225158   3.464   2.694  13.943 -0.8714 -0.5854 -1.4736
 1223TIP3   OH225159   4.395   4.324  16.867 -0.7257 -0.2450 -0.1994
 1223TIP3    H125160   4.479   4.319  16.821 -0.8175  0.7588 -0.4989
 1223TIP3    H225161   4.405   4.396  16.929 -1.3242 -0.2085 -0.1350
 1224TIP3   OH225162   2.985   5.504  12.938 -0.1128 -0.3681 -0.2396
 1224TIP3    H125163   3.002   5.468  13.026  0.0104 -0.2425 -0.2125
 1224TIP3    H225164   3.045   5.455  12.881 -1.5599 -1.8533 -0.5675
 1225TIP3   OH225165   2.237   4.688   5.051 -0.1498 -0.4968  0.1237
 1225TIP3    H125166   2.260   4.743   5.125 -1.5501 -0.4233  0.5312
 1225TIP3    H225167   2.144   4.667   5.064 -0.3464 -0.7364 -1.4343
 1226TIP3   OH225168   6.197   4.264   5.367  0.7492  0.3111 -0.0179
 1226TIP3    H125169   6.288   4.242   5.388  0.8979  1.6155  0.8517
 1226TIP3    H225170   6.178   4.341   5.421 -0.7764  0.2565 -0.4231
 1227TIP3   OH225171   4.650   4.980  14.883  0.0857  1.0773 -0.6429
 1227TIP3    H125172   4.717   4.940  14.938 -0.5943  1.6884  0.6779
 1227TIP3    H225173   4.694   5.052  14.839  0.1356  1.9940  0.8498
 1228TIP3   OH225174   1.344   5.449   5.891 -0.5736 -0.0211  0.6086
 1228TIP3    H125175   1.414   5.484   5.835 -0.7348  0.6922  0.8353
 1228TIP3    H225176   1.312   5.372   5.845  1.2723 -1.1917  1.1416
 1229TIP3   OH225177   5.564   0.627  11.330  0.4689 -0.0549  0.3491
 1229TIP3    H125178   5.568   0.631  11.425 -0.1030 -0.3523  0.3942
 1229TIP3    H225179   5.542   0.536  11.311  1.3784 -0.1931 -0.1053
 1230TIP3   OH225180   5.742   4.825  16.190 -0.0320  0.6114  0.3453
 1230TIP3    H125181   5.807   4.803  16.258 -0.1409 -0.3042  0.1643
 1230TIP3    H225182   5.787   4.888  16.134  0.9499 -0.4768 -0.1367
 1231TIP3   OH225183   4.879   3.655  14.226  0.2490  0.0479 -0.2945
 1231TIP3    H125184   4.836   3.649  14.140  0.5636  0.1066 -0.4585
 1231TIP3    H225185   4.971   3.672  14.205  0.4799 -0.7498  0.0399
 1232TIP3   OH225186   5.475   5.544  11.386  0.8146  0.2198  0.8162
 1232TIP3    H125187   5.387   5.521  11.416  0.7672 -0.7608 -0.0024
 1232TIP3    H225188   5.465   5.629  11.344  0.0444 -0.3338 -0.1567
 1233TIP3   OH225189   2.948   2.794   0.880 -0.1884 -0.0100 -0.0878
 1233TIP3    H125190   2.903   2.874   0.907  0.7181  1.3484 -2.2723
 1233TIP3    H225191   2.983   2.757   0.961  0.5860  2.5994  0.8558
 1234TIP3   OH225192   3.572   1.462  13.451 -0.1113  0.8806 -0.0381
 1234TIP3    H125193   3.624   1.542  13.439  0.3897  0.3915 -1.4088
 1234TIP3    H225194   3.627   1.393  13.413 -1.0997  0.0993 -0.0735
 1235TIP3   OH225195   2.402   1.995  16.123 -0.4184  0.7527  0.0464
 1235TIP3    H125196   2.349   1.921  16.152 -1.3122  0.7147 -1.5831
 1235TIP3    H225197   2.486   1.984  16.168 -1.7372  0.8358  2.7413
 1236TIP3   OH225198   2.205   3.823  15.318  0.0771 -0.2296  0.3887
 1236TIP3    H125199   2.166   3.910  15.324 -0.2342 -0.4715  2.5995
 1236TIP3    H225200   2.259   3.827  15.239 -2.0125  1.0750 -1.0980
 1237TIP3   OH225201   4.242   4.025  14.716 -0.4444 -0.4189 -0.5803
 1237TIP3    H125202   4.262   3.950  14.661  0.1638 -0.7249  0.0506
 1237TIP3    H225203   4.327   4.062  14.740 -0.6457 -0.9107  1.0007
 1238TIP3   OH225204   4.325   2.157   4.270  0.3265  0.2790  0.3860
 1238TIP3    H125205   4.376   2.167   4.350  1.6869 -0.5886 -0.3314
 1238TIP3    H225206   4.271   2.079   4.285 -0.4542  0.9101  0.9569
 1239TIP3   OH225207   2.811   5.528  11.285  0.1141 -0.4904  0.1686
 1239TIP3    H125208   2.881   5.507  11.223 -0.6416 -1.1223 -0.4903
 1239TIP3    H225209   2.730   5.511  11.237 -0.4891 -0.6798  1.2167
 1240TIP3   OH225210   2.604   4.587   3.073 -0.1154  0.3773  0.2037
 1240TIP3    H125211   2.630   4.512   3.126 -0.0089 -0.6430 -1.2331
 1240TIP3    H225212   2.686   4.622   3.039 -0.2049  0.8232  0.4393
 1241TIP3   OH225213   0.418   2.638   5.901 -0.5095  0.0192  0.1650
 1241TIP3    H125214   0.419   2.543   5.887  1.7075 -0.0231  0.3235
 1241TIP3    H225215   0.452   2.649   5.990  0.2252  0.9949 -0.2187
 1242TIP3   OH225216   1.645   0.019  12.532 -0.0352 -0.2788  0.3714
 1242TIP3    H125217   1.617  -0.058  12.482 -3.5916  1.1572 -0.1365
 1242TIP3    H225218   1.618   0.002  12.622 -1.0728  0.4239  0.2106
 1243TIP3   OH225219   3.095   1.772  12.605 -0.2055  0.0711 -0.1702
 1243TIP3    H125220   3.127   1.802  12.690  0.5739 -0.4863 -0.2547
 1243TIP3    H225221   3.026   1.834  12.582 -1.9274 -1.0152  1.8503
 1244TIP3   OH225222   1.991   5.054  15.188 -0.0618  0.5010 -0.6941
 1244TIP3    H125223   2.001   5.130  15.246 -0.3118  0.1264 -0.1467
 1244TIP3    H225224   1.906   5.018  15.210  0.8390 -1.0562  0.4366
 1245TIP3   OH225225   4.704   0.543  14.044 -0.1475 -0.0532  0.3171
 1245TIP3    H125226   4.754   0.528  13.964 -0.8339  1.6911 -0.5073
 1245TIP3    H225227   4.662   0.459  14.063 -0.3602 -0.3868 -1.4548
 1246TIP3   OH225228   5.113   6.414   6.128  0.0553 -0.0561  0.4500
 1246TIP3    H125229   5.151   6.502   6.124  1.3338 -0.6063 -0.3825
 1246TIP3    H225230   5.097   6.398   6.221  1.1829  0.4960  0.7485
 1247TIP3   OH225231   2.652   3.472  11.983 -0.0168 -0.2514  0.4177
 1247TIP3    H125232   2.567   3.515  11.971  0.7500  1.4652  0.9121
 1247TIP3    H225233   2.715   3.532  11.943  1.0456 -1.1846  0.6611
 1248TIP3   OH225234   1.416   0.829  16.294  0.0735  0.5455 -0.2915
 1248TIP3    H125235   1.487   0.767  16.274 -0.0140  0.3329  0.0365
 1248TIP3    H225236   1.425   0.898  16.229  0.0838  0.1107 -0.7607
 1249TIP3   OH225237   3.350   5.799   0.260  0.3648 -0.8311  0.3142
 1249TIP3    H125238   3.259   5.785   0.235  0.6004 -2.0067  0.0584
 1249TIP3    H225239   3.400   5.757   0.190  1.1452  1.0530 -0.3143
 1250TIP3   OH225240   2.858   1.347  13.754 -0.0432  0.4829  0.0821
 1250TIP3    H125241   2.770   1.385  13.759 -0.6154 -0.6074 -0.8752
 1250TIP3    H225242   2.894   1.382  13.673  0.2374  0.6010  0.2585
 1251TIP3   OH225243   6.218   3.956  16.154  0.0367  0.0402  0.4659
 1251TIP3    H125244   6.279   4.006  16.209  1.9819 -0.3447 -1.2229
 1251TIP3    H225245   6.231   3.865  16.180 -1.0051  0.0767  1.1720
 1252TIP3   OH225246   3.333   0.529  16.222 -0.1480  0.5850  0.3476
 1252TIP3    H125247   3.333   0.434  16.212 -1.7684  0.6153 -0.3351
 1252TIP3    H225248   3.421   0.557  16.195  0.2053 -0.6794  0.1583
 1253TIP3   OH225249   4.201   0.171   3.319 -0.2396  0.3491  0.0023
 1253TIP3    H125250   4.148   0.229   3.264  1.8029  0.9736 -1.3952
 1253TIP3    H225251   4.144   0.096   3.336 -1.4436  0.8040 -1.7496
 1254TIP3   OH225252   2.814   6.225  10.745  0.3139  0.4273  0.2385
 1254TIP3    H125253   2.903   6.256  10.727  0.5519 -0.6868 -0.6018
 1254TIP3    H225254   2.823   6.172  10.825 -0.0404  2.1807  1.5019
 1255TIP3   OH225255   2.517   3.924  12.170  0.5366  0.1823  0.1221
 1255TIP3    H125256   2.585   3.935  12.236  1.6189 -2.9032 -0.2618
 1255TIP3    H225257   2.558   3.954  12.089  1.2949 -1.0373  0.0125
 1256TIP3   OH225258   6.810   2.188   4.022  0.5355  0.1875  1.1176
 1256TIP3    H125259   6.789   2.111   4.075  1.7464 -0.2333  1.0111
 1256TIP3    H225260   6.863   2.154   3.950  1.5046  1.1838  1.3355
 1257TIP3   OH225261   2.974   3.128  16.479 -0.3073  0.1059  0.0591
 1257TIP3    H125262   2.903   3.116  16.542 -0.5162 -1.2440 -0.3924
 1257TIP3    H225263   2.933   3.115  16.393  0.3148  0.1339 -0.2505
 1258TIP3   OH225264   3.095   2.910  13.172 -0.2076  0.0832  0.1694
 1258TIP3    H125265   3.031   2.969  13.213 -0.8973 -0.9651  0.6544
 1258TIP3    H225266   3.173   2.964  13.160 -0.8995  1.1606  0.3566
 1259TIP3   OH225267   4.593   6.191  15.642 -0.5573 -0.2561 -0.0470
 1259TIP3    H125268   4.641   6.149  15.714  0.2881 -0.2035 -0.5630
 1259TIP3    H225269   4.526   6.244  15.685  0.9340  1.0347  0.8054
 1260TIP3   OH225270   6.076   3.115   3.313 -0.2197  0.2599 -0.1723
 1260TIP3    H125271   6.041   3.173   3.381 -1.4793 -0.1851 -0.4100
 1260TIP3    H225272   5.998   3.080   3.270  0.5512  0.2182 -1.5833
 1261TIP3   OH225273   3.631   0.840  15.141  0.1144  0.5175 -0.2551
 1261TIP3    H125274   3.610   0.825  15.049 -1.6275 -2.8963  0.5066
 1261TIP3    H225275   3.726   0.831  15.146  0.1818  0.2394 -1.6370
 1262TIP3   OH225276   4.053   5.405  11.078 -0.1364 -0.2189 -0.2905
 1262TIP3    H125277   4.057   5.319  11.120 -1.3449 -0.1495  0.0206
 1262TIP3    H225278   4.055   5.467  11.151 -0.6845 -0.0417 -0.4205
 1263TIP3   OH225279   0.018   3.810  14.449  0.3352 -0.4735 -0.0126
 1263TIP3    H125280  -0.013   3.722  14.427 -1.2691 -0.3577  1.5036
 1263TIP3    H225281   0.001   3.818  14.543  0.8322  1.3153 -0.0457
 1264TIP3   OH225282   0.727   4.665   3.669  0.1501 -0.6060  0.5806
 1264TIP3    H125283   0.656   4.727   3.657  0.7936  0.0641  0.1270
 1264TIP3    H225284   0.755   4.644   3.580  0.1249 -1.3384  0.7372
 1265TIP3   OH225285   3.485   1.974  14.659 -0.3980  0.4627  0.1771
 1265TIP3    H125286   3.462   1.895  14.709 -0.8150  1.1544  1.1159
 1265TIP3    H225287   3.401   2.019  14.647 -0.6173 -0.4806 -2.6600
 1266TIP3   OH225288   5.701   4.730   2.597  0.1585 -0.4283  0.3911
 1266TIP3    H125289   5.732   4.737   2.687  0.0702 -4.0312  0.8529
 1266TIP3    H225290   5.693   4.820   2.567  0.3055  0.8990  3.9195
 1267TIP3   OH225291   6.181   1.007  12.945 -0.6381 -0.1712  0.1686
 1267TIP3    H125292   6.105   1.062  12.924 -1.0415 -0.8015 -0.0685
 1267TIP3    H225293   6.207   0.970  12.861 -0.6537 -0.6918  0.3872
 1268TIP3   OH225294   3.820   5.303   4.063 -0.7456  0.7629  0.0860
 1268TIP3    H125295   3.873   5.227   4.040  0.0879  1.2502  0.3399
 1268TIP3    H225296   3.784   5.334   3.980  0.8909  1.5252 -0.3845
 1269TIP3   OH225297   2.536   5.920  10.997 -0.2757  0.0381  0.3655
 1269TIP3    H125298   2.480   5.997  11.010 -0.6892 -0.1174 -0.4018
 1269TIP3    H225299   2.539   5.909  10.902  0.5067 -0.3716  0.4279
 1270TIP3   OH225300   6.712   4.352   3.185  0.0387 -0.4015 -0.3321
 1270TIP3    H125301   6.780   4.417   3.164  0.9380 -1.0175  0.5723
 1270TIP3    H225302   6.638   4.404   3.216  1.2087  0.1861  1.6709
 1271TIP3   OH225303   1.821   4.975   1.348  0.0952 -0.6153 -0.0313
 1271TIP3    H125304   1.839   4.887   1.381  0.6419 -0.9939 -1.2680
 1271TIP3    H225305   1.749   4.963   1.286  0.2825 -0.2214 -0.3276
 1272TIP3   OH225306   1.122   1.869  13.866  0.0267 -0.3969  0.0913
 1272TIP3    H125307   1.165   1.844  13.784  0.3978  1.6859 -0.4017
 1272TIP3    H225308   1.191   1.864  13.932  0.8110  1.7378 -0.4807
 1273TIP3   OH225309   6.424   2.900  16.681 -0.3723 -0.1281 -0.3951
 1273TIP3    H125310   6.431   2.863  16.593 -1.6740 -0.9494 -0.1746
 1273TIP3    H225311   6.398   2.991  16.666 -1.9054 -0.6077 -0.8668
 1274TIP3   OH225312   1.299   5.124  13.110 -0.1603 -0.3167 -0.1195
 1274TIP3    H125313   1.224   5.182  13.122 -0.1841 -0.4407  0.3561
 1274TIP3    H225314   1.290   5.059  13.179  1.6437  0.9862  1.4706
 1275TIP3   OH225315   1.876   4.597   4.024 -0.6735 -0.3423 -0.0206
 1275TIP3    H125316   1.807   4.565   3.966  0.2128 -1.2324 -0.6213
 1275TIP3    H225317   1.867   4.693   4.023 -1.5278 -0.4248 -0.5325
 1276TIP3   OH225318   3.345   5.101   5.652 -0.1605 -0.0018  0.2306
 1276TIP3    H125319   3.272   5.053   5.691  0.3638 -0.9940  0.0044
 1276TIP3    H225320   3.346   5.185   5.699 -0.4014 -0.6334  1.3857
 1277TIP3   OH225321   2.682   5.169  12.282  0.1556 -0.1999  0.3200
 1277TIP3    H125322   2.721   5.254  12.261  0.9644 -1.2479 -2.9265
 1277TIP3    H225323   2.727   5.141  12.362 -0.0062  2.2708  1.3789
 1278TIP3   OH225324   3.869   5.858   2.762 -0.1911  0.2899 -0.0262
 1278TIP3    H125325   3.929   5.929   2.786  1.8226 -0.3442 -2.7161
 1278TIP3    H225326   3.832   5.885   2.678 -3.7695  0.6099  1.5031
 1279TIP3   OH225327   6.681   1.194   4.790 -0.5368  0.7304  0.1298
 1279TIP3    H125328   6.753   1.157   4.841  1.2579  3.3778 -0.2395
 1279TIP3    H225329   6.672   1.135   4.715  0.1125 -0.5312  1.0029
 1280TIP3   OH225330   3.507   0.192  12.820  0.3736  0.0051  0.1092
 1280TIP3    H125331   3.541   0.180  12.732  2.0935 -0.2959  0.7727
 1280TIP3    H225332   3.526   0.284  12.840 -2.1671  0.7827 -0.6541
 1281TIP3   OH225333   0.138   0.046  10.966  0.2416  0.1337 -0.4705
 1281TIP3    H125334   0.068   0.108  10.948 -0.5878 -0.5145  0.4264
 1281TIP3    H225335   0.093  -0.034  10.992  1.2506  0.5042  2.8949
 1282TIP3   OH225336   5.965   4.548  12.310  0.0268  0.3122  0.1808
 1282TIP3    H125337   5.884   4.589  12.339  0.5832  1.2558  0.4481
 1282TIP3    H225338   5.971   4.467  12.361 -0.0866  0.8911  1.1460
 1283TIP3   OH225339   3.671   3.223   0.908 -0.5907 -0.2522 -0.1468
 1283TIP3    H125340   3.582   3.251   0.887 -1.2197 -1.2497  1.0214
 1283TIP3    H225341   3.682   3.248   1.000 -0.1341 -1.2533  0.0825
 1284TIP3   OH225342   6.575   1.818  10.550  0.5520  0.1570 -0.0879
 1284TIP3    H125343   6.568   1.740  10.495 -0.1606  0.1610 -0.0105
 1284TIP3    H225344   6.631   1.791  10.623  0.9087 -0.0621 -0.4372
 1285TIP3   OH225345   1.180   2.849   5.870 -0.2556  0.3650  0.2680
 1285TIP3    H125346   1.250   2.826   5.931 -0.9525  0.7386  1.2364
 1285TIP3    H225347   1.142   2.765   5.845 -0.0092  0.2103  0.3998
 1286TIP3   OH225348   1.673   0.370  14.577  0.1678 -0.0592 -0.4678
 1286TIP3    H125349   1.585   0.335  14.582  0.1584 -0.1475 -1.2081
 1286TIP3    H225350   1.670   0.451  14.628 -0.8908  1.0430 -2.2224
 1287TIP3   OH225351   0.692   3.810   1.329  0.4726 -0.2629  0.0476
 1287TIP3    H125352   0.723   3.753   1.259 -0.9780 -3.0235  1.4796
 1287TIP3    H225353   0.597   3.814   1.316  0.1623 -0.9245  1.8463
 1288TIP3   OH225354   5.184   1.440   0.068  0.4637 -0.1124  0.1263
 1288TIP3    H125355   5.227   1.368   0.022  1.5870  1.3917 -1.3097
 1288TIP3    H225356   5.096   1.442   0.031  0.8197  0.0104 -0.7412
 1289TIP3   OH225357   3.167   2.515  15.237 -0.0116 -0.4812  0.7560
 1289TIP3    H125358   3.257   2.531  15.206 -0.1179 -0.4142  0.4758
 1289TIP3    H225359   3.147   2.591  15.291 -0.3393  0.1146 -0.1782
 1290TIP3   OH225360   1.924   1.454   4.512 -0.4991 -0.0062  0.0273
 1290TIP3    H125361   2.011   1.448   4.551 -0.7591 -2.0212  0.4031
 1290TIP3    H225362   1.928   1.531   4.456  1.3432  0.2703  0.4788
 1291TIP3   OH225363   6.101   5.140  16.972  0.0320 -0.3138  0.0803
 1291TIP3    H125364   6.180   5.184  16.939  0.0722 -0.4304  0.0217
 1291TIP3    H225365   6.091   5.174  17.061 -0.6825  0.8161 -0.4063
 1292TIP3   OH225366   0.656   6.628   5.206  0.0484 -0.5372 -0.3969
 1292TIP3    H125367   0.710   6.550   5.211  1.6189  0.5701  1.2666
 1292TIP3    H225368   0.686   6.683   5.279 -2.2730  0.8230 -0.3477
 1293TIP3   OH225369   2.622   5.330  16.686  0.2080  0.9167 -0.4633
 1293TIP3    H125370   2.631   5.299  16.776 -0.6529 -1.0956 -1.0169
 1293TIP3    H225371   2.660   5.260  16.633  0.4841  1.9644 -1.6910
 1294TIP3   OH225372   6.665   4.190  13.350 -0.2011 -0.0016 -0.4600
 1294TIP3    H125373   6.722   4.259  13.318 -0.3156  0.2906 -0.0465
 1294TIP3    H225374   6.715   4.109  13.337 -0.9325 -0.1187 -3.0146
 1295TIP3   OH225375   3.529   2.730   6.175 -0.0738 -0.3048  0.3412
 1295TIP3    H125376   3.594   2.671   6.214 -0.6364 -1.7913 -0.8547
 1295TIP3    H225377   3.527   2.705   6.083 -0.0837  1.8741 -0.2892
 1296TIP3   OH225378   0.193   4.731  14.310  0.3769 -0.2645  0.2909
 1296TIP3    H125379   0.250   4.655  14.302  0.0252 -0.4338 -0.8970
 1296TIP3    H225380   0.119   4.712  14.252  0.8179  1.4277 -0.9253
 1297TIP3   OH225381   2.005   5.804  14.715 -0.3038 -0.4524  0.3035
 1297TIP3    H125382   1.994   5.710  14.703 -0.6048 -0.3317 -0.4281
 1297TIP3    H225383   2.098   5.815  14.736 -0.5074 -1.0131  1.5571
 1298TIP3   OH225384   0.272   5.965   1.417  0.5253  0.6663  0.0697
 1298TIP3    H125385   0.282   5.912   1.337  0.7263 -1.1703  1.2591
 1298TIP3    H225386   0.279   5.902   1.488 -1.5007  1.9638  1.5207
 1299TIP3   OH225387   4.547   6.793  16.397 -0.0728  0.0274  0.2698
 1299TIP3    H125388   4.521   6.885  16.408  0.4678  0.2304 -0.1188
 1299TIP3    H225389   4.548   6.780  16.302 -0.9772 -0.6245  0.3343
 1300TIP3   OH225390   0.283   0.827   0.604 -0.0445  0.5827 -0.2441
 1300TIP3    H125391   0.326   0.792   0.682 -1.9015 -1.5105 -0.0295
 1300TIP3    H225392   0.354   0.854   0.547  1.3819  1.4727  1.8585
 1301TIP3   OH225393   3.858   3.965   0.784 -0.9925  0.4219 -0.2305
 1301TIP3    H125394   3.933   3.911   0.759 -1.7981 -1.2516  0.7761
 1301TIP3    H225395   3.845   4.024   0.710  1.6091  1.1345 -0.2272
 1302TIP3   OH225396   0.443   6.519  16.691 -0.3505 -0.0458  0.2830
 1302TIP3    H125397   0.374   6.575  16.657 -0.3140 -0.7464 -1.0023
 1302TIP3    H225398   0.400   6.435  16.707  0.3187 -0.7269 -1.2735
 1303TIP3   OH225399   0.832   3.108   3.312 -0.1781  0.0577 -0.8156
 1303TIP3    H125400   0.749   3.060   3.302 -0.9248  1.3734 -1.1914
 1303TIP3    H225401   0.896   3.054   3.266 -1.0100 -0.5231 -1.3355
 1304TIP3   OH225402   3.445   1.385   2.324 -0.7777  0.4026  0.0327
 1304TIP3    H125403   3.539   1.373   2.306 -1.1136  1.3958 -3.0613
 1304TIP3    H225404   3.413   1.432   2.247 -3.3857  2.2702  2.1002
 1305TIP3   OH225405   5.311   2.801   1.672 -0.0094 -0.1728  0.6196
 1305TIP3    H125406   5.301   2.846   1.757  0.4161  0.9990  0.0735
 1305TIP3    H225407   5.263   2.856   1.610  1.5063  0.1960 -0.2803
 1306TIP3   OH225408   2.332   6.595  12.323 -0.3269 -0.2214  0.0436
 1306TIP3    H125409   2.304   6.581  12.233  1.8475 -1.7927 -0.4462
 1306TIP3    H225410   2.254   6.576  12.375 -1.0052 -1.5147 -1.3746
 1307TIP3   OH225411   3.293   0.093   3.396  0.7622 -0.5831 -0.6593
 1307TIP3    H125412   3.321   0.179   3.429  2.0020 -0.1535 -2.6858
 1307TIP3    H225413   3.373   0.053   3.361  0.0253 -2.1789 -0.5949
 1308TIP3   OH225414   5.782   3.862   0.579  0.2304 -0.2066  0.5845
 1308TIP3    H125415   5.737   3.778   0.575  1.1159 -0.6584 -0.2795
 1308TIP3    H225416   5.834   3.858   0.660  1.0855 -0.9275  0.0118
 1309TIP3   OH225417   6.028   1.044  11.843  0.2789  0.1192  0.6025
 1309TIP3    H125418   5.975   1.115  11.878  0.3454  0.0927  0.7551
 1309TIP3    H225419   5.967   0.971  11.833  0.6743 -0.5419  2.6186
 1310TIP3   OH225420   3.422   3.415  16.479 -0.2447 -0.2031  0.2773
 1310TIP3    H125421   3.424   3.376  16.392  0.9492 -0.7758  0.5453
 1310TIP3    H225422   3.334   3.396  16.512 -1.0923  0.9672 -1.2079
 1311TIP3   OH225423   0.311   1.327  15.287 -0.3578 -0.2012  0.5701
 1311TIP3    H125424   0.307   1.381  15.208  0.7356  0.1194  0.7173
 1311TIP3    H225425   0.268   1.245  15.262 -0.1702 -0.0404 -0.3194
 1312TIP3   OH225426   1.373   5.689  16.143  0.9778 -0.5162 -0.0621
 1312TIP3    H125427   1.359   5.596  16.165 -1.5055  0.1657  1.7349
 1312TIP3    H225428   1.339   5.697  16.054  1.3445 -1.3578 -0.2915
 1313TIP3   OH225429   4.389   5.922  11.664  0.4648 -0.1241  0.3743
 1313TIP3    H125430   4.383   5.847  11.604  1.9480  1.5238 -2.0217
 1313TIP3    H225431   4.482   5.925  11.690 -0.1469 -0.8258  2.9296
 1314TIP3   OH225432   2.140   2.519  15.867  0.1972  0.1900 -0.2012
 1314TIP3    H125433   2.067   2.458  15.879 -0.4589  1.2223  1.3951
 1314TIP3    H225434   2.126   2.557  15.780 -1.2106  0.4255  0.1119
 1315TIP3   OH225435   3.237   2.775  12.373 -0.2857  0.5908  0.0172
 1315TIP3    H125436   3.328   2.746  12.368 -0.4484  0.1153 -0.2680
 1315TIP3    H225437   3.196   2.714  12.434 -0.6795  0.0818 -0.7449
 1316TIP3   OH225438   4.693   0.035   5.834  0.5577 -0.1681  0.5251
 1316TIP3    H125439   4.655  -0.031   5.775  3.8674 -0.3404 -1.6718
 1316TIP3    H225440   4.631   0.108   5.831 -1.2936 -1.6768 -0.0542
 1317TIP3   OH225441   2.369   4.379  13.015  0.6794  0.5765 -0.3241
 1317TIP3    H125442   2.413   4.397  13.098  0.6586  0.3224 -0.2556
 1317TIP3    H225443   2.297   4.442  13.011 -0.0958 -0.2338  0.4564
 1318TIP3   OH225444   1.681   0.139   4.889  0.5850 -0.6542  0.2487
 1318TIP3    H125445   1.702   0.048   4.909 -0.2509 -0.8518  0.2556
 1318TIP3    H225446   1.600   0.134   4.838  0.3394  0.1067  0.5556
 1319TIP3   OH225447   5.717   3.569   3.286  0.3981  0.3562 -0.3983
 1319TIP3    H125448   5.630   3.532   3.273  0.5531 -0.4134  0.5735
 1319TIP3    H225449   5.703   3.663   3.295 -0.3115  0.2513 -0.3818
 1320TIP3   OH225450   6.511   3.368   3.381  0.4091 -0.5469 -0.2825
 1320TIP3    H125451   6.463   3.400   3.304  1.4536 -2.8378 -1.9688
 1320TIP3    H225452   6.442   3.338   3.440 -0.3626 -0.6701 -1.2095
 1321TIP3   OH225453   2.803   6.212  11.970  0.1399  0.3086  0.3975
 1321TIP3    H125454   2.891   6.236  11.999 -1.1432  1.7177  3.5805
 1321TIP3    H225455   2.782   6.132  12.019 -0.5221  0.2465  0.0246
 1322TIP3   OH225456   4.084   5.690   4.667  0.1409  0.5644 -0.4386
 1322TIP3    H125457   4.157   5.747   4.692 -0.3156  1.5069 -1.1990
 1322TIP3    H225458   4.055   5.724   4.583 -1.3858  0.4042 -0.0042
 1323TIP3   OH225459   5.772   5.145  17.095 -0.1103 -0.1976 -0.0643
 1323TIP3    H125460   5.717   5.106  17.163  0.7461  3.4531  3.0979
 1323TIP3    H225461   5.862   5.133  17.128  0.4544  0.2706 -1.3825
 1324TIP3   OH225462   0.686   3.360  12.842 -0.3275  0.0154  0.2041
 1324TIP3    H125463   0.731   3.444  12.849 -1.8492  0.9955 -1.0692
 1324TIP3    H225464   0.744   3.307  12.788  1.4966 -0.4458  2.4610
 1325TIP3   OH225465   6.058   4.287  13.176 -0.0456  0.2385  0.6591
 1325TIP3    H125466   6.061   4.341  13.255  0.7534  2.4031 -0.7832
 1325TIP3    H225467   6.147   4.291  13.141 -0.8310  0.8937 -1.3628
 1326TIP3   OH225468   2.729   4.459  12.147 -0.7274 -0.1042  0.3649
 1326TIP3    H125469   2.804   4.481  12.091 -0.4719  0.0909  0.7802
 1326TIP3    H225470   2.697   4.543  12.179 -1.2268 -0.1755  0.0666
 1327TIP3   OH225471   4.907   2.997  16.716 -0.0747  0.0874  0.2066
 1327TIP3    H125472   4.920   2.962  16.628  2.3324  0.5055  0.3267
 1327TIP3    H225473   4.822   2.962  16.743 -0.2025 -1.2539 -1.7016
 1328TIP3   OH225474   0.897   3.613   4.929 -0.1139  0.3972  0.1249
 1328TIP3    H125475   0.961   3.542   4.930  0.4735  0.9086  1.1013
 1328TIP3    H225476   0.837   3.592   5.000 -2.1323 -0.9995 -1.8796
 1329TIP3   OH225477   2.419   4.163   0.291  0.2254  0.0174 -0.1488
 1329TIP3    H125478   2.359   4.110   0.239 -0.5186  0.7115 -0.0173
 1329TIP3    H225479   2.387   4.153   0.381 -0.2298  1.0768 -0.1823
 1330TIP3   OH225480   3.039   2.890  15.197 -0.1314  0.3371  0.1664
 1330TIP3    H125481   3.041   2.807  15.245  1.2255 -0.4029 -1.0500
 1330TIP3    H225482   2.959   2.933  15.226 -2.7327 -2.8667 -1.5593
 1331TIP3   OH225483   2.460   0.750   0.057 -0.0910 -0.1234  0.2138
 1331TIP3    H125484   2.472   0.707  -0.028 -0.5574  0.0264  0.0649
 1331TIP3    H225485   2.503   0.692   0.120  2.2021  0.8554 -0.3643
 1332TIP3   OH225486   5.280   2.928  16.450  0.2531  0.1902  0.4742
 1332TIP3    H125487   5.326   2.851  16.415 -1.0338 -2.1008  3.4124
 1332TIP3    H225488   5.225   2.957  16.378  0.4925 -1.9176 -0.6500
 1333TIP3   OH225489   0.658   2.783  13.241 -0.1367 -0.5557 -0.0744
 1333TIP3    H125490   0.644   2.688  13.241  0.1297 -0.5959  0.7025
 1333TIP3    H225491   0.753   2.793  13.251 -0.3943 -0.1845  2.4185
 1334TIP3   OH225492   2.251   6.265  12.232  0.3114  0.5204 -0.5518
 1334TIP3    H125493   2.267   6.194  12.170 -0.2863  0.3448 -0.5165
 1334TIP3    H225494   2.320   6.329  12.215  2.4734 -1.2146  1.1909
 1335TIP3   OH225495   1.389   0.563   4.673 -0.0050  0.2202  0.2450
 1335TIP3    H125496   1.477   0.525   4.667  0.2195  0.6868  0.5086
 1335TIP3    H225497   1.385   0.628   4.603 -0.6132 -0.7266 -0.6092
 1336TIP3   OH225498   4.763   2.972   0.185 -0.4241 -0.1214 -0.2815
 1336TIP3    H125499   4.812   2.927   0.253 -0.1511  1.5562  0.6932
 1336TIP3    H225500   4.673   2.972   0.216 -0.6452 -1.1027 -0.9051
 1337TIP3   OH225501   5.285   0.545   6.606 -0.0732 -0.0043 -0.4831
 1337TIP3    H125502   5.372   0.544   6.567  0.1849  0.6155  0.0645
 1337TIP3    H225503   5.263   0.453   6.620  0.7434 -0.1428 -0.0824
 1338TIP3   OH225504   5.431   5.958   2.967  0.0996  0.4833  0.1360
 1338TIP3    H125505   5.495   5.904   2.922 -0.3583 -0.7582  0.9361
 1338TIP3    H225506   5.375   5.992   2.898  0.1411 -0.4144 -0.3503
 1339TIP3   OH225507   1.574   0.489  16.302  0.0300  0.4639 -0.0476
 1339TIP3    H125508   1.622   0.471  16.221  0.0031 -0.3345  0.1053
 1339TIP3    H225509   1.625   0.557  16.346  0.0342  0.9125 -0.7420
 1340TIP3   OH225510   4.151   5.904   3.177  0.4061  0.4059 -0.1215
 1340TIP3    H125511   4.142   5.809   3.187 -1.1408  0.5619  0.2104
 1340TIP3    H225512   4.197   5.932   3.256 -0.2966  0.0801  0.4120
 1341TIP3   OH225513   4.308   2.272  11.792  0.3194 -0.1928  0.1034
 1341TIP3    H125514   4.218   2.247  11.811 -0.0581  0.8364 -0.2499
 1341TIP3    H225515   4.322   2.244  11.701 -0.1600  0.9724 -0.3504
 1342TIP3   OH225516   0.129   3.573  15.656  0.0370 -0.2034  0.1268
 1342TIP3    H125517   0.151   3.581  15.563 -0.9536  0.1292 -0.0837
 1342TIP3    H225518   0.054   3.631  15.669 -0.0180 -0.4649  1.0780
 1343TIP3   OH225519   0.892   3.961  14.077 -0.6825  0.1105  0.9389
 1343TIP3    H125520   0.935   4.021  14.015 -0.8285  1.1080  1.7767
 1343TIP3    H225521   0.894   4.007  14.160 -0.4586 -1.2293  1.7082
 1344TIP3   OH225522   5.936   2.269  10.915  0.1498  0.0295 -0.0477
 1344TIP3    H125523   5.990   2.348  10.908 -0.8808  0.7146 -0.5999
 1344TIP3    H225524   5.887   2.279  10.996 -0.5874  0.3716 -0.5214
 1345TIP3   OH225525   5.335   4.621   4.328 -0.1509 -0.0185  0.4412
 1345TIP3    H125526   5.375   4.702   4.298 -0.4388 -0.1421 -0.2849
 1345TIP3    H225527   5.382   4.600   4.409 -0.5569  1.2402  1.0142
 1346TIP3   OH225528   2.356   0.759  14.754 -0.4107  0.5001  0.1463
 1346TIP3    H125529   2.350   0.784  14.662 -0.5000  0.1976  0.0685
 1346TIP3    H225530   2.266   0.738  14.779 -0.2474 -0.3671  0.0285
 1347TIP3   OH225531   3.996   5.192  15.172 -0.3620 -0.3138  0.4162
 1347TIP3    H125532   4.091   5.194  15.166 -0.3673  0.5979  0.4456
 1347TIP3    H225533   3.976   5.110  15.216  0.4834 -0.0118  1.4125
 1348TIP3   OH225534   3.080   1.580   1.034 -0.3924 -1.2086 -0.2291
 1348TIP3    H125535   3.095   1.602   1.126 -1.7408  1.6569 -0.5716
 1348TIP3    H225536   2.985   1.576   1.026 -0.3135 -0.8482 -1.5874
 1349TIP3   OH225537   6.020   6.472  14.848 -0.4440  0.0351 -0.0025
 1349TIP3    H125538   5.929   6.463  14.820 -0.9231  3.0705  0.2454
 1349TIP3    H225539   6.030   6.565  14.868  2.3846 -0.4262  1.2148
 1350TIP3   OH225540   4.493   5.356   1.013  1.1021 -0.1572 -0.0275
 1350TIP3    H125541   4.560   5.294   1.039  0.8708  0.7040  3.0115
 1350TIP3    H225542   4.451   5.382   1.095 -0.0161  2.6260 -1.3456
 1351TIP3   OH225543   3.270   3.612   2.680  0.5651  0.0342  0.0253
 1351TIP3    H125544   3.200   3.648   2.626  1.2763 -0.1328 -1.0294
 1351TIP3    H225545   3.249   3.519   2.689  0.2564  0.1314  0.3573
 1352TIP3   OH225546   3.745   5.258  12.277 -0.1052 -0.8235 -0.2159
 1352TIP3    H125547   3.837   5.283  12.284 -0.0697 -0.2612 -2.1949
 1352TIP3    H225548   3.709   5.274  12.364  0.9642  1.8756 -0.1915
 1353TIP3   OH225549   2.345   4.777  10.666  0.2177 -0.4084 -0.6903
 1353TIP3    H125550   2.268   4.721  10.674 -0.9152  1.0444 -1.0468
 1353TIP3    H225551   2.414   4.731  10.714 -1.8121  0.0100  2.9585
 1354TIP3   OH225552   4.694   1.596   1.029 -0.4915  0.2925 -0.2196
 1354TIP3    H125553   4.685   1.616   0.936 -0.8404  0.6410 -0.1129
 1354TIP3    H225554   4.708   1.501   1.032 -0.1063  0.3350 -0.6494
 1355TIP3   OH225555   6.204   6.242  13.656  0.1152  0.6054 -0.1364
 1355TIP3    H125556   6.206   6.199  13.570 -1.1170 -1.3150  0.7251
 1355TIP3    H225557   6.254   6.184  13.713  0.4688  1.5868  0.5762
 1356TIP3   OH225558   1.134   6.093  14.059  0.9501 -0.3056  0.3637
 1356TIP3    H125559   1.152   6.175  14.015  0.1345 -0.7872 -0.9261
 1356TIP3    H225560   1.077   6.045  13.999  1.0474 -1.6339  1.2766
 1357TIP3   OH225561   5.649   3.801  16.333 -0.5388  0.5279  0.0360
 1357TIP3    H125562   5.645   3.725  16.275  0.3231 -0.5766  1.3484
 1357TIP3    H225563   5.650   3.876  16.275  0.6557 -0.5421 -1.3989
 1358TIP3   OH225564   0.581   1.518   3.107  0.4999  0.0265  0.1022
 1358TIP3    H125565   0.664   1.471   3.115  1.1324  1.3337  1.6074
 1358TIP3    H225566   0.606   1.608   3.087 -0.5697  0.4268  0.5096
 1359TIP3   OH225567   0.352   3.320   3.845  0.3398  0.1030  0.3256
 1359TIP3    H125568   0.397   3.244   3.882  0.3069 -0.6917 -1.1778
 1359TIP3    H225569   0.417   3.390   3.850  1.0081 -0.4887  0.1077
 1360TIP3   OH225570   5.999   0.930   0.813  0.0338  0.3986  0.4068
 1360TIP3    H125571   6.079   0.982   0.822  0.0353  0.3501  0.7077
 1360TIP3    H225572   5.931   0.982   0.856 -0.0497  0.3381  0.3490
 1361TIP3   OH225573   3.280   6.777  13.683  0.1024 -0.4257 -0.2629
 1361TIP3    H125574   3.286   6.698  13.629  0.1368  0.5704 -1.7650
 1361TIP3    H225575   3.208   6.759  13.743  1.2794 -2.3120  0.6648
 1362TIP3   OH225576   2.003   5.354   4.452  0.1916 -0.2360  0.1746
 1362TIP3    H125577   2.056   5.274   4.448  1.0132  0.3257 -0.6433
 1362TIP3    H225578   2.067   5.424   4.466 -0.2790  0.4944 -1.1099
 1363TIP3   OH225579   6.503   5.788   5.500 -0.3800 -0.4624  0.0595
 1363TIP3    H125580   6.578   5.825   5.547 -0.1213 -1.5748  0.5618
 1363TIP3    H225581   6.435   5.777   5.567 -0.7882 -0.0256 -0.2720
 1364TIP3   OH225582   1.565   3.634  11.699  0.0456  0.2889  0.1235
 1364TIP3    H125583   1.630   3.569  11.672  0.6164 -0.2556  2.5983
 1364TIP3    H225584   1.555   3.621  11.793 -1.7707  2.0824  0.2526
 1365TIP3   OH225585   4.121   1.618  15.218  0.3986  0.1683 -0.2146
 1365TIP3    H125586   4.155   1.695  15.172 -1.2652  0.0787 -1.6741
 1365TIP3    H225587   4.120   1.549  15.152  1.2177 -0.9716  0.8953
 1366TIP3   OH225588   2.407   0.736   5.624  0.2767 -0.5718  0.1364
 1366TIP3    H125589   2.477   0.789   5.664 -0.5719 -0.7398  1.9369
 1366TIP3    H225590   2.389   0.780   5.541  2.0563 -0.1562 -0.0859
 1367TIP3   OH225591   0.097   3.654   6.560  0.3714 -0.0203 -0.6624
 1367TIP3    H125592   0.009   3.688   6.578  0.6649  0.0535  0.7492
 1367TIP3    H225593   0.128   3.705   6.486 -0.5276  0.3874 -0.7733
 1368TIP3   OH225594   3.519   1.527   1.626 -0.4592  0.7383  0.5666
 1368TIP3    H125595   3.558   1.600   1.579  0.3955  1.1523  1.8904
 1368TIP3    H225596   3.425   1.537   1.612 -0.3343  1.9439  0.5202
 1369TIP3   OH225597   0.758   0.590  12.034 -0.0180 -0.0555  0.4666
 1369TIP3    H125598   0.806   0.668  12.008  0.5866 -0.2638  0.9262
 1369TIP3    H225599   0.771   0.529  11.961  1.4711 -0.5518  1.1048
 1370TIP3   OH225600   5.835   2.053   3.313  0.2836  0.2845  0.2305
 1370TIP3    H125601   5.776   1.994   3.266 -1.1566  0.0245  2.2492
 1370TIP3    H225602   5.912   1.999   3.332 -0.8185 -0.8655  1.6416
 1371TIP3   OH225603   4.121   2.318  17.077  0.5735 -0.2652  0.1819
 1371TIP3    H125604   4.166   2.339  17.159  1.3969  2.2868 -0.8191
 1371TIP3    H225605   4.126   2.399  17.026  1.2057 -2.1224 -2.9142
 1372TIP3   OH225606   2.305   0.545  10.564  0.2394  0.2264  0.3691
 1372TIP3    H125607   2.328   0.577  10.477 -2.1439  1.3746  0.0727
 1372TIP3    H225608   2.338   0.455  10.567  0.5677  0.2490 -1.6414
 1373TIP3   OH225609   6.551   6.341   2.532 -0.4389  0.0905  0.3516
 1373TIP3    H125610   6.463   6.377   2.547 -0.8185 -0.3491 -0.7582
 1373TIP3    H225611   6.601   6.369   2.609 -0.6057  3.3034 -0.5727
 1374TIP3   OH225612   4.561   5.456  14.602 -0.5615  0.0792  0.1952
 1374TIP3    H125613   4.509   5.535  14.611 -0.2294  0.3978 -0.6452
 1374TIP3    H225614   4.640   5.473  14.654 -1.3637 -0.5052  1.6897
 1375TIP3   OH225615   4.731   3.818   2.492  0.3175  0.2389  0.3163
 1375TIP3    H125616   4.775   3.878   2.431  0.2575  0.1465  0.1814
 1375TIP3    H225617   4.796   3.749   2.507  0.6188  0.6435  0.9455
 1376TIP3   OH225618   2.443   0.911  17.053 -0.4733 -0.9498 -0.2361
 1376TIP3    H125619   2.538   0.908  17.047 -0.3173  0.4295  0.9656
 1376TIP3    H225620   2.425   0.962  17.132 -2.1919  1.1994 -1.8782
 1377TIP3   OH225621   3.222   0.306   3.213  0.6995  0.0596  0.2633
 1377TIP3    H125622   3.247   0.223   3.254 -0.8826 -0.1599  0.8186
 1377TIP3    H225623   3.127   0.307   3.217  0.6944  1.8812  0.1941
 1378TIP3   OH225624   0.867   2.420  12.572 -0.0353 -0.5766 -0.2064
 1378TIP3    H125625   0.877   2.329  12.542  0.1376 -0.0038 -2.0248
 1378TIP3    H225626   0.938   2.433  12.634  2.3623 -0.6364 -2.7217
 1379TIP3   OH225627   1.480   0.977   1.438 -0.3640 -0.2646 -0.5753
 1379TIP3    H125628   1.386   0.963   1.450  0.0133 -1.8963  1.0003
 1379TIP3    H225629   1.496   1.064   1.474 -1.0732 -0.5523  0.4978
 1380TIP3   OH225630   5.903   5.706   5.036  0.0633 -0.3138 -1.0308
 1380TIP3    H125631   5.876   5.660   5.115 -0.4393  0.2886 -0.8383
 1380TIP3    H225632   5.831   5.692   4.974 -0.6157  1.0976 -0.5997
 1381TIP3   OH225633   0.608   2.690   1.972 -0.5475  0.1016  0.0802
 1381TIP3    H125634   0.671   2.711   1.904 -0.2959 -3.2376 -0.8960
 1381TIP3    H225635   0.651   2.716   2.054  1.3664 -0.5285 -0.6777
 1382TIP3   OH225636   3.781   6.717  14.886  0.0140  0.0721  0.5463
 1382TIP3    H125637   3.778   6.636  14.834 -1.3528  0.4746 -0.0532
 1382TIP3    H225638   3.744   6.692  14.971  0.0874 -0.0614  0.5395
 1383TIP3   OH225639   1.531   3.216  12.512  0.4068  0.3369  0.0819
 1383TIP3    H125640   1.563   3.259  12.433  0.5596 -1.8140 -1.0905
 1383TIP3    H225641   1.441   3.191  12.491 -0.3569  1.7071  1.4632
 1384TIP3   OH225642   0.891   1.367   1.449  0.2874  0.1445 -0.5521
 1384TIP3    H125643   0.881   1.302   1.519  1.3433  0.4181 -0.1300
 1384TIP3    H225644   0.853   1.325   1.372  0.5838 -0.8126 -0.1926
 1385TIP3   OH225645   6.096   5.139  11.782  0.3648  0.6941  0.1337
 1385TIP3    H125646   6.021   5.199  11.781  0.5586  0.9483  0.4363
 1385TIP3    H225647   6.108   5.118  11.875  0.2456  0.1194  0.0172
 1386TIP3   OH225648   5.703   4.097   1.582  0.0701  0.3689  0.1259
 1386TIP3    H125649   5.751   4.177   1.600 -1.0176  1.1029 -0.1761
 1386TIP3    H225650   5.654   4.080   1.663 -1.5275  1.3366 -0.5920
 1387TIP3   OH225651   6.269   5.304   0.329  1.3616 -0.3282 -0.2780
 1387TIP3    H125652   6.318   5.374   0.374  0.7102  0.2941 -0.5245
 1387TIP3    H225653   6.311   5.298   0.243  0.7533  0.5056 -0.6503
 1388TIP3   OH225654   4.445   6.573  12.083  0.2444  0.1860  0.3280
 1388TIP3    H125655   4.354   6.592  12.104 -0.2988  0.0329 -1.6804
 1388TIP3    H225656   4.465   6.492  12.130 -0.6752  0.1863  0.7305
 1389TIP3   OH225657   2.475   5.881  14.150 -0.2027 -0.3779  0.1320
 1389TIP3    H125658   2.441   5.930  14.075  0.7956  0.7247  0.3575
 1389TIP3    H225659   2.496   5.795  14.114 -1.4954 -0.4987 -0.4054
 1390TIP3   OH225660   1.024   2.625  11.535  0.0371 -0.1453  0.2301
 1390TIP3    H125661   0.957   2.677  11.580  1.1559 -0.1116  1.9177
 1390TIP3    H225662   1.079   2.690  11.491 -0.1940 -0.0909  0.0151
 1391TIP3   OH225663   2.602   4.113  13.381 -0.4700  0.3041  0.3661
 1391TIP3    H125664   2.510   4.107  13.354 -0.3315 -3.3863  0.0929
 1391TIP3    H225665   2.643   4.170  13.316 -2.1592  0.1498 -0.8925
 1392TIP3   OH225666   6.682   1.821  14.914  0.7236 -0.0568  0.5300
 1392TIP3    H125667   6.626   1.787  14.985  0.9049  0.7914  1.0970
 1392TIP3    H225668   6.730   1.744  14.884 -0.4762 -0.7434  0.2658
 1393TIP3   OH225669   4.153   1.290  16.406 -0.8187  0.7515  0.1895
 1393TIP3    H125670   4.240   1.272  16.370 -1.1284  1.1769 -0.8077
 1393TIP3    H225671   4.094   1.233  16.357 -1.1184  0.4909  0.8362
 1394TIP3   OH225672   1.738   4.703  16.410  0.2352  0.3870 -0.1818
 1394TIP3    H125673   1.719   4.648  16.334 -0.3874 -0.0420  0.2762
 1394TIP3    H225674   1.815   4.754  16.384  0.5348 -0.3551 -0.7878
 1395TIP3   OH225675   3.039   0.560  15.862 -0.3615  0.2757 -0.2273
 1395TIP3    H125676   3.114   0.602  15.819  0.3813 -1.4118 -0.6716
 1395TIP3    H225677   3.025   0.479  15.813 -1.4613 -0.2133  0.8320
 1396TIP3   OH225678   3.640   2.218  14.916 -0.7359 -0.2818 -0.4119
 1396TIP3    H125679   3.582   2.246  14.845  1.5132  3.4513 -1.0198
 1396TIP3    H225680   3.686   2.141  14.880 -2.5566 -1.0185 -1.3051
 1397TIP3   OH225681   1.458   1.669   4.117 -0.1468 -1.0029  0.1918
 1397TIP3    H125682   1.379   1.647   4.066 -2.0582  2.9087  1.1046
 1397TIP3    H225683   1.526   1.680   4.050 -0.8052 -2.5333 -0.8079
 1398TIP3   OH225684   6.128   4.695  17.037  0.1184 -0.0669  0.1636
 1398TIP3    H125685   6.100   4.781  17.068  1.4006  0.4685 -0.1108
 1398TIP3    H225686   6.133   4.704  16.942  0.0544 -0.5179  0.1129
 1399TIP3   OH225687   3.351   1.756   2.126 -0.3843 -0.7427 -0.1706
 1399TIP3    H125688   3.384   1.667   2.115 -2.0745 -1.7356  1.8210
 1399TIP3    H225689   3.300   1.773   2.047  1.9528 -0.5060 -1.7028
 1400TIP3   OH225690   0.226   3.561  15.397  0.3246  0.1521  0.2310
 1400TIP3    H125691   0.255   3.650  15.381 -0.6815  0.5690  0.6305
 1400TIP3    H225692   0.271   3.508  15.330  0.1913  1.0884 -0.6208
 1401TIP3   OH225693   2.385   5.329  12.093 -0.0492  0.0282 -0.0947
 1401TIP3    H125694   2.336   5.255  12.056 -0.4415  1.2362 -2.1505
 1401TIP3    H225695   2.438   5.361  12.021  2.7095 -0.2594  1.6536
 1402TIP3   OH225696   1.624   6.000   5.794 -0.5133  0.3520 -0.3964
 1402TIP3    H125697   1.544   5.948   5.788 -1.3718  1.4450  1.0622
 1402TIP3    H225698   1.597   6.089   5.770  0.4257  0.5880 -0.6125
 1403TIP3   OH225699   2.554   5.284  10.982  0.0667  0.1441 -0.0698
 1403TIP3    H125700   2.495   5.360  10.979  0.3746  0.4152  0.5174
 1403TIP3    H225701   2.581   5.279  11.074 -0.2298 -0.8969 -0.0361
 1404TIP3   OH225702   2.509   0.381  15.054  0.3351  0.5693  0.3236
 1404TIP3    H125703   2.464   0.425  15.126  1.0395  0.4210  0.8670
 1404TIP3    H225704   2.450   0.391  14.979 -0.4481  0.6579  0.9335
 1405TIP3   OH225705   4.436   1.872   5.323  0.2920 -0.2276  0.6642
 1405TIP3    H125706   4.497   1.799   5.329 -1.0249 -1.4086  0.2397
 1405TIP3    H225707   4.468   1.925   5.250  1.7700  0.1529  1.5431
 1406TIP3   OH225708   5.842   5.089  10.644  0.1963  0.3795 -0.1396
 1406TIP3    H125709   5.887   5.172  10.661  1.0506  0.1500 -1.1357
 1406TIP3    H225710   5.758   5.114  10.607  0.7680  0.8131 -1.1859
 1407TIP3   OH225711   4.846   5.370  14.892  0.3511  0.3465 -0.3285
 1407TIP3    H125712   4.891   5.419  14.823 -0.4929  0.6979 -0.6414
 1407TIP3    H225713   4.787   5.311  14.845 -0.6616  1.0061  0.0944
 1408TIP3   OH225714   0.524   6.663  15.989 -1.0619  0.2036 -0.5026
 1408TIP3    H125715   0.523   6.756  16.008 -2.9899  0.2250 -0.5363
 1408TIP3    H225716   0.591   6.653  15.922  0.1369  1.3310  0.4745
 1409TIP3   OH225717   0.064   3.980   1.044  0.1041  0.2213  0.4284
 1409TIP3    H125718   0.146   4.028   1.054 -0.2271  0.7389  0.6621
 1409TIP3    H225719   0.029   4.009   0.959  0.0188  0.2173  0.4618
 1410TIP3   OH225720   5.007   2.296  13.677  0.4667 -0.3600 -0.4294
 1410TIP3    H125721   5.063   2.234  13.723 -1.2609 -1.9932 -0.4040
 1410TIP3    H225722   4.935   2.243  13.644  0.4920  1.0990 -3.1743
 1411TIP3   OH225723   6.227   5.340  11.995 -0.7985  0.3925  0.5819
 1411TIP3    H125724   6.298   5.358  12.057 -1.1393 -2.2402  1.9071
 1411TIP3    H225725   6.269   5.336  11.910  0.5148 -0.2223  1.2323
 1412TIP3   OH225726   5.569   5.267   4.682 -0.0446 -0.2864 -0.3240
 1412TIP3    H125727   5.524   5.254   4.765  1.4250  4.1550  1.5007
 1412TIP3    H225728   5.657   5.298   4.706  1.0416 -0.4198 -3.5708
 1413TIP3   OH225729   1.552   1.190   1.056 -0.3435  0.1483  0.5479
 1413TIP3    H125730   1.554   1.105   1.099  0.4441 -0.1372 -0.0271
 1413TIP3    H225731   1.599   1.248   1.115  0.5526 -0.1968  0.1951
 1414TIP3   OH225732   0.092   6.434  14.700 -0.5922  0.4320 -0.1670
 1414TIP3    H125733   0.133   6.464  14.619 -0.1610  0.1578 -0.0539
 1414TIP3    H225734   0.024   6.499  14.718 -1.1575  0.1230 -1.1152
 1415TIP3   OH225735   3.145   5.851   2.987  0.3494 -0.1816  0.0186
 1415TIP3    H125736   3.104   5.883   2.907  0.4538 -0.1423 -0.0195
 1415TIP3    H225737   3.072   5.828   3.044  0.2769 -0.4046 -0.1653
 1416TIP3   OH225738   5.229   0.809  16.234 -0.5384  1.0678 -0.7629
 1416TIP3    H125739   5.305   0.803  16.176 -0.3457  1.0576 -0.5087
 1416TIP3    H225740   5.160   0.762  16.187  0.0162 -0.1958 -0.3394
 1417TIP3   OH225741   0.484   3.408  12.495 -0.3069 -0.0327 -0.6670
 1417TIP3    H125742   0.465   3.406  12.589 -0.0211 -0.6472 -0.6131
 1417TIP3    H225743   0.564   3.459  12.488  0.4223 -1.0981 -0.4181
 1418TIP3   OH225744   4.458   5.123  17.000 -0.5222 -0.0651 -0.2619
 1418TIP3    H125745   4.550   5.126  16.975 -0.7110  1.0000 -0.9121
 1418TIP3    H225746   4.459   5.098  17.092  0.4385  0.2496 -0.1748
 1419TIP3   OH225747   6.085   1.266  14.054 -0.5204 -0.1653  0.4348
 1419TIP3    H125748   6.020   1.268  14.124 -0.4912  1.0481  0.4505
 1419TIP3    H225749   6.136   1.346  14.066  1.4326 -1.4108  0.8301
 1420TIP3   OH225750   2.085   5.770   2.258  0.3977 -0.5081  0.8105
 1420TIP3    H125751   2.025   5.844   2.268 -0.5064 -1.0120 -0.5164
 1420TIP3    H225752   2.141   5.773   2.335 -0.3514  0.8913  1.3285
 1421TIP3   OH225753   5.838   3.670  16.153 -0.5855 -0.1930  0.6189
 1421TIP3    H125754   5.918   3.723  16.159 -0.0102 -0.8787 -0.7893
 1421TIP3    H225755   5.787   3.712  16.084  0.1920 -1.8489 -1.0123
 1422TIP3   OH225756   0.636   3.301   3.381  0.0723 -0.0647  0.1969
 1422TIP3    H125757   0.687   3.357   3.439  2.0750 -0.5695 -0.9882
 1422TIP3    H225758   0.682   3.217   3.381 -0.6447 -0.4866 -1.0709
 1423TIP3   OH225759   1.944   0.532   0.894  0.4060 -0.5471  0.0675
 1423TIP3    H125760   1.867   0.532   0.838  0.5751 -1.0007 -0.1665
 1423TIP3    H225761   1.986   0.447   0.878  2.2852  0.6070 -1.6502
 1424TIP3   OH225762   2.694   0.311  14.596 -0.6189 -0.6402 -0.2725
 1424TIP3    H125763   2.713   0.379  14.661 -0.8387 -1.3296  0.5309
 1424TIP3    H225764   2.712   0.353  14.511  1.3788 -0.2525  0.2800
 1425TIP3   OH225765   0.091   0.240  13.992 -0.2197 -0.5507 -0.2492
 1425TIP3    H125766   0.185   0.244  14.006 -0.4036  3.9016  1.2500
 1425TIP3    H225767   0.080   0.253  13.897  0.6618  0.4504 -0.2270
 1426TIP3   OH225768   1.894   4.634   0.334  0.8208  0.7172  0.0705
 1426TIP3    H125769   1.887   4.673   0.421  0.7429  0.9923 -0.0590
 1426TIP3    H225770   1.834   4.685   0.279  2.3354  1.8636 -0.6142
 1427TIP3   OH225771   1.143   6.393   1.589 -0.2231 -0.1599 -0.2061
 1427TIP3    H125772   1.155   6.476   1.634 -0.2877 -0.6615  0.7546
 1427TIP3    H225773   1.052   6.370   1.603 -0.1587 -0.4885 -0.3134
 1428TIP3   OH225774   3.807   4.920  13.529  0.1184  0.1886  0.2447
 1428TIP3    H125775   3.881   4.868  13.560  0.4664  0.5804  0.0717
 1428TIP3    H225776   3.779   4.971  13.605  2.1561  2.5683 -0.4948
 1429TIP3   OH225777   5.823   3.938  12.115 -0.5132  0.3091  0.0384
 1429TIP3    H125778   5.832   3.925  12.209  2.2798 -1.3313 -0.3283
 1429TIP3    H225779   5.742   3.893  12.091 -1.3803  0.9551  1.6390
 1430TIP3   OH225780   3.784   3.199  13.460 -0.2376  0.2154  0.0250
 1430TIP3    H125781   3.819   3.276  13.416 -1.4911  1.8380  1.7065
 1430TIP3    H225782   3.703   3.179  13.412 -0.6671  0.8735  0.4571
 1431TIP3   OH225783   3.326   6.067  16.525  0.3491 -0.1553  0.0926
 1431TIP3    H125784   3.287   6.054  16.611 -0.0226  0.7743  0.0754
 1431TIP3    H225785   3.413   6.101  16.543 -0.5675  2.3542  0.1237
 1432TIP3   OH225786   4.116   3.322   3.970  1.0234 -0.2481 -0.1069
 1432TIP3    H125787   4.207   3.349   3.962  0.3395  1.8420 -1.7842
 1432TIP3    H225788   4.066   3.402   3.957 -1.0759 -1.2952  1.0480
 1433TIP3   OH225789   5.485   1.935   0.613 -0.4142 -0.5834  0.2026
 1433TIP3    H125790   5.401   1.962   0.651  0.0162 -0.3014  0.9955
 1433TIP3    H225791   5.495   1.991   0.536 -0.6197 -0.0852  0.5258
 1434TIP3   OH225792   6.450   1.909   1.209 -0.0758 -0.0703 -0.1687
 1434TIP3    H125793   6.495   1.845   1.264 -1.0747 -0.0585  0.6756
 1434TIP3    H225794   6.391   1.857   1.155 -1.0848  0.1502  0.7069
 1435TIP3   OH225795   1.380   0.521  16.046  0.0720  0.0240 -0.6964
 1435TIP3    H125796   1.379   0.521  16.141  0.5542 -0.4168 -0.6897
 1435TIP3    H225797   1.291   0.495  16.021 -0.8736  2.7080 -0.4042
 1436TIP3   OH225798   1.243   2.542  15.344 -0.2507 -0.6083 -0.3832
 1436TIP3    H125799   1.265   2.484  15.272 -0.4885 -0.7444 -0.3482
 1436TIP3    H225800   1.303   2.517  15.415 -0.1869 -0.6447 -0.4502
 1437TIP3   OH225801   1.072   5.901   6.746 -0.6155  0.0811  0.1417
 1437TIP3    H125802   1.071   5.997   6.741 -1.4636  0.0787  0.1171
 1437TIP3    H225803   0.984   5.877   6.773 -0.5275 -0.7196 -0.2375
 1438TIP3   OH225804   6.730   4.226   2.151 -0.2054  0.1364  0.2673
 1438TIP3    H125805   6.746   4.131   2.145 -4.7156 -0.7888 -0.8229
 1438TIP3    H225806   6.727   4.243   2.245 -2.2934 -1.5966  0.6087
 1439TIP3   OH225807   0.882   3.607  11.386 -0.6559 -0.1733  0.2915
 1439TIP3    H125808   0.906   3.639  11.299 -1.2926  0.7852  0.4406
 1439TIP3    H225809   0.802   3.556  11.371 -0.7236 -0.0701  0.2942
 1440TIP3   OH225810   1.059   1.951   4.438 -0.1577  0.6750 -0.3937
 1440TIP3    H125811   1.037   2.036   4.400  0.3562  1.0799  0.1929
 1440TIP3    H225812   1.110   1.972   4.517 -1.7996 -0.1159  0.9451
 1441TIP3   OH225813   2.793   2.072  13.072 -0.2992 -0.0513  0.6363
 1441TIP3    H125814   2.885   2.097  13.074  0.0251 -1.0442 -0.6802
 1441TIP3    H225815   2.790   1.993  13.018 -2.0567  0.5637 -0.2577
 1442TIP3   OH225816   1.304   6.389   5.935  0.0141  0.0341 -0.1708
 1442TIP3    H125817   1.216   6.400   5.898  0.2544  1.0712 -0.4478
 1442TIP3    H225818   1.296   6.311   5.990 -0.4050 -1.4628 -2.2327
 1443TIP3   OH225819   2.649   4.945   1.109 -0.3225 -0.5584  0.2140
 1443TIP3    H125820   2.641   4.922   1.017 -1.2491  1.7227 -0.3615
 1443TIP3    H225821   2.743   4.965   1.121 -0.7068  3.1392 -1.4492
 1444TIP3   OH225822   5.389   3.831  11.641 -0.2596 -0.4437 -0.1984
 1444TIP3    H125823   5.383   3.737  11.621 -1.0420 -0.8662  1.7461
 1444TIP3    H225824   5.321   3.871  11.587  0.5034 -0.8659 -1.5309
 1445TIP3   OH225825   0.375   3.653   3.167 -0.8567 -0.1857  0.5932
 1445TIP3    H125826   0.405   3.640   3.078 -2.1090  0.2378  0.0879
 1445TIP3    H225827   0.455   3.655   3.220 -0.0660  0.2216 -0.5916
 1446TIP3   OH225828   5.489   4.448  15.071  0.0911 -0.0761  0.4192
 1446TIP3    H125829   5.567   4.504  15.077  0.6308 -0.8349  0.6669
 1446TIP3    H225830   5.441   4.464  15.152  0.2091  0.0716  0.4616
 1447TIP3   OH225831   6.724   3.033   2.225  0.5283 -0.2316  0.1480
 1447TIP3    H125832   6.814   3.022   2.256  0.9043 -1.1396 -1.1807
 1447TIP3    H225833   6.670   2.994   2.295  1.1025  0.8703  1.2369
 1448TIP3   OH225834   2.380   5.475   4.022  0.1018 -0.3629 -0.0425
 1448TIP3    H125835   2.302   5.438   4.064 -0.3654  1.5962  0.9210
 1448TIP3    H225836   2.365   5.464   3.928 -1.8368  0.8757  0.0834
 1449TIP3   OH225837   6.489   4.112   4.600  0.6239  0.4493  0.3313
 1449TIP3    H125838   6.513   4.177   4.666 -1.0732  0.9134  0.5488
 1449TIP3    H225839   6.514   4.028   4.639  1.2726  0.8531  0.7906
 1450TIP3   OH225840   0.908   2.679   0.068 -0.0699 -0.1097  0.3146
 1450TIP3    H125841   0.856   2.703  -0.009  1.3719  0.0568 -0.6667
 1450TIP3    H225842   0.903   2.584   0.071 -1.3302 -0.0375  0.9128
 1451TIP3   OH225843   3.481   0.631  10.175 -0.0682 -0.3541 -0.2351
 1451TIP3    H125844   3.440   0.608  10.091  1.7990 -0.9496 -1.0349
 1451TIP3    H225845   3.525   0.552  10.203  0.8085  0.3472  0.4134
 1452TIP3   OH225846   5.662   4.403  11.783 -0.2009  0.4212 -0.3298
 1452TIP3    H125847   5.657   4.495  11.811  1.1809  0.3595  0.2162
 1452TIP3    H225848   5.628   4.403  11.694  0.2023  1.5570 -0.5016
 1453TIP3   OH225849   5.425   2.491   0.048 -0.2439 -0.2532 -0.4387
 1453TIP3    H125850   5.414   2.465   0.140 -0.9318  0.0840 -0.4188
 1453TIP3    H225851   5.335   2.499   0.016 -0.0020 -0.3837 -1.1465
 1454TIP3   OH225852   5.009   1.954  15.052  0.3278 -0.6352  0.5048
 1454TIP3    H125853   5.005   1.985  15.142 -0.3369 -1.3328  0.7136
 1454TIP3    H225854   5.009   2.035  15.000 -2.4105 -0.2214  1.0048
 1455TIP3   OH225855   1.991   6.473  17.112 -0.1070  1.0915  0.9361
 1455TIP3    H125856   1.907   6.428  17.121  1.1516 -1.8214 -0.7414
 1455TIP3    H225857   2.052   6.421  17.163  1.4722  0.6208 -1.3029
 1456TIP3   OH225858   2.739   4.135  15.476  0.0545  0.2364 -0.2418
 1456TIP3    H125859   2.817   4.079  15.477 -0.0061  0.1208 -0.9413
 1456TIP3    H225860   2.709   4.131  15.385  0.0267  1.3682 -0.3007
 1457TIP3   OH225861   3.429   3.317  12.917  0.3653 -0.8161 -0.2066
 1457TIP3    H125862   3.402   3.274  12.998  0.5499  1.6550  1.2569
 1457TIP3    H225863   3.348   3.334  12.870  0.2909 -2.7367 -0.8949
 1458TIP3   OH225864   3.606   2.642  16.700 -0.0365 -0.2807 -0.6929
 1458TIP3    H125865   3.638   2.554  16.719  1.1162  0.6491  2.1115
 1458TIP3    H225866   3.510   2.634  16.705 -0.1016 -1.8170 -3.0120
 1459TIP3   OH225867   2.267   3.404  13.570  0.1582 -0.1616  0.0442
 1459TIP3    H125868   2.259   3.348  13.493 -0.5449 -1.7234  1.1870
 1459TIP3    H225869   2.178   3.436  13.585 -0.1404 -1.4600  1.2943
 1460TIP3   OH225870   1.798   0.969   5.804 -0.2627 -0.2604  0.0159
 1460TIP3    H125871   1.733   0.900   5.788 -0.2994 -0.0951 -0.5843
 1460TIP3    H225872   1.747   1.041   5.842  0.0126 -1.0659  2.0094
 1461TIP3   OH225873   6.611   0.922   0.071  0.6503 -0.0911 -0.4492
 1461TIP3    H125874   6.660   0.840   0.067  0.2285 -0.5633  2.2025
 1461TIP3    H225875   6.528   0.898   0.110 -0.7867  1.1294 -2.5665
 1462TIP3   OH225876   4.095   4.162   4.778  0.1609  0.1435  0.4115
 1462TIP3    H125877   4.041   4.115   4.841  0.9002  0.1421  1.0633
 1462TIP3    H225878   4.049   4.245   4.763 -0.5685 -0.3098  0.1212
 1463TIP3   OH225879   0.976   5.910   5.837 -0.1217 -0.2264 -0.5524
 1463TIP3    H125880   0.888   5.948   5.829 -0.9462 -1.1033  2.7033
 1463TIP3    H225881   1.018   5.962   5.905  0.4991 -2.0608  0.5318
 1464TIP3   OH225882   6.491   3.903   3.913  0.0095 -0.2011  0.4617
 1464TIP3    H125883   6.548   3.867   3.981 -0.5574 -0.7286  0.6644
 1464TIP3    H225884   6.403   3.902   3.951  0.2062  3.7376  1.4401
 1465TIP3   OH225885   3.267   1.336  16.711 -0.5820 -0.0340  0.4036
 1465TIP3    H125886   3.358   1.362  16.725 -0.3120 -1.4086  1.4771
 1465TIP3    H225887   3.270   1.278  16.635 -0.3184 -1.0933  1.1875
 1466TIP3   OH225888   0.384   2.262   1.513  0.0590  0.2455 -0.3342
 1466TIP3    H125889   0.350   2.251   1.602 -2.0905 -0.2012 -1.1336
 1466TIP3    H225890   0.461   2.206   1.510 -0.1416 -0.1515  1.0981
 1467TIP3   OH225891   4.871   6.688  13.152 -0.2633 -0.7045 -0.0493
 1467TIP3    H125892   4.849   6.767  13.201 -0.8657 -0.4311 -0.7463
 1467TIP3    H225893   4.878   6.620  13.219 -0.8151 -0.2864  0.4485
 1468TIP3   OH225894   4.087   3.476  15.093 -0.6689 -0.0629  0.4064
 1468TIP3    H125895   4.176   3.494  15.064 -0.9441 -1.0123 -1.1221
 1468TIP3    H225896   4.054   3.561  15.124  0.8137  0.2533  1.2239
 1469TIP3   OH225897   4.591   3.639  11.387  0.1968 -0.1411 -0.4648
 1469TIP3    H125898   4.516   3.676  11.342 -0.3390 -0.8713 -0.1907
 1469TIP3    H225899   4.662   3.644  11.323  0.8336  3.4885  0.2980
 1470TIP3   OH225900   6.433   0.367   2.525 -0.0589 -0.5910  0.4883
 1470TIP3    H125901   6.373   0.426   2.479 -0.7884 -0.6859  1.2734
 1470TIP3    H225902   6.517   0.411   2.522 -0.0686 -0.6327 -0.9792
 1471TIP3   OH225903   2.122   0.364   0.744  0.1303  0.1192 -0.4250
 1471TIP3    H125904   2.115   0.292   0.682  1.5363  1.3343 -2.0818
 1471TIP3    H225905   2.189   0.335   0.807 -0.6498 -0.7482  0.0251
 1472TIP3   OH225906   5.116   5.517   0.105 -0.3306  0.2388 -0.1698
 1472TIP3    H125907   5.173   5.591   0.128  0.6415 -0.5573  0.0751
 1472TIP3    H225908   5.062   5.503   0.183  0.6389 -0.3449  0.4192
 1473TIP3   OH225909   1.739   2.747   5.590 -0.7480  0.2964 -0.0786
 1473TIP3    H125910   1.804   2.678   5.604 -2.9013 -2.0610 -0.8977
 1473TIP3    H225911   1.681   2.740   5.666 -1.1932  0.9746 -0.3539
 1474TIP3   OH225912   5.901   1.967  11.976 -0.2020  0.2872  0.1668
 1474TIP3    H125913   5.850   2.043  11.946 -1.2998 -0.6500 -0.3901
 1474TIP3    H225914   5.840   1.917  12.030  0.0636 -0.9537 -0.6535
 1475TIP3   OH225915   1.765   0.908  13.061 -0.2311  0.5069 -0.3706
 1475TIP3    H125916   1.788   0.816  13.050 -1.3069  0.4045 -2.1021
 1475TIP3    H225917   1.840   0.946  13.108  1.3666 -0.7461 -1.7969
 1476TIP3   OH225918   6.038   2.352   3.847 -0.2462  0.3275  0.0506
 1476TIP3    H125919   5.974   2.286   3.821  1.0582 -1.0836  0.3257
 1476TIP3    H225920   6.092   2.365   3.769 -0.0326  0.5149  0.2283
 1477TIP3   OH225921   5.210   5.477  15.369 -0.0187 -0.4416 -0.5772
 1477TIP3    H125922   5.178   5.391  15.342  0.4590 -0.2952 -1.6368
 1477TIP3    H225923   5.131   5.530  15.375 -0.2200 -0.7132 -0.7977
 1478TIP3   OH225924   4.166   0.226   4.644  0.1075  0.3664  0.2681
 1478TIP3    H125925   4.187   0.133   4.648  0.9016  0.5766  1.8692
 1478TIP3    H225926   4.219   0.260   4.571  3.0430  0.2698  2.2067
 1479TIP3   OH225927   1.869   4.160  12.315  0.0673 -0.6115 -0.5000
 1479TIP3    H125928   1.915   4.118  12.387 -0.4201 -0.0688  0.1520
 1479TIP3    H225929   1.793   4.104  12.299 -0.5470 -0.0427  0.3247
 1480TIP3   OH225930   4.502   2.272   5.781  0.5089  0.4098 -0.7713
 1480TIP3    H125931   4.483   2.317   5.863  0.4698  2.4501 -1.8364
 1480TIP3    H225932   4.573   2.211   5.803 -1.2317 -1.0173  1.2996
 1481TIP3   OH225933   2.326   0.763  12.938 -0.1252 -0.8600 -0.3458
 1481TIP3    H125934   2.276   0.683  12.927 -1.0297 -0.4513  0.6287
 1481TIP3    H225935   2.418   0.736  12.933 -0.3688 -2.2501  1.6905
 1482TIP3   OH225936   2.027   0.944  13.280 -0.0495  0.1154  0.0064
 1482TIP3    H125937   2.108   0.981  13.315 -0.4949  2.0769 -0.9084
 1482TIP3    H225938   2.035   0.952  13.185 -0.5386 -1.4189 -0.1900
 1483TIP3   OH225939   2.117   2.944   2.654  0.0976 -0.1082  0.0396
 1483TIP3    H125940   2.080   2.858   2.670  1.1435 -0.4862  0.5019
 1483TIP3    H225941   2.175   2.932   2.579  0.2133  0.2129  0.0749
 1484TIP3   OH225942   5.059   2.105   2.268 -0.4362  0.0344 -0.2176
 1484TIP3    H125943   5.053   2.158   2.189  0.1167  0.7429  0.2095
 1484TIP3    H225944   5.128   2.041   2.249  1.3207  1.6316  0.4873
 1485TIP3   OH225945   3.059   4.547  12.324 -0.1817  0.0201 -0.1127
 1485TIP3    H125946   3.017   4.633  12.323  0.0801  0.1470 -0.8790
 1485TIP3    H225947   2.996   4.490  12.367 -0.7963  0.3812 -0.5259
 1486TIP3   OH225948   4.966   3.490  12.437  0.2798  0.1266  0.3942
 1486TIP3    H125949   4.907   3.455  12.504  0.6846 -0.6764  0.3437
 1486TIP3    H225950   4.923   3.470  12.354 -0.3862  1.4215  0.3987
 1487TIP3   OH225951   3.323   0.114  16.718  0.2462  0.1061 -0.2110
 1487TIP3    H125952   3.351   0.032  16.676 -0.7522 -0.7091  0.6507
 1487TIP3    H225953   3.289   0.167  16.645 -0.1829 -0.7223 -0.6294
 1488TIP3   OH225954   2.226   6.757   4.339 -0.0071  0.0688  0.2209
 1488TIP3    H125955   2.264   6.679   4.299  0.8383  0.1356  0.8787
 1488TIP3    H225956   2.258   6.829   4.286 -0.3370  0.0147 -0.0528
 1489TIP3   OH225957   0.146   5.345   2.343 -0.0633  0.0615 -0.2065
 1489TIP3    H125958   0.094   5.423   2.361  1.2618  0.6039  1.5961
 1489TIP3    H225959   0.135   5.290   2.421  1.0951 -0.3398 -0.2995
 1490TIP3   OH225960   3.442   6.790   0.561  0.1998 -0.6494  0.1750
 1490TIP3    H125961   3.394   6.727   0.615 -0.6486  0.6396  0.9951
 1490TIP3    H225962   3.404   6.781   0.474 -2.1639  0.8319  0.9464
 1491TIP3   OH225963   2.949   3.299  14.525  0.4313 -0.2305  0.4128
 1491TIP3    H125964   2.891   3.357  14.476  1.9744 -0.8582 -2.3603
 1491TIP3    H225965   2.896   3.222  14.544 -0.4274  0.3638  0.4953
 1492TIP3   OH225966   0.502   0.533  13.516  0.6801  0.6454 -0.2409
 1492TIP3    H125967   0.559   0.513  13.590 -0.6611  2.1375  1.2936
 1492TIP3    H225968   0.433   0.466  13.519  0.8632  0.4508 -0.4016
 1493TIP3   OH225969   4.441   3.002  11.851  0.2637  0.1078 -0.5958
 1493TIP3    H125970   4.407   3.065  11.914  2.8350  1.6432 -0.6003
 1493TIP3    H225971   4.530   3.032  11.832  0.6422 -1.9970 -2.7098
 1494TIP3   OH225972   6.818   6.487  13.877 -0.1570 -0.1308 -0.0533
 1494TIP3    H125973   6.737   6.531  13.850 -0.9229 -1.3959  0.1259
 1494TIP3    H225974   6.805   6.396  13.852  1.1603 -0.3778  0.1286
 1495TIP3   OH225975   2.282   3.028   2.401 -0.2527 -0.3203  0.4280
 1495TIP3    H125976   2.217   2.973   2.357  0.3115 -2.1108  1.7200
 1495TIP3    H225977   2.358   2.970   2.412  0.8500  1.1377  0.6882
 1496TIP3   OH225978   0.441   2.104  15.059 -0.1871 -0.6586  0.2816
 1496TIP3    H125979   0.517   2.086  15.115  1.9178  0.1061 -2.1408
 1496TIP3    H225980   0.407   2.017  15.037  1.8924 -1.2068 -0.9976
 1497TIP3   OH225981   5.241   4.788   0.270  0.0419  0.5517  0.1085
 1497TIP3    H125982   5.169   4.845   0.244  0.5779  0.7691 -0.9898
 1497TIP3    H225983   5.259   4.811   0.361 -1.2567  0.5022  0.3852
 1498TIP3   OH225984   4.892   2.439  11.024  0.4378  0.2274  0.1764
 1498TIP3    H125985   4.965   2.498  11.041  0.6275  0.1863 -0.4666
 1498TIP3    H225986   4.858   2.467  10.939 -0.0911  0.0420  0.3277
 1499TIP3   OH225987   3.945   5.866   1.539  0.7928 -0.2643  0.2664
 1499TIP3    H125988   3.882   5.852   1.610  0.9675 -1.0129  0.2886
 1499TIP3    H225989   4.014   5.919   1.577 -0.4904  1.7899 -0.1471
 1500TIP3   OH225990   6.618   4.953  10.423  0.4262  0.3448 -0.9668
 1500TIP3    H125991   6.574   4.960  10.508 -1.3168  0.8132 -1.8630
 1500TIP3    H225992   6.583   4.873  10.384  0.7878  0.4322 -1.4831
 1501TIP3   OH225993   3.396   0.471   1.548 -0.4975  0.0536  0.2143
 1501TIP3    H125994   3.383   0.406   1.617  2.7480 -0.9073  0.1034
 1501TIP3    H225995   3.308   0.495   1.520 -1.8573 -2.7618  1.6898
 1502TIP3   OH225996   5.126   6.174   3.765  0.0591 -0.0907  0.5223
 1502TIP3    H125997   5.048   6.229   3.762 -0.0798 -0.3292 -0.4396
 1502TIP3    H225998   5.137   6.142   3.675  1.2239 -0.1134  0.6595
 1503TIP3   OH225999   1.247   3.135  12.163 -0.4120  0.3406 -0.4194
 1503TIP3    H126000   1.265   3.142  12.069  0.9734 -0.9191 -0.2894
 1503TIP3    H226001   1.231   3.042  12.177 -1.7575  0.6806  0.4274
 1504TIP3   OH226002   6.094   1.424   3.929 -0.0353 -0.4752 -0.4794
 1504TIP3    H126003   6.002   1.399   3.941 -0.4230  0.9237 -0.4504
 1504TIP3    H226004   6.096   1.471   3.846 -0.3425  3.8088  1.6466
 1505TIP3   OH226005   1.081   0.273   2.054 -0.1589 -0.4759 -0.1002
 1505TIP3    H126006   1.113   0.343   2.111  2.5526 -1.7295  0.0838
 1505TIP3    H226007   0.996   0.304   2.022 -0.3840  1.5811  2.2308
 1506TIP3   OH226008   4.702   2.067   2.339 -0.4812  0.5945 -0.4708
 1506TIP3    H126009   4.779   2.050   2.393 -2.3214 -0.2299  2.0729
 1506TIP3    H226010   4.707   2.161   2.319  0.3768  0.8958  1.0103
 1507TIP3   OH226011   0.896   6.421   4.838 -0.3475  0.1610 -0.1794
 1507TIP3    H126012   0.886   6.467   4.754  0.2619  1.1689  0.2809
 1507TIP3    H226013   0.912   6.490   4.901  1.5800 -0.7567  0.3886
 1508TIP3   OH226014   2.063   6.380  14.087  0.1578 -0.4702  0.3459
 1508TIP3    H126015   2.100   6.328  14.016  0.6325 -0.9175  0.9102
 1508TIP3    H226016   1.970   6.384  14.068  0.2972 -0.4775 -0.3657
 1509TIP3   OH226017   6.404   0.296   4.605  0.0845 -0.2100 -0.9920
 1509TIP3    H126018   6.486   0.249   4.618 -0.9143 -1.8717 -0.4170
 1509TIP3    H226019   6.385   0.284   4.512  0.6357  0.4414 -1.1935
 1510TIP3   OH226020   1.430   4.380  16.562  0.4530 -0.5752  0.7029
 1510TIP3    H126021   1.410   4.427  16.643  0.5184 -0.3380  0.5822
 1510TIP3    H226022   1.346   4.343  16.535  0.3308 -0.2378  0.6158
 1511TIP3   OH226023   6.122   4.490   4.430  0.4141 -0.1488  0.0207
 1511TIP3    H126024   6.120   4.433   4.507  1.3092 -1.2968 -0.7794
 1511TIP3    H226025   6.043   4.466   4.381 -0.1104  0.5221  0.5090
 1512TIP3   OH226026   5.074   1.411  16.085  0.2236  0.0656  0.0334
 1512TIP3    H126027   4.983   1.418  16.113  0.2711  0.8288  0.0229
 1512TIP3    H226028   5.115   1.355  16.150  0.1752  1.2567  1.1127
 1513TIP3   OH226029   3.716   6.532  15.595 -0.2487  0.4183 -0.6958
 1513TIP3    H126030   3.770   6.453  15.586 -0.6636  0.1714 -1.0065
 1513TIP3    H226031   3.661   6.515  15.671  0.0727  0.6526 -0.4068
 1514TIP3   OH226032   6.598   5.567  10.973 -0.1409  0.0905  0.4890
 1514TIP3    H126033   6.543   5.499  10.935  2.1279 -2.0003  0.7311
 1514TIP3    H226034   6.620   5.624  10.899 -0.3888 -0.6584 -0.1781
 1515TIP3   OH226035   1.555   5.114  13.067  0.1163  0.0249  0.6165
 1515TIP3    H126036   1.465   5.081  13.071  0.4694 -0.8990  1.9854
 1515TIP3    H226037   1.562   5.158  12.982 -0.6473 -2.7580 -1.0030
 1516TIP3   OH226038   1.575   2.083  16.697 -0.3641  0.0454 -0.3537
 1516TIP3    H126039   1.491   2.129  16.706  0.4615  1.4632  0.5111
 1516TIP3    H226040   1.588   2.043  16.783  1.2275  2.4087  0.6338
 1517TIP3   OH226041   1.932   0.145  16.143  0.1794 -0.2823 -0.3539
 1517TIP3    H126042   1.843   0.179  16.155 -0.0714 -0.8814 -0.4446
 1517TIP3    H226043   1.987   0.198  16.200 -0.4604 -0.8479  0.8155
 1518TIP3   OH226044   4.765   2.599   2.592  0.1011 -0.0319 -0.5978
 1518TIP3    H126045   4.857   2.578   2.610 -0.3434 -0.9544  0.8125
 1518TIP3    H226046   4.716   2.552   2.660 -1.5328 -0.7523 -2.1713
 1519TIP3   OH226047   4.884   6.469  12.541 -0.5095 -0.0685  0.0380
 1519TIP3    H126048   4.963   6.523  12.548 -0.3562 -0.3377  0.4198
 1519TIP3    H226049   4.816   6.518  12.587 -0.4738 -0.0083  0.0254
 1520TIP3   OH226050   4.835   0.902   0.326  0.1390 -0.2728 -1.0822
 1520TIP3    H126051   4.775   0.876   0.256 -0.4521  0.1086 -0.7176
 1520TIP3    H226052   4.803   0.858   0.404  0.3825 -0.1380 -0.9047
 1521TIP3   OH226053   3.205   1.312   3.047  0.1550 -0.2624  0.1138
 1521TIP3    H126054   3.172   1.397   3.018  0.8347 -0.1976 -0.4779
 1521TIP3    H226055   3.175   1.304   3.138 -0.8469  0.1230 -0.1681
 1522TIP3   OH226056   2.555   3.819   0.158 -0.3871  0.1123  0.1523
 1522TIP3    H126057   2.650   3.821   0.148 -0.5292  1.1588 -1.3951
 1522TIP3    H226058   2.524   3.891   0.103 -2.0442  0.1578  1.0910
 1523TIP3   OH226059   0.789   0.257  13.119 -0.1199 -0.2219  0.0550
 1523TIP3    H126060   0.809   0.272  13.026 -0.0805  2.0966  0.3669
 1523TIP3    H226061   0.835   0.328  13.164 -0.4029 -1.1257  1.8238
 1524TIP3   OH226062   2.607   1.397  14.079  0.0307 -0.2772 -0.4559
 1524TIP3    H126063   2.680   1.441  14.122 -1.3455  1.3967  0.3173
 1524TIP3    H226064   2.644   1.316  14.045  2.4599  0.9601 -0.9827
 1525TIP3   OH226065   5.024   4.786  15.275  0.4704  0.3309  0.1055
 1525TIP3    H126066   5.111   4.776  15.236  0.5420 -1.3036  0.6264
 1525TIP3    H226067   5.036   4.852  15.343  1.0502  0.9142 -0.5480
 1526TIP3   OH226068   1.640   6.407   3.060  0.0602  0.2581 -0.0264
 1526TIP3    H126069   1.652   6.492   3.103  1.5463 -0.0571  0.2723
 1526TIP3    H226070   1.631   6.345   3.133  0.3502 -0.0017 -0.2095
 1527TIP3   OH226071   6.257   3.552   4.491  0.1796 -0.1379  0.2151
 1527TIP3    H126072   6.234   3.621   4.429  0.3798 -0.5630 -0.3321
 1527TIP3    H226073   6.255   3.596   4.576  0.3008  0.5427 -0.1248
 1528TIP3   OH226074   4.182   2.560  16.314 -0.4965 -0.5804  0.4198
 1528TIP3    H126075   4.180   2.615  16.392  0.7684 -0.2148  0.2133
 1528TIP3    H226076   4.208   2.474  16.346  0.5127 -0.3146  0.3667
 1529TIP3   OH226077   5.730   0.109  12.191  0.3056 -0.6590 -0.3713
 1529TIP3    H126078   5.690   0.196  12.190 -1.1412 -1.3106 -1.4413
 1529TIP3    H226079   5.767   0.099  12.103  0.7607 -1.0090 -0.1450
 1530TIP3   OH226080   5.824   1.953   4.279  0.6221  0.4230  0.6751
 1530TIP3    H126081   5.827   1.876   4.335 -3.1252 -2.6397 -2.7882
 1530TIP3    H226082   5.752   2.005   4.314  0.4197  0.2103  0.5724
 1531TIP3   OH226083   5.125   5.568   4.011 -0.2439  0.2742  0.2304
 1531TIP3    H126084   5.186   5.496   3.998 -0.4296  0.2313 -0.4509
 1531TIP3    H226085   5.039   5.528   4.007 -0.5070  0.8834 -3.2073
 1532TIP3   OH226086   6.765   3.021   5.822  0.1298  0.4018 -0.3563
 1532TIP3    H126087   6.835   2.969   5.862  0.3585  1.1099  0.1876
 1532TIP3    H226088   6.686   2.968   5.834  0.4252 -0.0097 -0.1890
 1533TIP3   OH226089   0.119   4.920   4.824  0.1950 -0.1624  0.1690
 1533TIP3    H126090   0.052   4.956   4.883  0.6768 -0.1596  0.7294
 1533TIP3    H226091   0.202   4.950   4.862  0.5828 -1.4560  0.3834
 1534TIP3   OH226092   2.365   2.760  16.745 -0.0773  0.5031  0.2855
 1534TIP3    H126093   2.400   2.671  16.736  0.7485  1.0445 -4.2056
 1534TIP3    H226094   2.433   2.816  16.709 -2.1856  2.5057 -0.8679
 1535TIP3   OH226095   5.660   3.184   3.445  0.2657 -0.0376  0.3702
 1535TIP3    H126096   5.708   3.265   3.463  0.7082 -0.1293 -0.3721
 1535TIP3    H226097   5.724   3.114   3.459 -0.3291 -0.3401  1.8150
 1536TIP3   OH226098   4.835   5.816  16.269  0.3835  0.2299 -0.2979
 1536TIP3    H126099   4.881   5.765  16.336 -0.5307  0.3289  0.4283
 1536TIP3    H226100   4.846   5.766  16.188  1.6155  0.1736 -0.1072
 1537TIP3   OH226101   0.854   6.319  13.608 -0.2104  0.1168 -0.3815
 1537TIP3    H126102   0.833   6.320  13.701  0.3439 -0.5754 -0.2385
 1537TIP3    H226103   0.887   6.230  13.592 -1.1877 -0.0688 -1.4373
 1538TIP3   OH226104   6.739   6.328   3.207 -0.3418  0.3851 -0.2754
 1538TIP3    H126105   6.680   6.397   3.177 -0.7293 -0.4421 -1.5085
 1538TIP3    H226106   6.692   6.285   3.279  0.2232  1.8532  1.0050
 1539TIP3   OH226107   5.835   0.493  15.998 -0.3263 -0.4817 -0.5337
 1539TIP3    H126108   5.814   0.403  15.971  0.0598 -0.7923  0.1799
 1539TIP3    H226109   5.930   0.492  16.011 -0.4913 -0.3264  0.7485
 1540TIP3   OH226110   1.557   3.726   6.592  0.6731 -0.0206  0.1801
 1540TIP3    H126111   1.609   3.797   6.554 -0.5194  0.9991  0.3620
 1540TIP3    H226112   1.497   3.700   6.521 -0.8365  1.1593  0.9499
 1541TIP3   OH226113   3.121   4.092   4.670  0.3227  0.4753  0.4764
 1541TIP3    H126114   3.029   4.116   4.655 -0.7367 -3.5357 -0.9510
 1541TIP3    H226115   3.163   4.104   4.585  0.2255 -0.7551  0.2350
 1542TIP3   OH226116   0.587   0.427  14.339 -1.0867  0.1665  0.3918
 1542TIP3    H126117   0.552   0.455  14.423 -0.5736  0.7516  0.4152
 1542TIP3    H226118   0.682   0.427  14.351 -1.0436 -1.2601  0.2887
 1543TIP3   OH226119   1.570   0.946  14.932 -0.3922  0.3123 -0.6146
 1543TIP3    H126120   1.604   1.032  14.907 -1.5795  0.4800 -1.7502
 1543TIP3    H226121   1.488   0.937  14.884 -0.4400 -1.3472 -0.2985
 1544TIP3   OH226122   3.354   1.384   3.920 -0.4791  0.2672 -0.2919
 1544TIP3    H126123   3.408   1.413   3.994 -1.0714 -0.4986  0.4603
 1544TIP3    H226124   3.278   1.441   3.922  0.8482  2.2659 -2.1844
 1545TIP3   OH226125   1.852   4.506   4.314  0.0866 -0.5652 -0.2264
 1545TIP3    H126126   1.919   4.444   4.344  2.6365  1.3128 -1.6002
 1545TIP3    H226127   1.885   4.536   4.229 -3.2362 -0.4592 -1.6119
 1546TIP3   OH226128   2.452   1.262   1.005 -0.3429 -0.1252  0.2914
 1546TIP3    H126129   2.516   1.224   1.064  0.0475 -0.3825 -0.2825
 1546TIP3    H226130   2.415   1.187   0.958 -0.2857  0.1122 -0.1412
 1547TIP3   OH226131   0.651   1.979  13.836  0.3477  0.4005 -0.0817
 1547TIP3    H126132   0.648   1.889  13.804  1.8312  0.5461 -0.7452
 1547TIP3    H226133   0.577   2.023  13.795  0.3211 -0.2349 -0.7132
 1548TIP3   OH226134   1.324   2.075   0.881  0.0824  0.4074 -0.1221
 1548TIP3    H126135   1.246   2.100   0.831  0.0398  1.0206  0.2424
 1548TIP3    H226136   1.307   1.985   0.907 -0.3383  0.4111 -0.3700
 1549TIP3   OH226137   5.562   1.246   0.210 -0.6800  0.5133  0.1582
 1549TIP3    H126138   5.503   1.273   0.281  1.3323 -1.2523  2.7251
 1549TIP3    H226139   5.547   1.152   0.201  2.5429 -0.3647  2.0110
 1550TIP3   OH226140   4.417   4.839  13.840 -0.2984 -0.3862  0.3514
 1550TIP3    H126141   4.451   4.754  13.811 -1.5293 -1.2245  1.2596
 1550TIP3    H226142   4.323   4.824  13.852 -0.5690  1.1716  0.3314
 1551TIP3   OH226143   1.918   2.141   3.507  0.2092  0.2725 -0.6001
 1551TIP3    H126144   1.993   2.082   3.518  0.7710  1.3243  1.8642
 1551TIP3    H226145   1.885   2.121   3.419  0.4081 -3.6170  0.0176
 1552TIP3   OH226146   5.386   6.798   2.571  0.1441  0.2617 -0.0236
 1552TIP3    H126147   5.318   6.837   2.516  0.3487 -1.0174 -1.2323
 1552TIP3    H226148   5.426   6.872   2.616 -0.8418  1.2197 -0.6768
 1553TIP3   OH226149   6.707   3.691   5.462  0.0294  0.5003 -0.2725
 1553TIP3    H126150   6.620   3.708   5.497 -0.3118 -0.6351 -0.5247
 1553TIP3    H226151   6.725   3.600   5.485  0.7303  0.4128 -1.0900
 1554TIP3   OH226152   4.640   4.862   6.925 -0.0322 -0.5852 -0.6077
 1554TIP3    H126153   4.636   4.770   6.950 -1.7725 -0.4869 -0.4003
 1554TIP3    H226154   4.602   4.864   6.837 -1.5190  0.1080  0.0159
 1555TIP3   OH226155   4.803   3.575   0.831  0.0176 -0.8367  0.2644
 1555TIP3    H126156   4.846   3.546   0.751  1.5564 -0.4033  0.8741
 1555TIP3    H226157   4.715   3.539   0.827 -0.3976  0.2747 -2.2351
 1556TIP3   OH226158   6.508   1.415   1.862  0.1765 -0.2351  0.2382
 1556TIP3    H126159   6.464   1.492   1.896 -0.6708 -0.2108 -0.8482
 1556TIP3    H226160   6.437   1.358   1.832  0.8256 -0.9608  0.0466
 1557TIP3   OH226161   5.316   5.415  12.806  0.9468 -0.0726 -0.2398
 1557TIP3    H126162   5.280   5.481  12.746 -1.9003 -1.4508 -0.2258
 1557TIP3    H226163   5.324   5.336  12.753  0.8309 -0.6606  0.5959
 1558TIP3   OH226164   3.691   0.998  12.888 -0.0839  0.9123 -0.6659
 1558TIP3    H126165   3.632   1.011  12.814 -1.1166  1.0829  0.1620
 1558TIP3    H226166   3.746   1.077  12.889 -1.6653  2.0632  0.1544
 1559TIP3   OH226167   2.249   6.188  11.017  0.2197 -0.2169  0.2332
 1559TIP3    H126168   2.336   6.227  11.013 -0.9422  2.6481  0.4906
 1559TIP3    H226169   2.265   6.094  11.017  3.2505  0.1946 -0.5318
 1560TIP3   OH226170   5.788   2.812  15.678 -0.3049  0.1399 -0.2863
 1560TIP3    H126171   5.733   2.869  15.732  1.9535 -0.5354  3.0242
 1560TIP3    H226172   5.742   2.728  15.678 -0.9130  0.4594 -0.5128
 1561TIP3   OH226173   3.349   4.546   2.920 -0.1680  0.0735 -0.4137
 1561TIP3    H126174   3.356   4.460   2.877 -1.5547 -0.6386  0.7062
 1561TIP3    H226175   3.394   4.535   3.003  0.4521  0.7355 -0.6522
 1562TIP3   OH226176   3.721   6.713  11.603  0.1991 -0.0049  0.4953
 1562TIP3    H126177   3.755   6.746  11.519 -1.0726  0.9485  0.3238
 1562TIP3    H226178   3.760   6.626  11.611 -0.2359 -0.4427 -1.4790
 1563TIP3   OH226179   6.274   4.318  15.480 -0.2416  0.3243 -0.3280
 1563TIP3    H126180   6.235   4.241  15.439  0.1408  0.8131 -1.6665
 1563TIP3    H226181   6.199   4.371  15.507 -0.5060 -0.1473 -0.1430
 1564TIP3   OH226182   5.098   6.498  10.990 -0.0110  0.0194 -0.5714
 1564TIP3    H126183   5.160   6.507  10.917 -1.8184 -2.2289 -2.5343
 1564TIP3    H226184   5.134   6.427  11.043 -1.0484 -1.6546 -2.0005
 1565TIP3   OH226185   4.614   1.009  11.858 -0.4911  0.1136 -0.4342
 1565TIP3    H126186   4.638   0.975  11.944 -2.7475  1.2705  0.7449
 1565TIP3    H226187   4.556   0.942  11.821  1.9018 -1.2607 -1.9608
 1566TIP3   OH226188   6.675   6.477   0.357  0.0462 -0.4642 -0.3771
 1566TIP3    H126189   6.682   6.520   0.442 -0.8507 -1.6155  0.2910
 1566TIP3    H226190   6.757   6.429   0.347  0.6379  0.5684 -0.6978
 1567TIP3   OH226191   5.676   1.250  13.665 -0.2695 -0.7603 -0.0203
 1567TIP3    H126192   5.606   1.222  13.606 -0.6731 -0.7025  0.4212
 1567TIP3    H226193   5.731   1.172  13.676 -1.0887 -1.2413  0.7841
 1568TIP3   OH226194   4.749   3.237   3.431  0.0504 -0.4951  0.1374
 1568TIP3    H126195   4.694   3.182   3.374  0.7668 -1.3871  0.2851
 1568TIP3    H226196   4.686   3.290   3.480 -0.6282 -0.6255 -0.5689
 1569TIP3   OH226197   5.558   5.283  13.530  0.9267  0.1993  0.1227
 1569TIP3    H126198   5.569   5.191  13.552 -0.4320  0.3320  1.4829
 1569TIP3    H226199   5.574   5.287  13.435  0.1896 -1.5699 -0.1170
 1570TIP3   OH226200   0.867   6.273   5.445  0.4143 -0.0202  0.0738
 1570TIP3    H126201   0.829   6.186   5.459  0.1809  0.3083  1.5922
 1570TIP3    H226202   0.942   6.276   5.503 -1.0696  1.7099  2.0524
 1571TIP3   OH226203   3.440   0.654   4.304  0.1095 -0.2089  0.9795
 1571TIP3    H126204   3.498   0.596   4.354 -1.8446 -2.6609  0.6105
 1571TIP3    H226205   3.365   0.599   4.281 -1.1689  2.0833 -0.7964
 1572TIP3   OH226206   1.098   2.973   2.755 -0.2986  0.1539  1.0521
 1572TIP3    H126207   1.108   3.060   2.716 -0.2025 -0.3986 -0.2182
 1572TIP3    H226208   1.004   2.959   2.756 -0.2776 -0.0804  0.4051
 1573TIP3   OH226209   1.982   3.787  13.704 -0.5609  0.5420 -0.2252
 1573TIP3    H126210   1.962   3.762  13.614  1.1782  0.8994 -0.7388
 1573TIP3    H226211   1.984   3.883  13.703 -1.6243  0.5832  0.4560
 1574TIP3   OH226212   6.748   6.002   4.660 -0.0221 -0.8760 -0.5496
 1574TIP3    H126213   6.798   6.078   4.628 -0.0623 -0.4855  0.2946
 1574TIP3    H226214   6.732   5.950   4.581  0.0032 -0.0092 -1.1473
 1575TIP3   OH226215   1.101   6.145   1.747 -0.8003 -0.1020  0.0822
 1575TIP3    H126216   1.162   6.218   1.763 -1.4261  0.7473 -1.2185
 1575TIP3    H226217   1.049   6.139   1.827  0.3175 -0.1748  0.8153
 1576TIP3   OH226218   4.823   4.142   3.297 -0.8897  0.2760 -0.6681
 1576TIP3    H126219   4.909   4.103   3.315 -0.8664  0.0331 -1.2880
 1576TIP3    H226220   4.810   4.204   3.369  0.3531  1.2051 -1.1972
 1577TIP3   OH226221   4.903   5.958   1.862 -0.2666 -0.4443  0.4612
 1577TIP3    H126222   4.878   5.865   1.859  1.7112 -1.0428  0.7122
 1577TIP3    H226223   4.983   5.963   1.810 -0.0002  1.0104  0.9583
 1578TIP3   OH226224   3.418   4.021  13.746 -0.2791  0.0280  0.4603
 1578TIP3    H126225   3.372   4.029  13.662  0.6348  0.4406 -0.0176
 1578TIP3    H226226   3.409   4.107  13.787 -0.4842 -0.0865  0.6542
 1579TIP3   OH226227   1.311   4.609  14.110  0.1517 -0.1398 -0.2724
 1579TIP3    H126228   1.369   4.686  14.114 -2.0127  1.7952 -2.5602
 1579TIP3    H226229   1.339   4.562  14.031  1.4011 -1.7982  1.0659
 1580TIP3   OH226230   4.350   3.247  13.934 -0.1132  0.3339 -0.6268
 1580TIP3    H126231   4.445   3.257  13.929 -0.1570  1.9178  0.8711
 1580TIP3    H226232   4.334   3.154  13.915  2.0091 -0.7718  2.2968
 1581TIP3   OH226233   0.703   3.361  11.356 -0.6630  0.5997 -0.2060
 1581TIP3    H126234   0.663   3.335  11.273 -0.8259 -0.9890  0.3380
 1581TIP3    H226235   0.781   3.305  11.363 -0.8151  0.5092  0.8433
 1582TIP3   OH226236   5.654   0.694  15.201 -0.4755 -0.2812  0.3714
 1582TIP3    H126237   5.612   0.688  15.287 -0.5126  0.0778  0.3813
 1582TIP3    H226238   5.737   0.739  15.218 -0.3609 -0.4510  0.2601
 1583TIP3   OH226239   4.393   2.330  17.201 -0.8222 -0.6033 -0.1812
 1583TIP3    H126240   4.357   2.407  17.245 -2.7243 -1.5387  0.0059
 1583TIP3    H226241   4.454   2.365  17.137 -1.0150  1.0095  0.4668
 1584TIP3   OH226242   1.657   1.731  11.901  0.1707  0.0263 -0.1791
 1584TIP3    H126243   1.564   1.741  11.878  0.1775 -0.0341 -0.2316
 1584TIP3    H226244   1.702   1.721  11.817  0.4748  2.0662 -0.3195
 1585TIP3   OH226245   2.645   4.785   4.148  0.0966  0.8332  0.5433
 1585TIP3    H126246   2.594   4.708   4.125 -1.8827  2.1423  0.2576
 1585TIP3    H226247   2.639   4.842   4.071  2.6114  0.7952  0.2288
 1586TIP3   OH226248   0.938   0.001  14.051 -0.1092 -0.1696  0.0786
 1586TIP3    H126249   0.904   0.048  13.974  1.2435  1.8632  0.6498
 1586TIP3    H226250   0.885   0.033  14.124 -1.6666 -2.4010  0.0411
 1587TIP3   OH226251   2.287   5.039  17.027  0.3206  0.1482 -0.3078
 1587TIP3    H126252   2.330   4.955  17.017  0.0357 -0.3393  1.9851
 1587TIP3    H226253   2.315   5.090  16.951 -0.0211 -2.1810 -2.1173
 1588TIP3   OH226254   4.591   5.487   5.278  0.4965 -0.6335  0.1557
 1588TIP3    H126255   4.658   5.533   5.228  0.4350 -0.3675  0.3201
 1588TIP3    H226256   4.508   5.524   5.249  0.2273 -2.4626 -1.6693
 1589TIP3   OH226257   1.344   6.302   1.795  0.3499 -0.3260  0.4849
 1589TIP3    H126258   1.431   6.270   1.820  1.0414  2.3358  1.8545
 1589TIP3    H226259   1.352   6.398   1.797 -1.7207  0.0768 -2.6792
 1590TIP3   OH226260   5.744   5.219  15.317 -0.2636 -0.0994 -0.3274
 1590TIP3    H126261   5.812   5.287  15.312  0.7217 -1.0761 -0.5830
 1590TIP3    H226262   5.780   5.153  15.376 -1.2973 -0.3116  0.0833
 1591TIP3   OH226263   2.899   2.271  12.394 -0.4985 -0.0358  0.1068
 1591TIP3    H126264   2.893   2.265  12.489 -1.7589  1.3021  0.1557
 1591TIP3    H226265   2.909   2.365  12.377  1.2023 -0.3879 -1.0350
 1592TIP3   OH226266   4.904   2.980   5.427 -0.1606 -0.0774  0.1526
 1592TIP3    H126267   4.834   2.977   5.492 -0.5900  2.1023 -0.1251
 1592TIP3    H226268   4.902   2.893   5.385  0.0094 -1.4768  2.8402
 1593TIP3   OH226269   4.226   0.124   5.641  0.1454  0.5110  0.2090
 1593TIP3    H126270   4.163   0.157   5.577  0.4170  0.3287 -0.1573
 1593TIP3    H226271   4.297   0.188   5.640 -0.1699  0.8772  0.8445
 1594TIP3   OH226272   6.043   3.479  17.247 -0.6007 -0.4758  0.4931
 1594TIP3    H126273   6.047   3.575  17.248 -0.3600 -0.4416 -0.9011
 1594TIP3    H226274   5.950   3.459  17.247 -0.6536 -0.2634  1.2190
 1595TIP3   OH226275   5.872   3.312  15.118  0.1995 -0.0135 -0.1835
 1595TIP3    H126276   5.896   3.220  15.131 -0.3117 -0.2216 -0.6692
 1595TIP3    H226277   5.851   3.318  15.025 -0.5209  0.4161 -0.0003
 1596TIP3   OH226278   5.515   0.636  13.362 -0.1272  0.1355  0.1909
 1596TIP3    H126279   5.451   0.705  13.382  1.2072  0.9516  2.0034
 1596TIP3    H226280   5.473   0.556  13.393 -1.0248  0.3780 -0.3708
 1597TIP3   OH226281   0.448   3.003   2.218 -0.2952  0.0856 -0.1144
 1597TIP3    H126282   0.387   3.021   2.146 -2.1444 -0.5574  1.2250
 1597TIP3    H226283   0.512   3.075   2.213  1.4912 -1.4303 -4.1442
 1598TIP3   OH226284   4.351   2.887  12.753  0.5407  0.1939  0.0650
 1598TIP3    H126285   4.335   2.958  12.690  0.9564  0.2544  0.0267
 1598TIP3    H226286   4.349   2.807  12.700  0.3354  0.1977  0.0658
 1599TIP3   OH226287   3.796   5.751   6.368  0.0345  0.3605  0.3333
 1599TIP3    H126288   3.882   5.760   6.327 -0.3937  0.7099 -0.5049
 1599TIP3    H226289   3.749   5.830   6.341 -1.5014 -1.0958 -1.5202
 1600TIP3   OH226290   2.956   4.729  15.969  0.6273  0.5653 -0.4227
 1600TIP3    H126291   2.931   4.648  16.014 -0.8602  0.5782 -1.1479
 1600TIP3    H226292   2.966   4.793  16.040  1.2229 -0.0993  0.1052
 1601TIP3   OH226293   4.094   6.525  11.766  0.2278  0.1909  0.0334
 1601TIP3    H126294   4.079   6.587  11.694  1.8120  0.1410 -0.3638
 1601TIP3    H226295   4.189   6.520  11.775  0.1716 -2.2357  0.0023
 1602TIP3   OH226296   6.331   3.233  15.147  0.7107  0.4555  0.4213
 1602TIP3    H126297   6.318   3.140  15.168  2.5515 -0.1101 -0.6757
 1602TIP3    H226298   6.284   3.280  15.216 -0.0760 -1.2765  1.1361
 1603TIP3   OH226299   3.927   3.916  16.177  0.2049 -0.3081 -0.0448
 1603TIP3    H126300   3.897   3.995  16.222  0.2985 -0.5827  0.5155
 1603TIP3    H226301   3.885   3.920  16.091 -0.5319 -0.1112  0.3126
 1604TIP3   OH226302   6.370   3.896  11.492 -0.8910 -0.3433  0.1778
 1604TIP3    H126303   6.392   3.974  11.442  1.2442 -1.4711 -0.7939
 1604TIP3    H226304   6.449   3.877  11.543 -0.6818 -2.7573 -0.8859
 1605TIP3   OH226305   6.650   3.381  13.428 -0.1097 -0.6764  0.0474
 1605TIP3    H126306   6.607   3.296  13.420 -3.2958  0.8461 -0.6747
 1605TIP3    H226307   6.619   3.431  13.352 -0.0688  1.7826  1.5371
 1606TIP3   OH226308   3.477   0.231  15.233 -0.0552  0.3689 -0.1171
 1606TIP3    H126309   3.383   0.225  15.215 -0.2010  2.1680 -0.1940
 1606TIP3    H226310   3.485   0.215  15.327  0.0788 -3.6673 -0.6601
 1607TIP3   OH226311   4.731   1.922   1.374 -0.3224 -0.3430  0.1778
 1607TIP3    H126312   4.716   1.915   1.468  0.2268  0.0528  0.3043
 1607TIP3    H226313   4.678   1.853   1.335 -0.5555 -0.5052  0.7791
 1608TIP3   OH226314   5.204   4.973  15.616 -0.0017  0.0764 -0.2888
 1608TIP3    H126315   5.235   4.903  15.559 -0.3431  0.8161 -1.4207
 1608TIP3    H226316   5.202   4.934  15.703 -0.8933 -1.5612 -0.9897
 1609TIP3   OH226317   6.173   5.087  12.856 -0.4703  0.3934  0.5285
 1609TIP3    H126318   6.126   5.155  12.808  1.0929 -0.0750 -1.8313
 1609TIP3    H226319   6.120   5.008  12.842 -0.2396  0.3452 -0.1253
 1610TIP3   OH226320   6.675   1.517   3.456 -0.3488 -0.8008 -0.5021
 1610TIP3    H126321   6.609   1.450   3.437 -0.5158 -0.6468 -0.4609
 1610TIP3    H226322   6.639   1.566   3.529 -0.1614 -0.7533 -0.4424
 1611TIP3   OH226323   6.498   1.580   4.122 -0.2823 -0.1003 -0.8986
 1611TIP3    H126324   6.497   1.488   4.094 -0.8107  0.3887 -2.6567
 1611TIP3    H226325   6.407   1.600   4.143 -0.1836  0.0436 -0.6096
 1612TIP3   OH226326   2.741   4.110   1.894 -0.4057 -0.3539 -0.2639
 1612TIP3    H126327   2.822   4.145   1.856 -0.4197 -0.3539 -0.2941
 1612TIP3    H226328   2.672   4.150   1.841 -0.4877  0.7202  0.6014
 1613TIP3   OH226329   3.703   2.513  16.259 -0.2995 -0.0916 -0.1898
 1613TIP3    H126330   3.668   2.437  16.212 -0.8320  0.2378 -0.3324
 1613TIP3    H226331   3.636   2.534  16.325 -0.0356  0.0932  0.0217
 1614TIP3   OH226332   5.174   2.884   0.199 -0.2974  0.1062 -0.0768
 1614TIP3    H126333   5.121   2.809   0.224 -1.7166  1.2398  0.4267
 1614TIP3    H226334   5.179   2.879   0.104 -1.3207 -0.0153 -0.1326
 1615TIP3   OH226335   1.463   0.031  11.002  0.6497  0.0396  0.0541
 1615TIP3    H126336   1.456  -0.058  10.968 -0.4296  0.3214 -0.4909
 1615TIP3    H226337   1.547   0.064  10.968  0.4798 -0.3409 -0.7407
 1616TIP3   OH226338   1.566   1.082   5.959  0.3062 -0.0370 -0.0565
 1616TIP3    H126339   1.522   1.127   6.031 -1.2873  0.7434 -1.4398
 1616TIP3    H226340   1.597   1.000   5.998  0.2090  0.7062  1.6868
 1617TIP3   OH226341   3.557   2.776  16.450 -0.1987 -0.2533  0.2705
 1617TIP3    H126342   3.578   2.736  16.534 -0.5777  1.5873  1.2869
 1617TIP3    H226343   3.468   2.747  16.431 -0.7893  0.7215  1.4142
 1618TIP3   OH226344   5.286   2.026  17.172  0.0572 -0.1795  0.3995
 1618TIP3    H126345   5.192   2.025  17.154  0.0773  1.1403  0.1366
 1618TIP3    H226346   5.327   2.037  17.087  0.4373 -0.2814  0.5648
 1619TIP3   OH226347   5.549   2.302  15.596 -0.4244 -0.0168  0.4160
 1619TIP3    H126348   5.489   2.372  15.571 -0.2223  0.5397  1.4592
 1619TIP3    H226349   5.573   2.321  15.687 -0.9245 -1.8238  0.9702
 1620TIP3   OH226350   6.113   1.719  11.926  0.5957 -0.4621 -0.1169
 1620TIP3    H126351   6.133   1.690  12.014  1.1496  0.5848  0.1242
 1620TIP3    H226352   6.092   1.812  11.935  1.6464 -0.0903 -1.2120
 1621TIP3   OH226353   0.144   2.854  11.771 -0.1045  0.4893 -0.0431
 1621TIP3    H126354   0.124   2.790  11.839  1.4909 -2.1016 -1.8170
 1621TIP3    H226355   0.234   2.834  11.745  0.3387  3.2618 -0.9653
 1622TIP3   OH226356   3.134   3.163   2.187  0.1887  0.5680 -0.1639
 1622TIP3    H126357   3.158   3.152   2.278  1.2184 -1.4302 -0.6257
 1622TIP3    H226358   3.210   3.207   2.147 -0.2864  1.5011 -0.0805
 1623TIP3   OH226359   1.123   1.551  13.744 -0.7240  0.4277 -0.0495
 1623TIP3    H126360   1.073   1.551  13.663  0.6313 -0.5419 -0.9310
 1623TIP3    H226361   1.063   1.516  13.810 -2.4360  2.8979 -0.1726
 1624TIP3   OH226362   2.148   3.534  13.239  0.5949 -0.1583  0.1871
 1624TIP3    H126363   2.112   3.462  13.292 -0.6869  0.3418  0.0311
 1624TIP3    H226364   2.084   3.604  13.248 -0.9438 -0.7972 -3.8714
 1625TIP3   OH226365   4.037   1.393  14.006  0.3415 -0.1831 -0.5240
 1625TIP3    H126366   3.952   1.349  14.008  0.7584 -0.9949  0.1690
 1625TIP3    H226367   4.080   1.357  13.928  1.0895 -1.8602  0.6061
 1626TIP3   OH226368   5.841   0.849  15.939  0.8012  0.1727  0.2537
 1626TIP3    H126369   5.791   0.916  15.891  0.3601 -0.1371  0.2760
 1626TIP3    H226370   5.925   0.844  15.893 -0.1258 -1.1360 -1.4066
 1627TIP3   OH226371   5.882   5.977  15.699 -0.3338 -0.3840 -0.4598
 1627TIP3    H126372   5.945   5.988  15.771 -2.8558 -2.4969  2.3869
 1627TIP3    H226373   5.835   6.060  15.695 -0.0954 -0.1969  0.3207
 1628TIP3   OH226374   1.064   6.171   5.983 -0.5404  0.3950 -0.5203
 1628TIP3    H126375   1.113   6.140   6.059  0.3654  0.5405 -1.0298
 1628TIP3    H226376   0.972   6.162   6.008 -0.2713 -0.5377  0.1975
 1629TIP3   OH226377   3.483   4.517   0.472 -0.2438 -0.2361 -0.8182
 1629TIP3    H126378   3.486   4.551   0.383 -0.1359 -1.0644 -1.1438
 1629TIP3    H226379   3.564   4.466   0.481 -0.0961  0.1088 -0.1362
 1630TIP3   OH226380   2.605   1.591  11.395 -0.1284 -0.1724  0.2340
 1630TIP3    H126381   2.542   1.604  11.465 -1.1720  0.2676 -0.7439
 1630TIP3    H226382   2.552   1.580  11.316  0.9985  1.3082 -0.8125
 1631TIP3   OH226383   3.069   0.579  15.398 -0.5513  0.1539 -0.4953
 1631TIP3    H126384   3.074   0.492  15.438 -1.0179 -0.1690 -1.1198
 1631TIP3    H226385   3.126   0.634  15.452 -1.7127 -0.0882  1.0841
 1632TIP3   OH226386   2.197   4.049  16.711 -0.2744 -0.1916  0.0332
 1632TIP3    H126387   2.212   4.114  16.643  0.6302 -1.4923 -1.0503
 1632TIP3    H226388   2.247   3.973  16.683 -2.4467 -1.8874  0.5021
 1633TIP3   OH226389   2.453   1.251   1.505  0.2430  0.1996  0.2152
 1633TIP3    H126390   2.415   1.164   1.506  1.3125 -0.4240 -2.5984
 1633TIP3    H226391   2.453   1.279   1.596 -1.0752 -2.3046  1.0684
 1634TIP3   OH226392   3.114   4.866   4.111  0.9446  0.3608  0.1373
 1634TIP3    H126393   3.180   4.830   4.051 -0.1575 -0.6428 -0.5301
 1634TIP3    H226394   3.082   4.944   4.066  1.8161  0.9759  0.5664
 1635TIP3   OH226395   2.673   3.367   5.518 -0.3053 -0.6093  0.2579
 1635TIP3    H126396   2.602   3.428   5.535  0.3240  0.3640 -0.4960
 1635TIP3    H226397   2.662   3.298   5.584 -1.8236 -0.3952  0.2622
 1636TIP3   OH226398   5.807   1.803  16.888 -0.0743 -0.0519 -0.4952
 1636TIP3    H126399   5.820   1.889  16.849  1.3765 -0.0389 -0.0454
 1636TIP3    H226400   5.790   1.820  16.980  1.6509 -0.2754 -0.1075
 1637TIP3   OH226401   4.428   6.152   5.885  0.0114  0.0519 -0.4365
 1637TIP3    H126402   4.343   6.179   5.849 -0.6180  0.3748  1.2060
 1637TIP3    H226403   4.487   6.154   5.810 -1.2912  0.4198 -1.5018
 1638TIP3   OH226404   5.513   4.433   3.520  0.2388 -0.4557  0.0342
 1638TIP3    H126405   5.524   4.498   3.451 -1.9179  0.0853  0.1062
 1638TIP3    H226406   5.486   4.483   3.597  0.8111 -1.2262  0.7544
 1639TIP3   OH226407   5.672   2.636   1.983 -0.0002  0.1218  0.0743
 1639TIP3    H126408   5.652   2.703   1.918 -1.6909 -0.6503 -0.2457
 1639TIP3    H226409   5.760   2.606   1.960  0.1058  1.0481 -0.8032
 1640TIP3   OH226410   1.495   4.639   3.279  0.1778 -0.3294 -0.0265
 1640TIP3    H126411   1.477   4.658   3.372 -0.0869 -2.5416  0.4289
 1640TIP3    H226412   1.566   4.575   3.281  1.4928  0.9947 -1.4779
 1641TIP3   OH226413   2.995   5.206   5.623 -0.0176 -0.5464 -0.1808
 1641TIP3    H126414   3.035   5.171   5.703  0.8553  2.4455  0.8364
 1641TIP3    H226415   2.904   5.224   5.647 -0.7301 -2.7312 -0.9803
 1642TIP3   OH226416   5.641   5.224  16.857 -0.0164 -0.2642  0.1532
 1642TIP3    H126417   5.684   5.212  16.942 -1.4142  1.2456  1.1189
 1642TIP3    H226418   5.555   5.261  16.878 -0.2228  0.5863 -1.9534
 1643TIP3   OH226419   2.383   6.188   3.674  0.0870 -0.0305 -0.5836
 1643TIP3    H126420   2.303   6.143   3.701 -1.1076  1.4424 -1.4643
 1643TIP3    H226421   2.366   6.215   3.584  0.5853  2.3864 -0.0182
 1644TIP3   OH226422   0.031   5.758  15.006 -0.2840  0.2118 -0.0370
 1644TIP3    H126423   0.047   5.806  15.087  1.1865  0.2982 -0.3497
 1644TIP3    H226424   0.007   5.670  15.035  1.6628 -0.1787  0.5121
 1645TIP3   OH226425   1.342   1.825  16.705 -0.0674  0.5517  0.2181
 1645TIP3    H126426   1.390   1.847  16.785 -2.3338 -1.0499  2.1438
 1645TIP3    H226427   1.345   1.730  16.701 -0.4691  0.5843 -1.3317
 1646TIP3   OH226428   5.437   4.640   4.860 -0.1494  0.6325 -0.0794
 1646TIP3    H126429   5.479   4.612   4.779  0.5514  0.7932  0.2182
 1646TIP3    H226430   5.487   4.717   4.887 -0.1269  0.3485  0.7076
 1647TIP3   OH226431   0.863   4.435   2.062 -0.3380 -0.4608  0.3302
 1647TIP3    H126432   0.850   4.357   2.008 -0.3722  0.4547 -1.0162
 1647TIP3    H226433   0.787   4.490   2.044 -1.5676 -1.0658  3.0873
 1648TIP3   OH226434   1.422   6.242   0.662  0.2479 -0.2252  0.4185
 1648TIP3    H126435   1.492   6.305   0.680  0.8732 -0.8506  0.2087
 1648TIP3    H226436   1.418   6.187   0.740  0.1486 -0.3484  0.3273
 1649TIP3   OH226437   6.177   6.391   4.330  0.3597  0.2122 -0.0384
 1649TIP3    H126438   6.155   6.408   4.421  0.7620  1.9527 -0.2352
 1649TIP3    H226439   6.245   6.455   4.309  3.6789 -3.0203 -0.2932
 1650TIP3   OH226440   6.655   2.476   5.385  0.9341 -0.4403 -0.0333
 1650TIP3    H126441   6.728   2.535   5.367  0.1330  1.2842  1.9380
 1650TIP3    H226442   6.697   2.392   5.405  2.2460  0.0132 -0.7273
 1651TIP3   OH226443   5.672   6.654  15.154  0.2047 -0.5954 -0.1929
 1651TIP3    H126444   5.589   6.636  15.198 -0.2922  0.3448 -0.7146
 1651TIP3    H226445   5.722   6.572  15.162 -0.4121 -0.8888  0.8877
 1652TIP3   OH226446   3.950   5.080   4.028  0.2553 -0.1800  0.3341
 1652TIP3    H126447   3.889   5.050   4.095 -0.1619 -1.5826 -0.6323
 1652TIP3    H226448   3.938   5.019   3.955  1.8604  0.3320 -0.4034
 1653TIP3   OH226449   6.654   1.188  16.061  0.2819 -0.6970  0.2264
 1653TIP3    H126450   6.703   1.107  16.077  0.1929 -0.7192  0.3899
 1653TIP3    H226451   6.593   1.194  16.134  0.1667 -0.5728  0.1217
 1654TIP3   OH226452   1.958   6.017   1.602  0.1799  0.3213  0.6403
 1654TIP3    H126453   1.882   6.014   1.543 -0.6910  1.2926  1.6693
 1654TIP3    H226454   2.029   5.979   1.551 -0.6538  0.7136 -0.8824
 1655TIP3   OH226455   4.512   2.633   4.032 -0.6161 -0.5080 -0.1715
 1655TIP3    H126456   4.420   2.615   4.011 -0.0646 -1.5694 -1.8281
 1655TIP3    H226457   4.513   2.643   4.127 -2.7726  1.5304 -0.2597
 1656TIP3   OH226458   0.784   1.811  13.491 -0.3889 -0.3792  0.1501
 1656TIP3    H126459   0.750   1.805  13.580  2.0394 -1.0458  1.1376
 1656TIP3    H226460   0.762   1.900  13.462 -0.0607  0.3279  1.9580
 1657TIP3   OH226461   2.675   5.124  12.905  0.5516 -0.0128  0.2263
 1657TIP3    H126462   2.617   5.106  12.830 -0.0943 -1.7224  1.0636
 1657TIP3    H226463   2.762   5.102  12.873  0.5378  0.9763 -0.5453
 1658TIP3   OH226464   1.240   1.263  16.147  0.1540  0.7840  0.5950
 1658TIP3    H126465   1.181   1.270  16.222  0.4230  0.9538  0.7952
 1658TIP3    H226466   1.233   1.172  16.119  0.3625  0.6097  1.0897
 1659TIP3   OH226467   3.242   0.876   6.208 -0.4595 -0.2587  0.3394
 1659TIP3    H126468   3.147   0.877   6.223 -0.5946 -1.5153 -0.2719
 1659TIP3    H226469   3.265   0.783   6.208  0.3557 -0.1319 -1.8357
 1660TIP3   OH226470   0.687   6.749  16.411  0.2376  0.0507 -0.1776
 1660TIP3    H126471   0.683   6.700  16.494 -0.8209  0.5147  0.0587
 1660TIP3    H226472   0.727   6.833  16.434 -1.6676  0.8746  0.2337
 1661TIP3   OH226473   3.305   1.358  12.471 -0.4809  0.0734  0.5403
 1661TIP3    H126474   3.378   1.350  12.409 -0.5103 -2.7348  0.7283
 1661TIP3    H226475   3.248   1.424  12.432  0.2250 -0.5133 -1.6605
 1662TIP3   OH226476   4.890   0.072  16.976 -0.4826  0.1198  0.0633
 1662TIP3    H126477   4.972   0.082  17.026 -0.3143  1.7256 -0.4689
 1662TIP3    H226478   4.842   0.153  16.993 -0.8474  0.2900 -1.6002
 1663TIP3   OH226479   3.284   1.586  12.046  0.5032  0.2058 -0.1147
 1663TIP3    H126480   3.276   1.499  12.086  0.2085  0.6714  0.8658
 1663TIP3    H226481   3.377   1.594  12.024  1.0634  0.6252  2.1378
 1664TIP3   OH226482   2.796   3.545  14.180  0.4991 -0.0993  0.1200
 1664TIP3    H126483   2.780   3.474  14.118  0.0030 -1.6891  1.9433
 1664TIP3    H226484   2.709   3.569  14.212  0.7539  0.5861  0.3077
 1665TIP3   OH226485   1.188   5.504  12.744 -0.0694  0.0284  0.0805
 1665TIP3    H126486   1.120   5.479  12.681  1.4376 -0.6712 -1.3506
 1665TIP3    H226487   1.147   5.492  12.830 -0.9197 -2.9699 -0.6293
 1666TIP3   OH226488   6.772   5.526  15.075 -0.2183  0.2128  0.2838
 1666TIP3    H126489   6.733   5.536  15.162  2.5237 -0.4675  1.7339
 1666TIP3    H226490   6.830   5.449  15.084  0.2662  0.2254 -2.1089
 1667TIP3   OH226491   5.886   3.035   1.269 -0.2921  0.3146 -0.3987
 1667TIP3    H126492   5.940   2.979   1.214 -0.6594 -1.3077  0.8127
 1667TIP3    H226493   5.858   3.106   1.211  0.7410 -0.3835 -1.8047
 1668TIP3   OH226494   5.067   3.386   1.222 -0.1123  0.1942  0.0298
 1668TIP3    H126495   5.108   3.453   1.168 -2.7341  0.5676 -1.6943
 1668TIP3    H226496   5.001   3.433   1.273 -1.4673 -0.9338 -0.6365
 1669TIP3   OH226497   5.853   2.607  12.120 -0.2267  0.1580  0.2228
 1669TIP3    H126498   5.839   2.677  12.056 -2.8061  0.8011  1.3646
 1669TIP3    H226499   5.814   2.640  12.201  0.3748 -1.7780  1.3681
 1670TIP3   OH226500   3.381   5.744  13.338  0.8010  0.0229  0.3371
 1670TIP3    H126501   3.371   5.802  13.413  0.2371  0.6934 -0.2396
 1670TIP3    H226502   3.293   5.735  13.302  0.8025 -1.4941  0.6186
 1671TIP3   OH226503   1.138   4.430   2.048  0.6086 -0.4018  0.8955
 1671TIP3    H126504   1.046   4.456   2.044  1.1355  1.4886 -0.7835
 1671TIP3    H226505   1.148   4.365   1.977  1.0624  1.3820 -0.7515
 1672TIP3   OH226506   0.705   4.769   6.093 -0.1437 -0.5243 -0.3076
 1672TIP3    H126507   0.726   4.741   6.004 -1.0362 -1.2395 -0.3129
 1672TIP3    H226508   0.790   4.781   6.136  0.3585 -3.4257 -0.2766
 1673TIP3   OH226509   4.866   6.588  14.807  0.1822 -0.1763 -0.1484
 1673TIP3    H126510   4.961   6.572  14.807  0.1332 -0.5539 -1.3142
 1673TIP3    H226511   4.829   6.507  14.841  0.2592 -0.0668  0.2082
 1674TIP3   OH226512   3.626   2.781   5.824  0.0029 -0.1540 -0.1202
 1674TIP3    H126513   3.589   2.844   5.763 -0.8582 -0.9161 -0.4110
 1674TIP3    H226514   3.570   2.704   5.816  1.6003 -1.3340 -0.5083
 1675TIP3   OH226515   1.567   3.201  11.334 -0.1921  0.2917 -0.1322
 1675TIP3    H126516   1.659   3.205  11.308 -0.3692  1.9537 -0.6507
 1675TIP3    H226517   1.518   3.205  11.252 -0.7272  0.4198  0.1869
 1676TIP3   OH226518   0.477   2.188   0.328  0.3536 -0.1351 -0.0714
 1676TIP3    H126519   0.444   2.271   0.363 -0.5540 -0.5789  0.1739
 1676TIP3    H226520   0.537   2.155   0.394  0.2117  0.0189  0.1342
 1677TIP3   OH226521   2.954   4.161  14.197 -0.1109  0.4912 -0.3978
 1677TIP3    H126522   2.923   4.226  14.260 -0.1701 -0.2078  0.3077
 1677TIP3    H226523   2.951   4.206  14.112  1.0528  1.8285  0.2364
 1678TIP3   OH226524   6.190   1.583   3.275  0.1122  0.0721 -0.1238
 1678TIP3    H126525   6.113   1.639   3.269 -0.3332 -0.4886  0.2626
 1678TIP3    H226526   6.222   1.577   3.184  0.7272  1.6939 -0.0477
 1679TIP3   OH226527   1.336   6.697  13.293 -0.2690  0.3843 -0.6688
 1679TIP3    H126528   1.245   6.722  13.306 -0.6367 -0.9500 -0.4960
 1679TIP3    H226529   1.332   6.624  13.232  0.2982 -2.2243  2.1647
 1680TIP3   OH226530   4.404   1.526  13.525  0.0607  0.1598  0.1784
 1680TIP3    H126531   4.489   1.553  13.491  2.1590 -0.8863  3.9706
 1680TIP3    H226532   4.399   1.432  13.506 -0.5399  0.3228 -0.5081
 1681TIP3   OH226533   0.205   1.957  17.221 -0.4461  0.0912 -0.4143
 1681TIP3    H126534   0.119   1.959  17.263 -0.7370  0.8430 -1.0319
 1681TIP3    H226535   0.266   1.971  17.293 -0.9308  1.1574 -0.1854
 1682TIP3   OH226536   0.496   5.010   1.300 -0.3038  0.0831 -0.4165
 1682TIP3    H126537   0.558   5.083   1.309  0.5156 -0.7189  0.8607
 1682TIP3    H226538   0.410   5.052   1.298  0.1923  1.1301 -0.5631
 1683TIP3   OH226539   4.933   0.350   5.119 -0.0226  0.0284 -0.6006
 1683TIP3    H126540   4.995   0.423   5.121  0.6329 -0.4632 -1.9904
 1683TIP3    H226541   4.987   0.273   5.101 -0.8989 -0.5906 -0.6534
 1684TIP3   OH226542   2.652   5.005  11.649 -0.6828 -0.0737 -0.4527
 1684TIP3    H126543   2.583   4.952  11.690  1.6390 -1.3926  2.1008
 1684TIP3    H226544   2.671   4.959  11.567 -1.2077 -1.0676 -0.0413
 1685TIP3   OH226545   3.547   5.428  14.441 -0.3680  0.3443  0.1945
 1685TIP3    H126546   3.568   5.376  14.519  1.5697  0.4310 -0.2128
 1685TIP3    H226547   3.462   5.395  14.412  1.1514 -3.3983 -0.6271
 1686TIP3   OH226548   5.243   2.259  11.362  0.2463  0.6278 -0.3124
 1686TIP3    H126549   5.155   2.229  11.337  0.1982  1.9087 -1.8607
 1686TIP3    H226550   5.227   2.323  11.431  0.0262  0.2622 -0.0204
 1687TIP3   OH226551   5.209   6.511   5.884  0.1453 -0.2609  0.4731
 1687TIP3    H126552   5.215   6.559   5.967 -0.6297  1.8878 -0.6389
 1687TIP3    H226553   5.244   6.572   5.819 -0.7784 -1.2582 -1.0050
 1688TIP3   OH226554   5.185   6.165   4.238 -0.3110  0.0101 -0.0948
 1688TIP3    H126555   5.091   6.179   4.229 -0.1339  1.6115  0.1172
 1688TIP3    H226556   5.218   6.169   4.148 -0.5672 -1.8303 -0.2980
 1689TIP3   OH226557   2.734   4.637   3.522  0.3168 -0.1283  0.0843
 1689TIP3    H126558   2.815   4.628   3.472  0.6758  0.9536  0.4569
 1689TIP3    H226559   2.694   4.550   3.517  1.4584 -0.6607 -0.1536
 1690TIP3   OH226560   4.562   6.271  11.626  0.3478  0.0123 -0.2313
 1690TIP3    H126561   4.649   6.232  11.622  0.6763  0.7023  0.0545
 1690TIP3    H226562   4.567   6.336  11.696 -0.5696 -0.3417  0.1893
 1691TIP3   OH226563   4.607   4.497   3.291 -0.2364 -0.1907  0.1398
 1691TIP3    H126564   4.615   4.580   3.244 -0.2045 -0.5285 -0.4630
 1691TIP3    H226565   4.687   4.490   3.342 -0.1575  0.0590  0.0506
 1692TIP3   OH226566   0.871   1.174  14.825  0.2228 -0.1170 -0.4360
 1692TIP3    H126567   0.884   1.187  14.919  0.2619  0.9821 -0.5829
 1692TIP3    H226568   0.874   1.262  14.787 -3.2744 -0.1080 -1.0361
 1693TIP3   OH226569   3.193   1.492   4.470 -0.1973  0.1734 -0.3953
 1693TIP3    H126570   3.219   1.523   4.556  2.2595 -2.3561 -0.1000
 1693TIP3    H226571   3.247   1.543   4.409  0.2369 -0.0963 -0.2392
 1694TIP3   OH226572   4.991   1.292  13.013 -0.1150  0.5640  0.3312
 1694TIP3    H126573   5.069   1.315  12.964  1.9091 -0.3847  2.8662
 1694TIP3    H226574   4.992   1.351  13.089 -2.7199  1.5204 -0.2615
 1695TIP3   OH226575   0.918   5.109   4.393  0.6108 -0.7293 -0.5641
 1695TIP3    H126576   1.004   5.118   4.432 -0.1343  0.2204  0.9672
 1695TIP3    H226577   0.905   5.190   4.343 -0.2776  0.2380  1.1419
 1696TIP3   OH226578   2.712   4.220   5.594 -0.1105  0.2524  0.1697
 1696TIP3    H126579   2.727   4.251   5.683 -0.4786  1.0179 -0.0286
 1696TIP3    H226580   2.752   4.287   5.538  1.3668 -0.9071 -0.2304
 1697TIP3   OH226581   4.927   2.178   2.912  0.1763  0.3505 -0.2807
 1697TIP3    H126582   5.014   2.212   2.890  1.1715 -0.8824  1.4846
 1697TIP3    H226583   4.881   2.253   2.951  1.5022  0.3332  1.4243
 1698TIP3   OH226584   5.084   4.026   0.724 -0.3398  0.1659  0.0413
 1698TIP3    H126585   5.061   4.024   0.631 -0.5495  1.0504  0.0664
 1698TIP3    H226586   5.167   4.074   0.727 -0.2989  0.0800  0.3046
 1699TIP3   OH226587   5.987   6.051  14.736 -0.2659  0.2050  0.4718
 1699TIP3    H126588   5.999   6.073  14.644  2.1245  0.5099  0.7977
 1699TIP3    H226589   5.904   6.091  14.760 -0.7786  0.3627 -1.4686
 1700TIP3   OH226590   6.214   1.389  11.791 -0.3247 -0.4976 -0.0315
 1700TIP3    H126591   6.273   1.357  11.723  0.4421 -1.4776  1.0532
 1700TIP3    H226592   6.250   1.474  11.815 -0.5023 -0.2208 -0.7213
 1701TIP3   OH226593   0.496   5.618   2.508 -0.0621 -0.9499 -0.0041
 1701TIP3    H126594   0.434   5.676   2.464  0.5174 -1.6961 -1.8674
 1701TIP3    H226595   0.569   5.675   2.532 -0.3376 -0.5583 -0.0793
 1702TIP3   OH226596   4.820   4.598  14.078  0.3117  0.0672 -0.1549
 1702TIP3    H126597   4.766   4.551  14.014  0.8226 -0.2566 -0.3539
 1702TIP3    H226598   4.862   4.530  14.129 -1.3771  0.3197  1.6717
 1703TIP3   OH226599   0.799   0.754   1.585 -0.2448 -0.5199  0.0397
 1703TIP3    H126600   0.810   0.843   1.549 -1.9107 -0.2863  0.0262
 1703TIP3    H226601   0.888   0.726   1.605  0.6938 -0.1047 -2.9293
 1704TIP3   OH226602   4.289   0.578  11.374  0.3848 -0.2262  0.7721
 1704TIP3    H126603   4.236   0.543  11.302 -1.6037 -1.9783  2.9177
 1704TIP3    H226604   4.379   0.556  11.351  0.1710  1.6914 -2.3998
 1705TIP3   OH226605   2.362   6.361   1.715  0.4446  0.4764 -0.1448
 1705TIP3    H126606   2.370   6.331   1.625 -0.8770 -0.1144 -0.0986
 1705TIP3    H226607   2.272   6.340   1.739  0.7448  0.6985  1.2858
 1706TIP3   OH226608   4.749   1.690  10.554 -0.2546  0.0119 -0.0731
 1706TIP3    H126609   4.797   1.766  10.586 -1.2199  0.3638  0.5747
 1706TIP3    H226610   4.773   1.684  10.461  1.8090 -0.4346  0.4350
 1707TIP3   OH226611   3.087   1.550  16.789 -0.2305  0.5903 -0.9195
 1707TIP3    H126612   3.133   1.472  16.758  0.9377 -0.2433  2.4441
 1707TIP3    H226613   3.153   1.619  16.787  0.5941 -0.0226  1.6080
 1708TIP3   OH226614   1.884   2.764  14.636  0.2440  0.0038 -0.0438
 1708TIP3    H126615   1.821   2.828  14.669  0.8445  0.0340  1.1026
 1708TIP3    H226616   1.884   2.695  14.703  1.8881  0.3051  0.3030
 1709TIP3   OH226617   5.790   1.686   1.319  0.4999 -0.5051  0.5932
 1709TIP3    H126618   5.707   1.643   1.300  0.1964  0.0149  0.7327
 1709TIP3    H226619   5.855   1.632   1.274 -0.0784  0.0613 -0.9969
 1710TIP3   OH226620   2.087   2.152   3.997  1.0767 -0.6112 -0.0365
 1710TIP3    H126621   2.106   2.244   4.013  1.4694 -0.4967 -1.1163
 1710TIP3    H226622   2.140   2.129   3.921  1.0495 -1.7580  0.2688
 1711TIP3   OH226623   0.361   1.685  15.295 -0.0052 -0.2708  0.3354
 1711TIP3    H126624   0.435   1.629  15.317  0.4003 -0.2865 -0.9451
 1711TIP3    H226625   0.399   1.773  15.288  0.0604 -0.3856 -1.0130
 1712TIP3   OH226626   6.245   6.387  13.291  0.0568 -0.3300 -0.3960
 1712TIP3    H126627   6.198   6.431  13.362 -0.0792 -1.1362  0.0255
 1712TIP3    H226628   6.333   6.371  13.327 -0.0887 -0.9613 -0.3148
 1713TIP3   OH226629   3.173   5.527   4.123  0.0513 -0.1202  0.6518
 1713TIP3    H126630   3.195   5.459   4.059 -0.0406 -1.0388  1.5596
 1713TIP3    H226631   3.108   5.582   4.078  1.6827  0.6544 -0.8598
 1714TIP3   OH226632   0.579   3.270   2.849  0.5439  0.3502  0.1656
 1714TIP3    H126633   0.578   3.324   2.928 -0.1317  0.7792 -0.1303
 1714TIP3    H226634   0.572   3.332   2.777  1.1305 -0.0426 -0.2434
 1715TIP3   OH226635   5.697   6.398  13.602 -0.4631  0.0911  0.0490
 1715TIP3    H126636   5.742   6.409  13.686 -2.5126  1.9011  1.0254
 1715TIP3    H226637   5.739   6.462  13.544  1.3781 -1.5882 -0.5956
 1716TIP3   OH226638   3.607   1.053   3.706  0.0456 -0.1902 -0.4905
 1716TIP3    H126639   3.652   1.138   3.705 -0.3103  0.0850 -3.7943
 1716TIP3    H226640   3.674   0.990   3.680 -0.3989 -0.4651 -0.9810
 1717TIP3   OH226641   0.254   2.388   0.750  0.7121 -0.2062 -0.3269
 1717TIP3    H126642   0.197   2.364   0.822  2.3591  0.9066  1.4544
 1717TIP3    H226643   0.234   2.480   0.733  3.0816  0.8027  1.6115
 1718TIP3   OH226644   4.880   3.358  13.735 -0.2072  0.2103 -0.2503
 1718TIP3    H126645   4.957   3.334  13.683 -0.7011 -0.0197 -0.8971
 1718TIP3    H226646   4.845   3.436  13.691 -1.3737 -0.7376 -1.0747
 1719TIP3   OH226647   6.346   5.093   6.538  0.1030 -0.1736  1.1350
 1719TIP3    H126648   6.254   5.073   6.558 -0.3335  0.0065 -0.6037
 1719TIP3    H226649   6.395   5.023   6.583 -0.9331 -0.8450  1.2669
 1720TIP3   OH226650   1.086   5.093   4.883  0.0512  0.1584 -0.1206
 1720TIP3    H126651   1.121   5.177   4.854  1.5157 -0.4460 -0.2285
 1720TIP3    H226652   1.161   5.050   4.925 -1.1127 -0.3996  1.4686
 1721TIP3   OH226653   2.046   5.213  14.777  0.6913 -0.0509 -0.1885
 1721TIP3    H126654   2.088   5.171  14.701  0.7639  0.0733 -0.2170
 1721TIP3    H226655   2.007   5.140  14.825 -1.6001  0.0987 -1.6873
 1722TIP3   OH226656   2.523   1.880   0.556  0.1592 -0.5251  0.1816
 1722TIP3    H126657   2.438   1.871   0.513 -0.2628  1.8478  0.3791
 1722TIP3    H226658   2.503   1.909   0.645  1.1497 -0.1911  0.3174
 1723TIP3   OH226659   3.508   2.221  12.738 -0.1924  0.5822  0.6492
 1723TIP3    H126660   3.483   2.299  12.788  1.1789  1.9584 -0.7025
 1723TIP3    H226661   3.600   2.236  12.715 -0.4350 -0.5433 -1.2612
 1724TIP3   OH226662   0.999   6.496  13.229 -0.4918  0.2594 -0.2958
 1724TIP3    H126663   0.934   6.564  13.209 -0.4089  0.8055  1.1409
 1724TIP3    H226664   0.947   6.420  13.254 -0.6045  0.6850  0.8155
 1725TIP3   OH226665   4.586   6.511  13.578  0.2710 -0.6294  0.2541
 1725TIP3    H126666   4.596   6.430  13.628  1.5895 -0.1653  0.7597
 1725TIP3    H226667   4.634   6.577  13.627  0.3892  0.1637 -0.8814
 1726TIP3   OH226668   1.885   4.103  11.648  0.7645 -0.2520 -0.7279
 1726TIP3    H126669   1.801   4.131  11.684  0.7825  0.7959 -1.4798
 1726TIP3    H226670   1.882   4.007  11.652 -0.0965 -0.2043  0.0670
 1727TIP3   OH226671   0.407   4.801   4.525  0.8118  0.1860  0.0558
 1727TIP3    H126672   0.488   4.826   4.568  0.7107 -1.1726  1.0882
 1727TIP3    H226673   0.353   4.880   4.528  1.5179  0.6585  0.7223
 1728TIP3   OH226674   5.346   5.632  13.991 -0.5431  0.3593  0.3515
 1728TIP3    H126675   5.287   5.565  13.956 -1.6437  1.1499  0.6306
 1728TIP3    H226676   5.429   5.587  14.004 -1.2032 -0.9009  0.3309
 1729TIP3   OH226677   0.183   6.741  11.669  0.4883 -0.2342  0.0790
 1729TIP3    H126678   0.162   6.813  11.609  3.2984  0.3450 -0.3734
 1729TIP3    H226679   0.257   6.696  11.628 -0.0536 -2.2994  1.2322
 1730TIP3   OH226680   6.619   2.809   5.091  0.4628  0.0993 -0.2061
 1730TIP3    H126681   6.561   2.758   5.148  0.7008 -0.6432 -0.6259
 1730TIP3    H226682   6.559   2.863   5.039  0.1138 -0.9657 -0.9342
 1731TIP3   OH226683   5.823   2.190  16.588 -0.0143 -0.4624  0.6558
 1731TIP3    H126684   5.797   2.100  16.570 -0.0831 -0.2482 -0.3516
 1731TIP3    H226685   5.864   2.186  16.675  1.5121 -1.7806 -0.0642
 1732TIP3   OH226686   0.640   4.532   1.092  0.0991 -0.4379  0.7860
 1732TIP3    H126687   0.668   4.484   1.014 -0.7274  0.3342 -0.0005
 1732TIP3    H226688   0.581   4.599   1.060  0.9088  0.8833  1.8993
 1733TIP3   OH226689   3.192   3.961  16.870  0.4435 -0.5139 -0.0965
 1733TIP3    H126690   3.186   3.960  16.966 -0.5584 -0.0339 -0.1407
 1733TIP3    H226691   3.249   4.036  16.851  0.7627 -0.6972  0.1246
 1734TIP3   OH226692   2.829   2.084   4.130 -0.2876  0.3723 -0.2961
 1734TIP3    H126693   2.858   2.005   4.083 -1.4180  0.1555 -0.6541
 1734TIP3    H226694   2.810   2.147   4.061 -1.0622  0.3645 -0.1010
 1735TIP3   OH226695   2.370   1.390  12.837 -0.1103  0.3978 -0.6931
 1735TIP3    H126696   2.372   1.352  12.925  0.9807 -0.3841 -1.0331
 1735TIP3    H226697   2.426   1.467  12.843 -0.6028  0.7491 -0.5372
 1736TIP3   OH226698   3.568   3.666   2.747 -0.8178 -0.1296 -0.3950
 1736TIP3    H126699   3.494   3.700   2.697 -2.0111 -0.5014  1.0487
 1736TIP3    H226700   3.580   3.577   2.715  0.2695  0.5443 -1.9635
 1737TIP3   OH226701   2.077   1.955  11.488 -0.4037  0.0402  0.3473
 1737TIP3    H126702   2.132   1.986  11.415  0.0811  0.3429  0.8317
 1737TIP3    H226703   2.032   2.033  11.519  2.0505  0.6905  2.6285
 1738TIP3   OH226704   1.251   2.986   2.991  0.2363 -0.4484  0.0335
 1738TIP3    H126705   1.181   2.981   2.926 -0.8489 -0.4612  1.1697
 1738TIP3    H226706   1.262   3.080   3.006 -0.2210 -0.4696  0.5483
 1739TIP3   OH226707   3.316   2.786  13.680  0.4743 -0.4634  0.3128
 1739TIP3    H126708   3.290   2.877  13.669 -1.9944 -1.2605 -1.1690
 1739TIP3    H226709   3.402   2.780  13.639 -0.7684  0.5603 -2.6837
 1740TIP3   OH226710   6.648   0.518   0.793 -0.1855  0.5421 -0.1534
 1740TIP3    H126711   6.594   0.529   0.871 -0.9125 -0.9596 -0.4026
 1740TIP3    H226712   6.723   0.468   0.823  0.1652  1.0479 -0.1768
 1741TIP3   OH226713   4.173   4.682   4.794  0.0272 -0.8591  0.0634
 1741TIP3    H126714   4.205   4.667   4.883  2.1091 -0.6519 -0.6060
 1741TIP3    H226715   4.088   4.724   4.806  0.0907 -1.2014  1.9460
 1742TIP3   OH226716   0.351   6.744   2.451 -0.2814  0.1879 -0.4391
 1742TIP3    H126717   0.406   6.698   2.514 -0.0175  2.3470  1.0158
 1742TIP3    H226718   0.398   6.737   2.368 -0.0661 -1.7336 -0.2075
 1743TIP3   OH226719   4.254   1.450  12.441  0.1974 -0.0920 -0.1377
 1743TIP3    H126720   4.326   1.446  12.379 -0.7837 -0.3562 -1.3036
 1743TIP3    H226721   4.248   1.542  12.466  0.4317  0.0617 -0.6431
 1744TIP3   OH226722   2.993   1.434   1.870 -0.4156  0.7697 -0.2210
 1744TIP3    H126723   3.005   1.359   1.811  0.1327  1.1102 -0.5587
 1744TIP3    H226724   2.953   1.397   1.948  1.3471 -0.1844  0.2910
 1745TIP3   OH226725   4.577   3.404  15.245 -0.0085  0.1738  0.2971
 1745TIP3    H126726   4.625   3.448  15.315 -0.2425  1.0584 -0.0806
 1745TIP3    H226727   4.497   3.372  15.287  0.2514 -0.0611  0.6174
 1746TIP3   OH226728   3.526   5.767   3.476 -0.3548 -0.1965  0.2797
 1746TIP3    H126729   3.617   5.779   3.448 -0.9729  1.9629 -1.0589
 1746TIP3    H226730   3.497   5.855   3.501 -2.7538 -0.3146 -1.6534
 1747TIP3   OH226731   1.123   6.291  12.953 -0.3589 -0.0882 -0.4438
 1747TIP3    H126732   1.092   6.381  12.952 -1.2357 -0.3538  0.6418
 1747TIP3    H226733   1.044   6.238  12.943 -0.0465 -0.7413  0.4030
 1748TIP3   OH226734   3.470   1.880  11.678  0.5650 -0.4499  0.3707
 1748TIP3    H126735   3.513   1.964  11.689 -0.0490 -0.1260  0.3534
 1748TIP3    H226736   3.423   1.888  11.595 -1.7627  0.2097  1.6700
 1749TIP3   OH226737   4.110   1.653   1.777 -0.5978  0.3669  0.3055
 1749TIP3    H126738   4.077   1.609   1.855 -0.9349  0.7174  0.3581
 1749TIP3    H226739   4.038   1.709   1.748 -0.9297 -0.6537 -0.9503
 1750TIP3   OH226740   5.979   6.470   5.163  0.1887  0.2166 -0.7553
 1750TIP3    H126741   5.896   6.434   5.131 -0.0137 -0.0990  0.1156
 1750TIP3    H226742   6.022   6.503   5.084 -0.9394  0.7473 -1.1724
 1751TIP3   OH226743   4.803   4.634   5.706 -0.0654 -0.3175 -0.8904
 1751TIP3    H126744   4.801   4.716   5.656 -2.0703  0.7979  0.8763
 1751TIP3    H226745   4.735   4.580   5.665  1.7468 -1.5277 -2.5361
 1752TIP3   OH226746   2.323   4.098   1.918  0.1562 -0.0424  0.3899
 1752TIP3    H126747   2.348   4.052   1.838  1.1885 -1.3823  1.4360
 1752TIP3    H226748   2.401   4.148   1.942 -0.0854  0.2114  0.6541
 1753TIP3   OH226749   2.755   0.618   3.723  0.6814 -0.2204  0.6910
 1753TIP3    H126750   2.805   0.650   3.648  0.0909  0.4277  0.5696
 1753TIP3    H226751   2.822   0.588   3.785  1.2335  0.8758  0.6355
 1754TIP3   OH226752   1.405   0.351   4.260 -0.1063 -0.1556  0.4228
 1754TIP3    H126753   1.470   0.422   4.255  0.0356 -0.3886 -1.4717
 1754TIP3    H226754   1.350   0.375   4.335 -0.4654  2.3257 -0.5400
 1755TIP3   OH226755   0.301   5.757  13.703  0.0732  0.1611 -0.5248
 1755TIP3    H126756   0.315   5.813  13.627 -0.2469  0.6666 -0.2169
 1755TIP3    H226757   0.389   5.743  13.739  0.3616 -1.0053 -1.6257
 1756TIP3   OH226758   4.916   5.519  11.471  0.3292 -0.4071  0.1635
 1756TIP3    H126759   4.987   5.543  11.531 -1.0827  0.4952  1.5320
 1756TIP3    H226760   4.952   5.536  11.384  2.0367 -0.6552  0.7732
 1757TIP3   OH226761   0.132   6.454  15.623  0.9106 -0.2907 -0.6095
 1757TIP3    H126762   0.226   6.446  15.639  0.8531  1.1296  0.6221
 1757TIP3    H226763   0.117   6.548  15.617 -0.6260 -0.4525  0.3618
 1758TIP3   OH226764   2.435   5.174   1.744 -0.4330  0.3438  0.1951
 1758TIP3    H126765   2.414   5.254   1.696 -1.1133  0.2954  0.4054
 1758TIP3    H226766   2.470   5.115   1.677  0.7488  1.0414  0.1563
 1759TIP3   OH226767   6.536   6.271  13.650  0.3266 -0.0479  0.8872
 1759TIP3    H126768   6.474   6.206  13.683  1.1633 -2.4317 -1.8053
 1759TIP3    H226769   6.538   6.338  13.718 -1.5620 -2.1772  3.2872
 1760TIP3   OH226770   2.596   6.736   1.151  0.1582  0.2197 -0.3090
 1760TIP3    H126771   2.568   6.741   1.242  1.0681 -1.0424  0.0701
 1760TIP3    H226772   2.690   6.753   1.154  0.2479 -0.1259 -0.9639
 1761TIP3   OH226773   5.730   3.706  12.574 -0.2637  0.0262  0.0825
 1761TIP3    H126774   5.693   3.783  12.616 -1.4304 -0.7013  0.4415
 1761TIP3    H226775   5.659   3.642  12.574  0.6443 -1.0215 -0.2913
 1762TIP3   OH226776   2.212   3.055   3.239 -0.3732  0.2722 -0.0153
 1762TIP3    H126777   2.249   2.971   3.211 -1.7336  0.1829 -1.7296
 1762TIP3    H226778   2.203   3.046   3.334 -1.3377 -1.9419 -0.2329
 1763TIP3   OH226779   1.034   6.460   5.862  0.0076 -0.1483 -0.1820
 1763TIP3    H126780   1.037   6.529   5.928  1.8848 -0.9324  0.5947
 1763TIP3    H226781   0.942   6.459   5.833 -0.6730  0.7794  1.7818
 1764TIP3   OH226782   6.597   6.026  16.335 -0.4188 -0.1975 -0.0605
 1764TIP3    H126783   6.571   6.061  16.421  0.5593  2.5248 -0.7928
 1764TIP3    H226784   6.520   5.977  16.306 -1.2456 -0.1151  1.8029
 1765TIP3   OH226785   6.129   3.922   2.372 -0.0769 -0.0261 -0.0600
 1765TIP3    H126786   6.116   3.964   2.457  1.1794  2.3575 -0.9574
 1765TIP3    H226787   6.091   3.984   2.309 -0.2577 -1.3612 -1.3050
 1766TIP3   OH226788   2.138   4.978  13.534 -0.3421 -0.8550  0.0720
 1766TIP3    H126789   2.060   5.009  13.581  1.1929  1.4696  1.2480
 1766TIP3    H226790   2.187   4.929  13.599  1.4183  1.7240  0.8246
 1767TIP3   OH226791   6.127   1.525  13.395  0.2441 -0.4677  0.4402
 1767TIP3    H126792   6.146   1.557  13.307 -0.3071  2.0058  1.1399
 1767TIP3    H226793   6.131   1.430  13.388  2.4513 -0.3006 -1.7355
 1768TIP3   OH226794   1.592   1.659  15.969  0.5427 -0.1261 -0.0958
 1768TIP3    H126795   1.529   1.677  16.038  1.9817  2.3214  0.7075
 1768TIP3    H226796   1.610   1.565  15.977 -1.3301 -0.4295  1.0712
 1769TIP3   OH226797   0.544   3.920   2.909  0.0332 -0.3238 -0.3218
 1769TIP3    H126798   0.619   3.978   2.925 -0.5596  1.1654 -2.4624
 1769TIP3    H226799   0.487   3.933   2.985  0.2861  1.3592 -0.3732
 1770TIP3   OH226800   1.030   5.768   2.915 -0.1185 -0.8480 -0.8860
 1770TIP3    H126801   1.034   5.759   3.010  0.1841  0.2688 -0.7830
 1770TIP3    H226802   0.957   5.828   2.900  0.5466 -0.1393 -1.2933
 1771TIP3   OH226803   5.585   5.011  13.517 -0.1229  0.3494  0.2659
 1771TIP3    H126804   5.650   4.950  13.481  2.4328  1.4360  2.6257
 1771TIP3    H226805   5.509   4.956  13.536  1.4722 -1.8403  0.7977
 1772TIP3   OH226806   4.188   1.648  15.999 -0.2270  0.5441 -0.2312
 1772TIP3    H126807   4.180   1.609  16.086 -0.7380  3.1392  0.9687
 1772TIP3    H226808   4.207   1.574  15.942 -2.0786 -1.5848  1.7020
 1773TIP3   OH226809   6.642   6.584   2.207 -0.0178 -0.2752 -0.0173
 1773TIP3    H126810   6.698   6.582   2.284  0.7641 -2.4627 -0.5622
 1773TIP3    H226811   6.559   6.621   2.238  0.9391  0.8104  1.3580
 1774TIP3   OH226812   6.301   2.888  13.547 -0.3220  0.1836  0.0565
 1774TIP3    H126813   6.342   2.849  13.625 -0.0579  1.8527  0.7804
 1774TIP3    H226814   6.225   2.832  13.531 -0.4315 -0.1636  1.5533
 1775TIP3   OH226815   3.665   0.341   1.462  0.8751  0.1969 -0.8711
 1775TIP3    H126816   3.585   0.390   1.481  1.1330  0.6444 -0.9410
 1775TIP3    H226817   3.670   0.339   1.366  0.6336 -0.3505 -0.8800
 1776TIP3   OH226818   1.253   6.349   5.163 -0.4605 -0.2533  0.0816
 1776TIP3    H126819   1.211   6.429   5.193  0.2068 -0.6330  2.1584
 1776TIP3    H226820   1.321   6.378   5.102 -1.3976  0.6103 -0.5626
 1777TIP3   OH226821   4.416   6.752  15.431 -0.3133  0.0742 -0.4424
 1777TIP3    H126822   4.438   6.823  15.491  0.6955 -1.9128  1.6470
 1777TIP3    H226823   4.342   6.787  15.380  1.1847  3.2165 -0.7435
 1778TIP3   OH226824   5.433   0.271   1.182 -0.1654 -0.4745 -0.3944
 1778TIP3    H126825   5.393   0.211   1.245 -0.5220 -0.7472 -0.8785
 1778TIP3    H226826   5.526   0.250   1.184  0.0320  0.3525  0.9505
 1779TIP3   OH226827   0.104   6.225   4.894  0.0774 -0.2434  0.1749
 1779TIP3    H126828   0.139   6.256   4.978 -0.9259 -0.8376  0.8427
 1779TIP3    H226829   0.045   6.296   4.866 -2.6288 -1.5918  1.9628
 1780TIP3   OH226830   6.251   4.892   2.576  0.0214  0.2000  0.3788
 1780TIP3    H126831   6.268   4.802   2.604  0.7507  0.9403  2.4876
 1780TIP3    H226832   6.157   4.903   2.585 -0.0105 -0.2266  0.5662
 1781TIP3   OH226833   1.451   1.270   3.788 -0.2327  0.7441 -0.1541
 1781TIP3    H126834   1.393   1.234   3.721  1.3263  0.2284 -1.2895
 1781TIP3    H226835   1.404   1.257   3.870 -1.4508 -0.1940 -0.9630
 1782TIP3   OH226836   5.936   1.054   3.483 -0.5953  0.4294  0.1350
 1782TIP3    H126837   5.905   0.977   3.436  0.1601  0.3541 -0.2636
 1782TIP3    H226838   6.018   1.027   3.523 -0.8158  0.7434  0.8096
 1783TIP3   OH226839   6.128   4.477   6.134 -1.4054  0.1722  0.5169
 1783TIP3    H126840   6.098   4.386   6.140  0.0483 -0.6890 -2.7580
 1783TIP3    H226841   6.133   4.494   6.040 -1.2368  3.5656  1.0165
 1784TIP3   OH226842   3.692   5.320  16.924 -0.0004 -0.1082 -0.3593
 1784TIP3    H126843   3.658   5.336  16.836  0.7829  0.1340 -0.6336
 1784TIP3    H226844   3.749   5.396  16.941 -0.7437  0.2426  0.6706
 1785TIP3   OH226845   3.400   0.470  13.776 -0.0600 -0.0218  0.3211
 1785TIP3    H126846   3.492   0.441  13.782  0.0608  0.4777  1.0418
 1785TIP3    H226847   3.402   0.561  13.805 -0.6418  0.3007 -0.6111
 1786TIP3   OH226848   0.712   2.993   0.647 -0.1474 -0.2758  0.1895
 1786TIP3    H126849   0.638   2.985   0.588  0.4706 -0.2936 -0.5926
 1786TIP3    H226850   0.778   2.933   0.613  0.8791  0.9840 -0.1343
 1787TIP3   OH226851   1.020   5.637   0.912  0.3027  0.1213 -0.1972
 1787TIP3    H126852   0.965   5.709   0.882 -1.3929 -1.4319 -1.0428
 1787TIP3    H226853   1.106   5.655   0.873 -0.0925  1.6396 -0.4222
 1788TIP3   OH226854   4.065   1.515  11.731 -0.3054  0.5663  0.2312
 1788TIP3    H126855   4.129   1.567  11.779 -1.2473 -0.3165  2.6159
 1788TIP3    H226856   4.115   1.445  11.690  0.7845  2.4254 -1.8482
 1789TIP3   OH226857   6.169   0.967   1.987  0.3840  0.1384  0.2612
 1789TIP3    H126858   6.106   1.017   2.037 -1.1746 -1.6729  0.2331
 1789TIP3    H226859   6.236   0.941   2.050 -1.7349 -2.4315  1.6712
 1790TIP3   OH226860   0.967   6.799  12.655 -1.1486  0.2382 -0.6426
 1790TIP3    H126861   0.959   6.730  12.589  1.7804 -0.5541 -0.2818
 1790TIP3    H226862   0.990   6.753  12.736  0.5844  1.5885 -0.3199
 1791TIP3   OH226863   3.839   5.585  15.324 -0.0913  0.5649 -0.2770
 1791TIP3    H126864   3.800   5.577  15.236 -2.5280 -0.5285  0.7946
 1791TIP3    H226865   3.927   5.549  15.314 -1.2767 -2.3266 -1.7233
 1792TIP3   OH226866   0.417   2.903   6.175  0.7929 -0.1328 -0.0201
 1792TIP3    H126867   0.452   2.814   6.172  0.1655 -0.3681 -1.3527
 1792TIP3    H226868   0.446   2.943   6.093  0.4542  0.6541  0.2285
 1793TIP3   OH226869   1.699   6.701   4.941 -0.3382  0.3687 -0.0475
 1793TIP3    H126870   1.738   6.641   4.878 -2.7072  0.3082 -1.6034
 1793TIP3    H226871   1.672   6.645   5.014 -0.3718 -0.0677 -0.3903
 1794TIP3   OH226872   5.832   0.822  11.301 -0.1806 -0.2868  0.5488
 1794TIP3    H126873   5.829   0.726  11.306  0.1917 -0.3433 -0.1515
 1794TIP3    H226874   5.790   0.843  11.218  0.6228  0.0888  0.2221
 1795TIP3   OH226875   3.229   6.290  13.424  0.5811  0.2270  0.0306
 1795TIP3    H126876   3.216   6.223  13.357 -0.4077 -2.2229  2.4858
 1795TIP3    H226877   3.319   6.276  13.454  1.6230  2.4418 -1.8224
 1796TIP3   OH226878   5.772   4.604  11.979 -0.2614 -0.4842  0.5031
 1796TIP3    H126879   5.746   4.515  12.001 -0.2927 -0.1896  1.7873
 1796TIP3    H226880   5.733   4.658  12.048 -0.9120  0.6256 -0.6916
 1797TIP3   OH226881   4.093   6.288   0.324  0.6899 -0.0227 -0.3666
 1797TIP3    H126882   4.136   6.242   0.252 -0.0590  0.1910 -0.9582
 1797TIP3    H226883   4.054   6.366   0.284  1.9250  1.1515  0.6259
 1798TIP3   OH226884   6.804   0.135  13.328  0.1794  0.7538 -0.1839
 1798TIP3    H126885   6.896   0.125  13.354  0.9598 -0.8244 -3.0507
 1798TIP3    H226886   6.758   0.066  13.375  0.7169  0.7159  0.2945
 1799TIP3   OH226887   5.208   5.312   1.424 -0.4952 -0.2499 -0.1528
 1799TIP3    H126888   5.241   5.382   1.481  1.2762 -0.3213 -1.0059
 1799TIP3    H226889   5.142   5.267   1.477  0.4858  0.1990  1.5436
 1800TIP3   OH226890   3.224   6.430  11.116 -0.0685 -0.2356  0.0772
 1800TIP3    H126891   3.260   6.482  11.188  1.2614  0.1930 -0.8475
 1800TIP3    H226892   3.297   6.373  11.089 -0.6215 -0.5750 -0.7587
 1801TIP3   OH226893   1.357   1.252   5.162 -0.3720 -1.0462  0.2060
 1801TIP3    H126894   1.328   1.337   5.197  0.3340 -0.7889  0.1869
 1801TIP3    H226895   1.323   1.250   5.072 -2.2321 -1.7295  0.8715
 1802TIP3   OH226896   6.337   5.881   0.532 -0.8740 -0.1935 -0.6644
 1802TIP3    H126897   6.387   5.963   0.530 -0.0894 -0.6579 -0.7864
 1802TIP3    H226898   6.247   5.908   0.546 -0.3528  0.5829  1.6821
 1803TIP3   OH226899   3.648   4.075  13.905 -0.8894  0.5984 -0.3213
 1803TIP3    H126900   3.573   4.083  13.846 -1.9586  0.9545  1.0384
 1803TIP3    H226901   3.609   4.061  13.991  0.6394 -0.1736  0.2757
 1804TIP3   OH226902   0.230   3.621  13.965 -0.2088  0.0745  0.4918
 1804TIP3    H126903   0.292   3.683  14.001  1.9902 -0.4283 -2.1054
 1804TIP3    H226904   0.272   3.588  13.886 -2.3006 -2.9395  0.4592
 1805TIP3   OH226905   0.049   4.580   0.048  0.1873  0.2040 -0.0349
 1805TIP3    H126906   0.029   4.645   0.115  1.3467  0.7886 -0.2368
 1805TIP3    H226907   0.057   4.630  -0.033 -1.0340 -0.4776 -0.5946
 1806TIP3   OH226908   3.859   6.482  14.472 -0.2109 -0.1646  0.0399
 1806TIP3    H126909   3.918   6.551  14.503  0.3678  0.1703 -1.7188
 1806TIP3    H226910   3.826   6.514  14.388 -0.8333 -1.5394 -0.2637
 1807TIP3   OH226911   3.761   3.729  11.078 -0.7958  0.0046 -0.1636
 1807TIP3    H126912   3.817   3.696  11.009 -0.4022  0.7304 -0.2038
 1807TIP3    H226913   3.673   3.701  11.054 -0.2910 -2.7176  0.8322
 1808TIP3   OH226914   1.066   3.492   3.657 -0.1250  0.0265 -0.0345
 1808TIP3    H126915   1.104   3.417   3.703  2.2572  0.5925 -0.9144
 1808TIP3    H226916   1.055   3.462   3.567  0.0795  0.4690 -0.2124
 1809TIP3   OH226917   0.798   4.798  15.373 -0.8604  0.0620  0.7120
 1809TIP3    H126918   0.725   4.736  15.376 -0.3300 -0.5404  1.9544
 1809TIP3    H226919   0.869   4.754  15.421  0.1258  0.8754  0.0344
 1810TIP3   OH226920   2.652   0.982   3.187 -0.6335  0.7941  0.4300
 1810TIP3    H126921   2.657   1.015   3.276 -1.2184  1.6717  0.1443
 1810TIP3    H226922   2.703   1.045   3.135  0.2054 -0.0310  0.2215
 1811TIP3   OH226923   5.008   2.456   1.191  0.0739 -0.9436  0.1749
 1811TIP3    H126924   5.009   2.411   1.275  1.5786 -0.5859  0.3692
 1811TIP3    H226925   5.026   2.548   1.213  1.0208 -0.9355 -0.5711
 1812TIP3   OH226926   0.185   1.598   5.185 -0.1811  0.0483 -0.0405
 1812TIP3    H126927   0.204   1.680   5.140 -0.3402  0.2500  0.2563
 1812TIP3    H226928   0.108   1.563   5.141  1.1876 -1.0812 -1.6585
 1813TIP3   OH226929   2.264   2.709  10.590 -0.0124 -0.3599  0.3328
 1813TIP3    H126930   2.344   2.675  10.550 -1.0237 -0.5728 -1.6653
 1813TIP3    H226931   2.261   2.801  10.562 -0.8251 -0.5559 -0.2875
 1814TIP3   OH226932   3.711   2.281  13.611 -0.0799 -0.1527 -0.0249
 1814TIP3    H126933   3.647   2.352  13.619  1.9629  1.8691 -0.5945
 1814TIP3    H226934   3.699   2.248  13.522 -1.5464 -1.1352  0.4840
 1815TIP3   OH226935   6.463   2.748  10.775 -0.2790  0.2365 -0.1163
 1815TIP3    H126936   6.479   2.671  10.828  1.3334 -0.3451 -1.3667
 1815TIP3    H226937   6.370   2.742  10.752 -0.0428 -1.7279 -0.7520
 1816TIP3   OH226938   0.887   2.401   0.478  0.0705 -0.0946 -0.2280
 1816TIP3    H126939   0.823   2.330   0.474 -0.5095  0.4461 -0.7554
 1816TIP3    H226940   0.967   2.363   0.441  0.5100 -1.2181  1.7692
 1817TIP3   OH226941   3.185   3.428  12.820  0.2379 -0.1133 -0.0843
 1817TIP3    H126942   3.091   3.417  12.832  0.0025  0.0864 -1.5497
 1817TIP3    H226943   3.208   3.366  12.750  1.6087 -1.7164  1.6945
 1818TIP3   OH226944   3.245   5.425  14.425  0.4647 -0.2692 -0.8314
 1818TIP3    H126945   3.275   5.355  14.483 -0.0913  1.2458  1.4402
 1818TIP3    H226946   3.149   5.420  14.430  0.4142 -0.0575 -1.5379
 1819TIP3   OH226947   1.911   4.545  11.523  0.2617 -0.2492 -0.3714
 1819TIP3    H126948   1.973   4.617  11.511  0.0375  0.0214  0.1094
 1819TIP3    H226949   1.857   4.571  11.597 -0.0987 -0.7201 -0.4645
 1820TIP3   OH226950   2.591   6.224   0.330 -0.0808 -0.4899 -0.2715
 1820TIP3    H126951   2.654   6.248   0.263 -0.3782 -0.5946 -0.5873
 1820TIP3    H226952   2.543   6.304   0.349 -0.3505 -0.5785 -0.5624
 1821TIP3   OH226953   3.782   3.640   4.980 -0.4098 -0.0251 -0.6584
 1821TIP3    H126954   3.733   3.651   4.899  1.4918  1.0487 -1.7566
 1821TIP3    H226955   3.860   3.694   4.968  0.6902 -1.0598  1.2586
 1822TIP3   OH226956   2.114   5.324  11.394 -0.1091  1.0889  0.3045
 1822TIP3    H126957   2.103   5.315  11.489  1.1909 -0.1185  0.3670
 1822TIP3    H226958   2.080   5.243  11.357  0.2321  1.1593 -0.1814
 1823TIP3   OH226959   0.982   3.170  14.914  0.1500  0.3658 -0.3825
 1823TIP3    H126960   0.902   3.204  14.956  0.6397  1.7843 -0.5390
 1823TIP3    H226961   0.956   3.153  14.824 -0.2877 -0.4002 -0.1249
 1824TIP3   OH226962   0.158   2.065   1.981  0.0901 -0.2738  0.3946
 1824TIP3    H126963   0.238   2.016   1.964 -0.5849 -1.0624 -0.6180
 1824TIP3    H226964   0.087   2.005   1.957 -0.7806  0.8569  0.0551
 1825TIP3   OH226965   2.081   3.569   2.924 -0.0757  0.1198 -0.1057
 1825TIP3    H126966   2.162   3.582   2.972 -0.3414 -0.1706  0.4340
 1825TIP3    H226967   2.106   3.572   2.832  0.5021  0.2911  0.0572
 1826TIP3   OH226968   6.165   3.391  12.967  0.7074  0.1418 -0.4512
 1826TIP3    H126969   6.115   3.310  12.973  1.4842 -0.4183 -1.2880
 1826TIP3    H226970   6.126   3.449  13.033 -1.0580 -0.2578 -1.0999
 1827TIP3   OH226971   6.713   3.020   6.201 -0.1441 -0.0438 -0.2720
 1827TIP3    H126972   6.702   3.038   6.108  0.7055  3.0399  0.1294
 1827TIP3    H226973   6.806   3.033   6.218 -0.1587 -1.2475  0.9123
 1828TIP3   OH226974   3.901   6.072  13.430  0.0197  0.3283 -0.1312
 1828TIP3    H126975   3.966   6.018  13.475 -0.7959 -1.9872 -1.5217
 1828TIP3    H226976   3.862   6.126  13.498 -0.6273 -2.4472  1.8549
 1829TIP3   OH226977   1.196   0.614  12.298  0.0492  0.2686 -0.1706
 1829TIP3    H126978   1.206   0.523  12.327 -1.0007  0.1880 -0.0024
 1829TIP3    H226979   1.123   0.611  12.237  0.6996  0.8398 -0.9945
 1830TIP3   OH226980   2.778   6.085   2.401 -0.0403  0.7042 -0.0273
 1830TIP3    H126981   2.859   6.101   2.448  0.6081 -0.1551 -0.8013
 1830TIP3    H226982   2.735   6.171   2.396  0.9936  1.2398  0.0699
 1831TIP3   OH226983   0.269   3.541  13.403 -0.8161  0.3926 -0.1174
 1831TIP3    H126984   0.347   3.594  13.418  0.1026 -0.4201 -1.8028
 1831TIP3    H226985   0.209   3.599  13.356 -0.6960  0.5977 -0.0183
 1832TIP3   OH226986   6.055   5.046  11.051  0.0878 -0.3512  0.3692
 1832TIP3    H126987   6.138   5.069  11.009 -0.8172  1.6455 -0.4529
 1832TIP3    H226988   6.003   5.005  10.981  0.1134 -0.9933  0.7123
 1833TIP3   OH226989   4.019   0.999  12.780 -0.1721 -0.0734 -0.1267
 1833TIP3    H126990   4.001   1.084  12.821  0.7302 -0.1303  0.4077
 1833TIP3    H226991   4.049   0.943  12.851  1.7803 -0.0653 -0.8944
 1834TIP3   OH226992   1.371   1.904   3.743 -0.4169  0.4853 -0.0398
 1834TIP3    H126993   1.319   1.826   3.724  0.6721 -0.5662  1.1484
 1834TIP3    H226994   1.457   1.885   3.705 -0.2101  1.2367  0.0317
 1835TIP3   OH226995   6.672   6.251   4.108  0.1620 -0.0397  0.1360
 1835TIP3    H126996   6.754   6.204   4.119 -0.8053 -2.1217 -0.8447
 1835TIP3    H226997   6.604   6.183   4.118 -1.2607  0.6691 -3.1682
 1836TIP3   OH226998   1.970   6.521   6.519  0.5270 -0.7855  0.3375
 1836TIP3    H126999   1.949   6.551   6.608  1.0838  0.3811  0.1024
 1836TIP3    H227000   1.988   6.428   6.528 -0.4726 -0.9042  1.2611
 1837TIP3   OH227001   6.628   3.953  12.391  0.2629 -0.7250 -0.1737
 1837TIP3    H127002   6.583   3.877  12.426 -0.5004  0.2210  0.9910
 1837TIP3    H227003   6.663   3.998  12.468  0.8123  0.0404 -0.8468
 1838TIP3   OH227004   0.588   6.403   5.769 -0.5465  0.2432  0.4528
 1838TIP3    H127005   0.564   6.314   5.742 -0.6545  0.0928  1.0188
 1838TIP3    H227006   0.504   6.447   5.782 -0.6310  1.7083 -3.6442
 1839TIP3   OH227007   4.951   6.608   0.476 -0.1397 -0.5068  0.3637
 1839TIP3    H127008   4.959   6.578   0.385 -2.0020 -1.1382  0.3719
 1839TIP3    H227009   4.945   6.528   0.527  3.9523 -0.3127  1.5192
 1840TIP3   OH227010   2.240   3.846  15.663 -0.1166  0.0133  0.4600
 1840TIP3    H127011   2.276   3.933  15.677  0.4398  0.1214 -1.3746
 1840TIP3    H227012   2.200   3.851  15.576 -0.7485 -1.3487  0.6528
 1841TIP3   OH227013   4.088   6.173  12.241 -0.8191 -0.1982 -0.0257
 1841TIP3    H127014   4.069   6.111  12.312 -0.1578  1.1078  1.3725
 1841TIP3    H227015   4.173   6.146  12.208 -0.5439 -0.0800  0.5637
 1842TIP3   OH227016   5.434   2.108   1.851  0.1134 -0.0536 -0.5982
 1842TIP3    H127017   5.393   2.052   1.917  0.3912 -0.1744 -0.5246
 1842TIP3    H227018   5.519   2.130   1.889  0.6210 -0.8037 -1.2665
 1843TIP3   OH227019   1.313   0.873  14.471 -0.1616 -0.2009 -0.2325
 1843TIP3    H127020   1.266   0.957  14.472  1.0768  0.5130  0.1170
 1843TIP3    H227021   1.404   0.896  14.489  0.7549 -1.3016 -2.8838
 1844TIP3   OH227022   2.802   3.857   1.919  0.4280 -0.0365  0.3912
 1844TIP3    H127023   2.729   3.799   1.896  0.5729  0.5563 -1.8206
 1844TIP3    H227024   2.768   3.945   1.904  1.6363  0.2442 -0.9578
 1845TIP3   OH227025   1.357   2.571   1.373  0.0933  0.0025  0.4935
 1845TIP3    H127026   1.355   2.540   1.464 -1.8079  2.3756  1.3654
 1845TIP3    H227027   1.275   2.619   1.362  0.6144  0.4310 -2.2738
 1846TIP3   OH227028   2.967   2.957  15.931  0.1606 -0.7935 -0.3287
 1846TIP3    H127029   3.057   2.950  15.899  0.3849  0.1739  0.0295
 1846TIP3    H227030   2.931   3.033  15.886  0.1984  0.0617  1.0009
 1847TIP3   OH227031   4.037   6.488  15.063 -0.0231 -0.6216  0.2137
 1847TIP3    H127032   4.050   6.558  14.999 -1.2222  0.3000  0.9295
 1847TIP3    H227033   4.120   6.441  15.065  1.1538  1.3595  0.3849
 1848TIP3   OH227034   5.226   5.298   4.043 -0.3663  0.0369  0.3725
 1848TIP3    H127035   5.246   5.262   4.129 -1.2317  1.9102  1.4127
 1848TIP3    H227036   5.131   5.293   4.036 -0.3591  0.5234 -0.1745
 1849TIP3   OH227037   0.755   3.332  12.082 -0.0584  0.2373 -0.4400
 1849TIP3    H127038   0.767   3.303  11.991 -1.4238 -0.6875 -0.3541
 1849TIP3    H227039   0.839   3.370  12.106  1.1191 -1.6163 -1.3516
 1850TIP3   OH227040   5.033   2.664   0.374 -0.0553 -0.4124 -0.2913
 1850TIP3    H127041   4.999   2.580   0.404 -0.5951 -0.5428 -1.2174
 1850TIP3    H227042   5.107   2.682   0.432  1.2355 -2.4377 -1.1804
 1851TIP3   OH227043   1.857   3.627  15.606  0.4294  0.4339  0.3135
 1851TIP3    H127044   1.807   3.705  15.582  0.5987  1.1569  2.1472
 1851TIP3    H227045   1.893   3.647  15.693  2.5405 -0.7238 -0.2245
 1852TIP3   OH227046   5.244   0.334  12.165 -0.6677  0.1525  0.6120
 1852TIP3    H127047   5.150   0.336  12.148 -0.9242  2.4044  1.9107
 1852TIP3    H227048   5.252   0.307  12.256  0.0017 -0.4927  0.3788
 1853TIP3   OH227049   0.444   5.345   0.174  0.1830 -0.6970  0.2448
 1853TIP3    H127050   0.521   5.381   0.131 -0.1615 -0.9836 -0.6264
 1853TIP3    H227051   0.429   5.261   0.131 -0.8565 -0.4553  0.1022
 1854TIP3   OH227052   0.891   0.356  11.568 -0.3619 -0.0027 -0.5611
 1854TIP3    H127053   0.855   0.294  11.631 -1.0019  0.5967 -0.3242
 1854TIP3    H227054   0.830   0.351  11.494 -0.8015  0.8298 -0.2643
 1855TIP3   OH227055   3.381   1.732  11.345 -0.6333 -0.0163 -0.2886
 1855TIP3    H127056   3.407   1.647  11.309 -1.1003 -0.5865  0.6599
 1855TIP3    H227057   3.416   1.796  11.284  1.6171 -0.7992  0.0764
 1856TIP3   OH227058   4.255   6.374  16.961  0.0293 -0.3156  0.2123
 1856TIP3    H127059   4.221   6.461  16.980 -0.0810 -0.2535 -0.2470
 1856TIP3    H227060   4.350   6.384  16.964  0.0175 -0.3571  0.9173
 1857TIP3   OH227061   4.085   0.350   5.804  0.0991  0.2994 -0.1846
 1857TIP3    H127062   3.993   0.335   5.781  0.6917 -1.8866 -1.4713
 1857TIP3    H227063   4.131   0.275   5.765  2.6017  2.0113 -0.7103
 1858TIP3   OH227064   3.462   5.478   0.668 -0.0915  0.0691  0.3707
 1858TIP3    H127065   3.525   5.503   0.600 -1.1299  0.6479 -0.4077
 1858TIP3    H227066   3.514   5.473   0.748  0.9346  0.5707 -0.2459
 1859TIP3   OH227067   4.811   5.771   4.248 -0.1446 -0.0982  0.6230
 1859TIP3    H127068   4.828   5.851   4.298 -1.4595  1.8368 -1.7764
 1859TIP3    H227069   4.717   5.775   4.229  0.1735 -1.0728 -1.3542
 1860TIP3   OH227070   6.760   2.291  15.241  0.2270  0.2258 -0.5672
 1860TIP3    H127071   6.679   2.312  15.287  0.5114  2.2776 -0.9242
 1860TIP3    H227072   6.741   2.210  15.195 -2.1047  1.3416 -1.7370
 1861TIP3   OH227073   4.550   2.569  11.008 -0.1478  0.8326  0.2519
 1861TIP3    H127074   4.560   2.502  11.076 -0.0251  1.4717  0.8867
 1861TIP3    H227075   4.619   2.632  11.026  2.2343 -0.7269 -2.6620
 1862TIP3   OH227076   4.945   3.841  15.726 -0.4180  0.7036  0.7662
 1862TIP3    H127077   4.978   3.912  15.671  0.4858  0.8298  1.4451
 1862TIP3    H227078   5.020   3.815  15.779 -0.9574 -0.2120  1.1096
 1863TIP3   OH227079   1.751   1.429  16.949 -0.2401 -0.2919  0.5875
 1863TIP3    H127080   1.656   1.432  16.961 -0.2316  0.7393  0.4993
 1863TIP3    H227081   1.786   1.487  17.017  0.2341  0.3834 -0.2132
 1864TIP3   OH227082   4.218   5.767  13.777 -0.5483  0.4257  0.2450
 1864TIP3    H127083   4.228   5.672  13.785  1.2845  0.6351  0.8523
 1864TIP3    H227084   4.181   5.795  13.860  1.4436  0.5156  1.1469
 1865TIP3   OH227085   5.833   4.992  11.487 -0.0099  0.0014  0.2234
 1865TIP3    H127086   5.756   5.027  11.442  0.7047  0.0612 -0.9850
 1865TIP3    H227087   5.796   4.938  11.557 -1.2412 -1.5999 -1.5416
 1866TIP3   OH227088   4.783   6.410  11.397  0.6605  0.3115 -0.7738
 1866TIP3    H127089   4.736   6.432  11.317  0.6077  0.1358 -0.7915
 1866TIP3    H227090   4.759   6.320  11.415 -0.2590  0.7165  0.0891
 1867TIP3   OH227091   1.326   2.567   5.041 -0.6527 -0.2155 -0.6379
 1867TIP3    H127092   1.402   2.510   5.034  0.4838  1.2898 -1.1476
 1867TIP3    H227093   1.360   2.647   5.082 -1.7496  0.8223 -1.6831
 1868TIP3   OH227094   4.201   3.976  15.469 -0.7322  0.6051 -0.4024
 1868TIP3    H127095   4.224   4.064  15.499 -0.7666  0.8272 -1.0059
 1868TIP3    H227096   4.106   3.972  15.477 -0.6545  0.3039  0.4550
 1869TIP3   OH227097   0.665   4.001   5.721  0.5411  1.0662 -0.2438
 1869TIP3    H127098   0.594   3.998   5.785 -0.4023  0.1292 -1.2752
 1869TIP3    H227099   0.745   3.990   5.772 -0.0502  1.9938  0.9262
 1870TIP3   OH227100   2.640   6.318   2.584 -0.6438  0.2135 -0.5597
 1870TIP3    H127101   2.657   6.412   2.594  0.2546 -0.0158  0.2244
 1870TIP3    H227102   2.663   6.280   2.669 -1.1560 -0.7026 -0.8106
 1871TIP3   OH227103   4.268   3.719  14.919 -0.1552  0.4507 -0.1367
 1871TIP3    H127104   4.354   3.686  14.946 -0.9752 -1.6080  0.1844
 1871TIP3    H227105   4.252   3.794  14.976  1.0119  0.2565  0.4768
 1872TIP3   OH227106   4.958   3.804  10.776  0.5428  0.2872  0.7513
 1872TIP3    H127107   5.013   3.767  10.845 -0.7606 -3.2357  0.1220
 1872TIP3    H227108   4.874   3.820  10.817  0.1058 -0.7348  0.2987
 1873TIP3   OH227109   0.532   6.806   5.433  0.3542  0.6244  0.2220
 1873TIP3    H127110   0.556   6.720   5.468  1.7130  0.7158 -0.4082
 1873TIP3    H227111   0.450   6.791   5.387  0.5500 -0.3327  0.1535
 1874TIP3   OH227112   4.836   3.262  16.726 -0.0386 -0.0686 -0.2884
 1874TIP3    H127113   4.816   3.279  16.634 -2.1553 -1.1631 -0.1047
 1874TIP3    H227114   4.877   3.176  16.726 -0.7027 -0.3890 -0.1581
 1875TIP3   OH227115   4.803   2.650   4.674 -0.2702 -0.2765 -0.2783
 1875TIP3    H127116   4.788   2.686   4.761 -1.3425  0.9439 -0.9210
 1875TIP3    H227117   4.725   2.599   4.654  0.1961 -0.9878 -0.3331
 1876TIP3   OH227118   0.553   5.594   2.182  0.5111 -0.2041 -0.3355
 1876TIP3    H127119   0.562   5.689   2.174  1.4918 -0.3532 -1.2755
 1876TIP3    H227120   0.564   5.576   2.275  0.5601  0.5854 -0.1825
 1877TIP3   OH227121   2.248   1.004  13.031  0.1700  0.2421 -0.0364
 1877TIP3    H127122   2.285   0.919  13.008 -0.7700  0.1770 -1.3873
 1877TIP3    H227123   2.223   1.044  12.948 -1.4749  0.8678  0.7010
 1878TIP3   OH227124   3.272   6.252   6.431  0.3583 -0.5213  0.0906
 1878TIP3    H127125   3.231   6.166   6.437  0.6646 -0.6510  0.3469
 1878TIP3    H227126   3.341   6.241   6.366  2.0119 -1.1350  1.8773
 1879TIP3   OH227127   6.207   4.619  12.873 -0.5878 -0.0581 -0.0469
 1879TIP3    H127128   6.182   4.527  12.864  0.2174 -0.2461 -0.4079
 1879TIP3    H227129   6.279   4.619  12.936 -0.8997  0.3798  0.3127
 1880TIP3   OH227130   4.729   4.122   6.671 -0.0257  0.8291  0.6552
 1880TIP3    H127131   4.668   4.085   6.735  0.8509 -0.1925  0.9296
 1880TIP3    H227132   4.785   4.048   6.646 -0.2797  1.2408 -1.2203
 1881TIP3   OH227133   5.407   2.681  16.338 -0.2575 -0.1764 -0.2051
 1881TIP3    H127134   5.413   2.690  16.243 -0.2363 -2.6950 -0.5205
 1881TIP3    H227135   5.350   2.605  16.351 -1.9841  1.3364  1.8809
 1882TIP3   OH227136   0.053   6.014   3.749 -0.2128 -0.4501  0.0106
 1882TIP3    H127137   0.105   5.937   3.773  0.9291  0.6891  1.4020
 1882TIP3    H227138   0.112   6.068   3.697 -0.3263  0.3728  0.7116
 1883TIP3   OH227139   1.220   3.228  16.445  0.6169 -0.3539  0.3638
 1883TIP3    H127140   1.149   3.273  16.399  1.0462  1.9166  1.7338
 1883TIP3    H227141   1.221   3.140  16.408 -1.3156  0.2787 -1.3995
 1884TIP3   OH227142   1.920   4.639   6.231  0.2386  0.2819 -0.1219
 1884TIP3    H127143   1.835   4.597   6.242  0.8431 -0.7803  0.7394
 1884TIP3    H227144   1.904   4.711   6.170 -1.1307 -0.3056 -0.4872
 1885TIP3   OH227145   0.556   3.574  14.240 -0.0036  0.1387 -0.7174
 1885TIP3    H127146   0.536   3.531  14.157 -1.4916 -2.3609  0.8082
 1885TIP3    H227147   0.481   3.629  14.258 -0.6075 -0.8326 -0.1595
 1886TIP3   OH227148   1.712   3.838  15.529 -0.0712  0.1390 -0.0358
 1886TIP3    H127149   1.674   3.919  15.562  0.7754  0.1304  0.9966
 1886TIP3    H227150   1.729   3.856  15.436 -2.1950  0.2620 -0.4513
 1887TIP3   OH227151   0.733   5.870  16.576  0.0998  0.2935 -0.3187
 1887TIP3    H127152   0.645   5.850  16.606 -0.4582 -2.1082 -3.0975
 1887TIP3    H227153   0.721   5.904  16.487  1.9440  0.4864 -0.5386
 1888TIP3   OH227154   1.246   2.082  12.170 -0.3314 -0.2697 -0.2838
 1888TIP3    H127155   1.296   2.027  12.231 -2.6433 -1.5494  0.6003
 1888TIP3    H227156   1.304   2.156  12.151  1.6950 -1.4427  0.9622
 1889TIP3   OH227157   2.655   5.689   0.065  1.1286 -0.1728  0.0955
 1889TIP3    H127158   2.664   5.612   0.009  1.7442 -0.8409  1.0734
 1889TIP3    H227159   2.670   5.655   0.154 -1.9667  0.4007  0.9530
 1890TIP3   OH227160   2.546   3.978   0.969  0.1748 -0.0580  0.5791
 1890TIP3    H127161   2.485   4.051   0.967  1.3767  0.9800 -0.9637
 1890TIP3    H227162   2.500   3.906   0.926 -0.3070  0.4129  0.3028
 1891TIP3   OH227163   0.078   3.318  13.155  0.1982 -0.3540  0.5711
 1891TIP3    H127164   0.025   3.293  13.231 -1.2358 -0.9547 -0.5979
 1891TIP3    H227165   0.063   3.250  13.090  1.5010  0.0810 -0.2343
 1892TIP3   OH227166   0.989   3.728  14.680  0.2394 -0.3999 -0.0218
 1892TIP3    H127167   0.901   3.713  14.646 -0.0526 -2.5971  1.5283
 1892TIP3    H227168   1.035   3.646  14.665  0.6885 -0.7925  2.9761
 1893TIP3   OH227169   4.002   6.002  16.558  0.3683  0.8505  0.3297
 1893TIP3    H127170   3.927   5.983  16.502 -0.3085 -0.3086  1.5748
 1893TIP3    H227171   4.077   5.966  16.511 -0.2874 -0.7992  0.4735
 1894TIP3   OH227172   0.146   0.902   1.526  0.1932 -0.5437 -0.3178
 1894TIP3    H127173   0.198   0.924   1.603 -1.8292 -0.7329  1.2009
 1894TIP3    H227174   0.119   0.811   1.540 -0.8253 -0.3433 -0.8540
 1895TIP3   OH227175   0.179   1.434   4.273 -0.1281  0.3809 -0.0795
 1895TIP3    H127176   0.180   1.522   4.312  0.0841  0.8135 -1.0284
 1895TIP3    H227177   0.087   1.413   4.262 -0.2912 -0.6122  2.4808
 1896TIP3   OH227178   0.716   2.242  12.793 -0.5270 -0.0063  0.1103
 1896TIP3    H127179   0.790   2.228  12.734 -0.3947  1.1093 -0.0111
 1896TIP3    H227180   0.682   2.154  12.811  0.4106 -0.4757 -0.3631
 1897TIP3   OH227181   2.177   5.793   5.040 -0.2627 -0.2760  0.0802
 1897TIP3    H127182   2.188   5.803   4.945 -0.9584 -0.4759 -0.0297
 1897TIP3    H227183   2.139   5.705   5.050 -0.2187 -0.2430  0.5399
 1898TIP3   OH227184   5.648   1.384  15.014  0.0074  0.0919 -0.0614
 1898TIP3    H127185   5.605   1.338  15.086  2.3284 -1.9304  0.1772
 1898TIP3    H227186   5.576   1.424  14.964 -1.7235  0.8688  2.8459
 1899TIP3   OH227187   5.092   1.621  14.739 -0.3956 -0.4847 -0.0281
 1899TIP3    H127188   5.120   1.650  14.826  0.1242  0.4873 -0.5123
 1899TIP3    H227189   5.036   1.691  14.707 -1.0660 -1.1068 -0.2502
 1900TIP3   OH227190   3.470   1.298  13.103  0.2640  0.2391  0.1743
 1900TIP3    H127191   3.421   1.358  13.159  1.3684  1.0056  0.3665
 1900TIP3    H227192   3.561   1.307  13.132  0.8512  0.4996 -1.5732
 1901TIP3   OH227193   4.050   4.092  14.462  0.4592 -0.6626 -0.4085
 1901TIP3    H127194   3.960   4.090  14.496  0.6413 -1.9263  0.0335
 1901TIP3    H227195   4.084   4.177  14.492 -0.6374 -0.0758 -0.7542
 1902TIP3   OH227196   1.946   0.178   5.417 -0.2030  0.7956 -0.2100
 1902TIP3    H127197   1.913   0.267   5.404 -0.3340  0.6545 -0.8920
 1902TIP3    H227198   1.892   0.142   5.487 -0.9680  0.8460 -0.7599
 1903TIP3   OH227199   2.336   0.054   0.676 -0.3856 -0.2238  0.0407
 1903TIP3    H127200   2.386  -0.025   0.653  0.1983  0.8231 -2.6614
 1903TIP3    H227201   2.384   0.091   0.750  1.3703 -0.6319 -0.8303
 1904TIP3   OH227202   4.833   0.218  14.781 -0.2842 -0.6421 -0.0788
 1904TIP3    H127203   4.878   0.184  14.704  1.2332 -1.6651  1.2131
 1904TIP3    H227204   4.789   0.142  14.820 -0.0970 -0.3673  0.6879
 1905TIP3   OH227205   3.934   3.843   4.843 -0.4163 -0.8363 -0.3458
 1905TIP3    H127206   4.029   3.840   4.857 -0.4254 -0.5834 -0.2184
 1905TIP3    H227207   3.924   3.849   4.748 -0.3201 -1.4304 -0.3986
 1906TIP3   OH227208   2.638   2.892  14.795 -0.0811 -0.4056 -0.1102
 1906TIP3    H127209   2.669   2.824  14.734  0.4054 -0.6722  0.4178
 1906TIP3    H227210   2.596   2.957  14.739 -0.2240 -0.9628 -0.6665
 1907TIP3   OH227211   0.635   4.598  16.665  0.4597  0.1576 -0.2674
 1907TIP3    H127212   0.692   4.665  16.703  1.5555 -1.2852  0.7719
 1907TIP3    H227213   0.576   4.574  16.736  0.0740  0.0321 -0.6291
 1908TIP3   OH227214   4.562   3.712  10.705  0.3108 -0.0655 -0.1060
 1908TIP3    H127215   4.536   3.782  10.645 -1.7954 -0.9303 -0.3056
 1908TIP3    H227216   4.638   3.672  10.664 -0.3916  0.1106 -1.6510
 1909TIP3   OH227217   3.906   2.636   4.960 -0.2459  0.2832 -0.0131
 1909TIP3    H127218   3.896   2.693   5.037  0.2317 -0.3507  0.5285
 1909TIP3    H227219   3.826   2.651   4.909 -1.1615 -0.2012  1.2249
 1910TIP3   OH227220   3.878   0.847  17.186  0.1156 -0.4411 -0.0792
 1910TIP3    H127221   3.897   0.916  17.123 -0.6571 -0.1878 -0.0467
 1910TIP3    H227222   3.823   0.785  17.137 -0.4241 -0.2806  0.3097
 1911TIP3   OH227223   1.967   0.182   4.047 -0.1776  0.9052 -0.0110
 1911TIP3    H127224   2.055   0.217   4.032  0.4474 -0.0660  1.2213
 1911TIP3    H227225   1.922   0.196   3.964  0.9857  1.8410 -0.5267
 1912TIP3   OH227226   4.881   6.294   5.534 -0.2247 -0.3082  0.7459
 1912TIP3    H127227   4.936   6.286   5.612  0.6880 -1.6263  0.0249
 1912TIP3    H227228   4.943   6.282   5.461 -1.0721  0.7665 -0.1819
 1913TIP3   OH227229   5.146   1.564   4.514  0.0875 -0.0529  0.5376
 1913TIP3    H127230   5.241   1.567   4.526  0.3302 -1.9986 -0.4557
 1913TIP3    H227231   5.120   1.656   4.506  2.2167  0.4853 -1.3617
 1914TIP3   OH227232   6.794   5.395   1.043 -0.0992 -0.5046  0.2502
 1914TIP3    H127233   6.772   5.448   1.120  2.6734  0.0421  0.7806
 1914TIP3    H227234   6.726   5.327   1.041 -2.0708  1.3042  1.2747
 1915TIP3   OH227235   2.189   1.836  12.925  0.0883  0.0488  0.0397
 1915TIP3    H127236   2.169   1.891  13.001  0.6010  0.1385  0.1093
 1915TIP3    H227237   2.272   1.870  12.891  0.3047 -0.5483 -0.0410
 1916TIP3   OH227238   2.855   3.531   1.520 -0.5493 -0.0710 -0.4165
 1916TIP3    H127239   2.821   3.577   1.442  0.3732 -0.3600 -1.0101
 1916TIP3    H227240   2.907   3.597   1.565 -0.5268 -0.0883 -0.4171
 1917TIP3   OH227241   0.429   2.479  15.632 -0.1258  0.1701 -0.4930
 1917TIP3    H127242   0.374   2.447  15.704  0.5352 -0.9061 -0.4512
 1917TIP3    H227243   0.517   2.452  15.656  0.1066 -0.1612 -1.6949
 1918TIP3   OH227244   5.145   3.567   1.019  0.1973 -0.8615 -0.5069
 1918TIP3    H127245   5.067   3.621   1.008 -0.0848 -1.2109 -0.2220
 1918TIP3    H227246   5.194   3.611   1.089  0.6540 -0.1889 -1.2362
 1919TIP3   OH227247   0.735   5.970  15.498 -0.4485  0.5892 -0.3195
 1919TIP3    H127248   0.642   5.985  15.481 -0.6218 -0.4816 -0.3621
 1919TIP3    H227249   0.737   5.892  15.554  0.3848  1.0418  0.3089
 1920TIP3   OH227250   5.214   1.711  14.493  0.3411 -0.2999  0.6023
 1920TIP3    H127251   5.142   1.670  14.540 -0.7109  0.0841 -0.6166
 1920TIP3    H227252   5.172   1.771  14.431  1.7343  0.5913  0.4559
 1921TIP3   OH227253   5.900   0.425   0.975  0.6123 -0.4712 -0.1666
 1921TIP3    H127254   5.809   0.397   0.962  0.0407  0.2249  1.9762
 1921TIP3    H227255   5.906   0.510   0.929 -0.4945  0.5421  1.4748
 1922TIP3   OH227256   3.696   0.559   3.947  0.3728  0.3850  0.1379
 1922TIP3    H127257   3.699   0.540   3.853 -0.8659 -0.3714  0.2259
 1922TIP3    H227258   3.694   0.473   3.989  0.1851  0.7158  0.8213
 1923TIP3   OH227259   5.964   3.184  14.106 -0.0293  0.1264 -0.1218
 1923TIP3    H127260   5.894   3.226  14.156 -0.4075 -0.6110 -0.0085
 1923TIP3    H227261   6.005   3.255  14.056  1.0152  1.0708  1.9627
 1924TIP3   OH227262   0.641   6.641   6.478  0.0737 -0.0814 -0.4876
 1924TIP3    H127263   0.578   6.624   6.408  0.3535  0.5243 -0.8824
 1924TIP3    H227264   0.638   6.561   6.531  0.7441 -1.0517 -1.8518
 1925TIP3   OH227265   0.060   2.793  14.331 -0.4837  0.1482  0.3774
 1925TIP3    H127266   0.003   2.727  14.293  1.3094 -1.5425  0.4621
 1925TIP3    H227267   0.097   2.751  14.409  0.7628  1.2094  0.3924
 1926TIP3   OH227268   0.796   4.967   3.793  0.4679 -0.2238 -0.0119
 1926TIP3    H127269   0.800   4.899   3.726 -2.2257 -1.4217  0.8983
 1926TIP3    H227270   0.765   4.922   3.871 -3.0725  2.1910  0.2360
 1927TIP3   OH227271   1.847   4.058   0.255  0.2325 -0.0499 -0.3389
 1927TIP3    H127272   1.930   4.073   0.300  1.1449 -2.4111 -1.1057
 1927TIP3    H227273   1.800   3.996   0.312 -0.9419  1.0639 -0.0398
 1928TIP3   OH227274   0.765   4.868   3.170 -0.2740 -0.2783 -0.1678
 1928TIP3    H127275   0.840   4.821   3.136 -1.1314 -0.8124 -1.3608
 1928TIP3    H227276   0.694   4.849   3.109 -1.4813 -0.0772  1.1196
 1929TIP3   OH227277   0.826   4.882  14.085 -0.8816  1.0237 -0.3027
 1929TIP3    H127278   0.902   4.830  14.056 -1.7014 -0.5885  0.3034
 1929TIP3    H227279   0.805   4.846  14.172 -2.8917  0.7897 -0.8386
 1930TIP3   OH227280   1.483   5.757  16.453  0.1840  0.1328  0.0389
 1930TIP3    H127281   1.565   5.788  16.414  1.4345 -2.1486  0.7014
 1930TIP3    H227282   1.435   5.718  16.380 -0.1221  1.0389 -0.2567
 1931TIP3   OH227283   0.375   3.148   2.983  0.1253  0.3520  0.3728
 1931TIP3    H127284   0.450   3.156   2.924 -1.8879 -0.7964 -2.6127
 1931TIP3    H227285   0.346   3.058   2.972 -2.1770  0.9820  0.7104
 1932TIP3   OH227286   4.566   2.956   5.322  0.8082  0.2116  0.0334
 1932TIP3    H127287   4.649   2.961   5.370  0.2348  1.9510  0.9411
 1932TIP3    H227288   4.501   2.934   5.389  0.3798  0.0128 -0.4462
 1933TIP3   OH227289   2.345   6.371   5.949 -0.3232 -0.1536 -0.4631
 1933TIP3    H127290   2.338   6.364   5.854  2.8610 -0.9539 -0.7510
 1933TIP3    H227291   2.308   6.289   5.982 -1.2274  0.0275 -0.9899
 1934TIP3   OH227292   5.700   4.411  17.003 -0.5119 -0.1548 -0.3282
 1934TIP3    H127293   5.787   4.420  17.041 -0.0763  0.3424 -1.3999
 1934TIP3    H227294   5.641   4.410  17.078  0.4148 -0.4776  0.4064
 1935TIP3   OH227295   0.821   2.047  11.340 -0.4503 -0.0793  0.3180
 1935TIP3    H127296   0.879   2.105  11.290 -0.9865 -0.2954 -0.5901
 1935TIP3    H227297   0.816   2.086  11.427 -1.4778  1.7578 -0.5068
 1936TIP3   OH227298   5.143   3.494  12.064 -0.0492  0.2188  0.3905
 1936TIP3    H127299   5.107   3.408  12.084  0.0257  0.3356  1.0438
 1936TIP3    H227300   5.139   3.500  11.968 -0.9542 -0.1120  0.4009
 1937TIP3   OH227301   0.633   6.083  14.865  0.4366 -0.6295  0.3992
 1937TIP3    H127302   0.724   6.114  14.868  0.1460  0.6420 -1.6935
 1937TIP3    H227303   0.638   6.002  14.815  0.3766 -0.3348 -0.0891
 1938TIP3   OH227304   0.683   4.385   4.086  0.5431  0.1745 -0.1797
 1938TIP3    H127305   0.773   4.415   4.096  0.5823 -0.3581  1.3796
 1938TIP3    H227306   0.639   4.413   4.166 -0.0926 -1.5449  0.1166
 1939TIP3   OH227307   3.847   5.504   3.499 -0.5738  0.3778  0.0328
 1939TIP3    H127308   3.917   5.441   3.519 -0.4741  0.9334  1.6154
 1939TIP3    H227309   3.778   5.484   3.562 -0.8413  1.3558  0.0703
 1940TIP3   OH227310   4.795   3.867   5.949 -0.1154 -0.0959 -0.1823
 1940TIP3    H127311   4.804   3.902   5.860  1.4048 -1.2880 -0.5427
 1940TIP3    H227312   4.816   3.940   6.006 -2.1192  0.9826 -0.7344
 1941TIP3   OH227313   6.585   1.364  17.054 -0.2149  0.0371 -0.7755
 1941TIP3    H127314   6.582   1.280  17.101  0.6106  0.0356 -0.7189
 1941TIP3    H227315   6.607   1.428  17.121 -0.2199  0.2121 -0.9414
 1942TIP3   OH227316   1.276   3.817  16.031  0.0105  0.5509 -0.3069
 1942TIP3    H127317   1.364   3.829  16.068  0.0607 -0.9001  0.0737
 1942TIP3    H227318   1.233   3.902  16.045  1.2889  1.2437 -0.3722
 1943TIP3   OH227319   1.110   6.737   4.724  0.2244  0.0703  0.2324
 1943TIP3    H127320   1.080   6.680   4.795 -0.4812  1.6506  1.2528
 1943TIP3    H227321   1.205   6.732   4.727  0.1785 -0.6585  0.6307
 1944TIP3   OH227322   4.480   5.551   4.103  0.3031 -0.5632 -0.1174
 1944TIP3    H127323   4.463   5.645   4.105  0.1603 -0.5779 -0.4903
 1944TIP3    H227324   4.536   5.535   4.179 -1.3759 -0.5347  1.1701
 1945TIP3   OH227325   3.709   5.633  15.001  0.1730 -0.4828 -0.0386
 1945TIP3    H127326   3.773   5.577  14.958 -0.2260 -0.9252 -0.0628
 1945TIP3    H227327   3.624   5.595  14.978 -0.1573  0.6718 -0.8178
 1946TIP3   OH227328   0.671   3.294  13.125  0.3324 -0.0576 -0.0169
 1946TIP3    H127329   0.703   3.284  13.036  1.2858  0.0958  0.2982
 1946TIP3    H227330   0.669   3.205  13.160  0.1870 -0.0926 -0.1146
 1947TIP3   OH227331   1.481   0.361  14.976 -0.1232  0.4851  0.1471
 1947TIP3    H127332   1.402   0.353  15.030 -1.1348 -1.1078 -1.4282
 1947TIP3    H227333   1.550   0.320  15.028 -0.7460  0.2558  0.8130
 1948TIP3   OH227334   3.342   0.553   3.210 -0.7164  0.0836  0.8684
 1948TIP3    H127335   3.317   0.464   3.185 -0.6952  0.5192 -0.7913
 1948TIP3    H227336   3.259   0.602   3.212 -0.5356  0.4315  0.0302
 1949TIP3   OH227337   2.792   0.670  12.153 -0.3655  0.4281  0.0211
 1949TIP3    H127338   2.859   0.673  12.086 -0.7861 -0.5798 -0.4694
 1949TIP3    H227339   2.819   0.598  12.211 -1.8496 -1.1544 -1.1433
 1950TIP3   OH227340   6.036   6.484   5.772  0.0647 -0.6823 -0.0332
 1950TIP3    H127341   5.985   6.557   5.807 -1.3440 -0.8186 -1.6697
 1950TIP3    H227342   5.986   6.453   5.697  0.9181 -2.9793  0.2572
 1951TIP3   OH227343   3.156   0.729   5.571 -0.0736  0.1559 -0.5797
 1951TIP3    H127344   3.244   0.750   5.601  0.4056 -3.5524  1.1482
 1951TIP3    H227345   3.099   0.764   5.639  0.3726 -0.6491  0.2217
 1952TIP3   OH227346   5.068   6.241  16.804 -0.0091 -0.8334 -0.2930
 1952TIP3    H127347   5.070   6.217  16.712  1.0326  1.2819 -0.8909
 1952TIP3    H227348   5.151   6.209  16.840 -0.2745 -1.3798 -0.1636
 1953TIP3   OH227349   6.530   6.437   5.205 -0.5647  0.1709 -0.5292
 1953TIP3    H127350   6.597   6.384   5.160 -0.9254 -0.1630 -0.6776
 1953TIP3    H227351   6.523   6.516   5.153  0.6442  0.7934  0.2034
 1954TIP3   OH227352   1.025   1.537   0.995 -0.5799 -0.1692  0.1781
 1954TIP3    H127353   0.998   1.620   0.957  1.2237  1.4301  2.1445
 1954TIP3    H227354   0.962   1.520   1.066 -3.0416 -2.3920 -2.2937
 1955TIP3   OH227355   1.839   5.323  15.628 -0.2542  0.2825  0.3966
 1955TIP3    H127356   1.766   5.351  15.572 -0.4253 -1.9532 -0.6255
 1955TIP3    H227357   1.810   5.239  15.665  0.7712  0.6357  2.1099
 1956TIP3   OH227358   1.214   4.960   5.071  0.0117  0.3236  0.6088
 1956TIP3    H127359   1.178   5.035   5.119 -1.6298  0.5909 -0.9184
 1956TIP3    H227360   1.171   4.884   5.109  0.3696  0.3229  1.0129
 1957TIP3   OH227361   3.778   4.289  12.751 -0.2012  0.1838  0.3272
 1957TIP3    H127362   3.788   4.234  12.829 -1.4031  1.8253  1.7067
 1957TIP3    H227363   3.801   4.377  12.780 -0.4207  0.8020 -1.2569
 1958TIP3   OH227364   2.347   1.467   1.408 -0.3661 -0.2708 -0.2384
 1958TIP3    H127365   2.380   1.539   1.462 -2.7967 -0.0650  1.1347
 1958TIP3    H227366   2.401   1.392   1.432  1.8143  0.8804 -1.2390
 1959TIP3   OH227367   5.564   6.067   6.669 -0.0836  0.0491 -0.2272
 1959TIP3    H127368   5.603   6.116   6.597  0.0511  0.0746 -0.1352
 1959TIP3    H227369   5.603   5.980   6.663 -0.6711 -0.1986 -0.6843
 1960TIP3   OH227370   3.164   2.580   5.398 -0.0963 -0.2438 -0.3989
 1960TIP3    H127371   3.072   2.551   5.401  0.0585 -0.6929  1.7431
 1960TIP3    H227372   3.175   2.614   5.309 -2.2806 -0.3336 -0.7738
 1961TIP3   OH227373   6.683   4.460  16.122  0.0960  0.2472  0.2611
 1961TIP3    H127374   6.762   4.506  16.151 -0.2526  1.0359 -0.0052
 1961TIP3    H227375   6.611   4.506  16.165 -0.4376  1.4018 -1.6917
 1962TIP3   OH227376   0.743   0.109   5.289 -0.2593 -0.5381  0.7277
 1962TIP3    H127377   0.757   0.203   5.299 -1.5613  0.2014 -2.8595
 1962TIP3    H227378   0.668   0.090   5.345 -0.9355  0.9240  0.3608
 1963TIP3   OH227379   5.537   4.660   2.985 -0.3915  0.4998 -0.2982
 1963TIP3    H127380   5.491   4.582   3.017  0.7423  0.3782  1.1641
 1963TIP3    H227381   5.512   4.668   2.893 -3.6806  0.7182  0.4962
 1964TIP3   OH227382   0.300   4.864   2.306  0.2887  0.0406 -0.0947
 1964TIP3    H127383   0.348   4.894   2.384 -0.1171 -0.8993  0.5304
 1964TIP3    H227384   0.208   4.864   2.334  0.0198  0.7591 -0.9344
 1965TIP3   OH227385   3.775   4.157   6.439  0.2892 -0.0262  0.2107
 1965TIP3    H127386   3.811   4.104   6.368 -0.9920 -1.5432  0.6458
 1965TIP3    H227387   3.784   4.102   6.517 -1.8453  0.0151  0.5268
 1966TIP3   OH227388   6.619   1.049  14.326 -0.1192  0.6979 -0.4444
 1966TIP3    H127389   6.593   1.059  14.418  0.8048  0.0905 -0.1066
 1966TIP3    H227390   6.700   1.099  14.318 -0.2956  0.9060 -0.9850
 1967TIP3   OH227391   5.475   4.920  14.630 -0.6674  0.6262 -0.3532
 1967TIP3    H127392   5.466   4.937  14.724 -2.5895 -1.9106  0.0077
 1967TIP3    H227393   5.529   4.842  14.625  1.1776  1.8906 -1.5447
 1968TIP3   OH227394   0.486   2.489   2.385  0.2586  0.7235  0.0074
 1968TIP3    H127395   0.449   2.450   2.306  1.3506  1.1355 -0.7261
 1968TIP3    H227396   0.468   2.583   2.376  0.2873  0.7572  0.3011
 1969TIP3   OH227397   2.126   2.335   1.384 -0.0457 -0.1673  0.2878
 1969TIP3    H127398   2.134   2.370   1.473 -3.5986  1.4879  0.1403
 1969TIP3    H227399   2.148   2.408   1.327 -2.1212  0.2525 -0.0653
 1970TIP3   OH227400   4.152   3.530  16.277 -0.2183  0.2533  0.0579
 1970TIP3    H127401   4.155   3.435  16.270 -1.8413  0.2419 -1.1216
 1970TIP3    H227402   4.128   3.547  16.368 -1.6582 -0.5710 -0.1300
 1971TIP3   OH227403   5.734   5.668   3.578 -0.3240  0.0789 -0.0529
 1971TIP3    H127404   5.667   5.616   3.623 -0.2274 -0.2288 -0.2556
 1971TIP3    H227405   5.734   5.634   3.488 -0.0275  0.2062 -0.1024
 1972TIP3   OH227406   3.770   2.699   4.363 -0.0224 -0.2835  0.2910
 1972TIP3    H127407   3.775   2.603   4.358 -0.8136 -0.4007  1.4126
 1972TIP3    H227408   3.845   2.729   4.312 -0.7098 -1.4543 -1.5127
 1973TIP3   OH227409   3.788   1.620  16.455 -0.0976 -0.5383 -0.3652
 1973TIP3    H127410   3.745   1.704  16.470 -1.5264 -1.0002 -1.6820
 1973TIP3    H227411   3.818   1.623  16.365  3.9324  0.2599  0.7985
 1974TIP3   OH227412   6.420   6.309   2.203 -0.0704 -0.1441 -0.2221
 1974TIP3    H127413   6.383   6.221   2.209  0.0011 -0.2700 -1.4475
 1974TIP3    H227414   6.386   6.354   2.281 -3.3513 -0.0492 -1.5662
 1975TIP3   OH227415   6.240   2.356  17.143  0.0596 -0.0064  0.3104
 1975TIP3    H127416   6.205   2.439  17.109  0.7381  0.0066 -0.3713
 1975TIP3    H227417   6.335   2.365  17.137  0.1388 -0.9151  0.0346
 1976TIP3   OH227418   4.381   4.892  14.854 -0.5374  0.1084  0.5155
 1976TIP3    H127419   4.336   4.977  14.846 -0.0115  0.6387  2.5762
 1976TIP3    H227420   4.474   4.914  14.852 -0.3648 -0.6230 -0.3907
 1977TIP3   OH227421   0.239   6.005  15.671 -0.0749  0.7455  0.0534
 1977TIP3    H127422   0.188   6.052  15.736 -0.2704  0.9794 -0.2660
 1977TIP3    H227423   0.183   5.932  15.644 -0.3643  1.1685 -0.5076
 1978TIP3   OH227424   0.992   5.208  13.852 -1.5643  0.0992  0.4555
 1978TIP3    H127425   0.981   5.144  13.922  0.2971  0.1980  0.8904
 1978TIP3    H227426   1.001   5.155  13.772  0.3883 -0.2643  0.8647
 1979TIP3   OH227427   5.689   3.857   3.323  0.2832 -0.5009 -0.3712
 1979TIP3    H127428   5.784   3.855   3.333  0.1588  0.0791  1.2653
 1979TIP3    H227429   5.673   3.927   3.260  0.9445 -0.7445 -0.8165
 1980TIP3   OH227430   4.643   1.641   4.297  0.1905 -0.1878 -0.0329
 1980TIP3    H127431   4.547   1.648   4.303  0.1325 -0.6957 -0.3077
 1980TIP3    H227432   4.673   1.648   4.388 -0.1547 -0.5980  0.1183
 1981TIP3   OH227433   0.415   1.778  13.512 -0.1137 -0.2887  0.6856
 1981TIP3    H127434   0.415   1.690  13.474  0.1620 -0.3724  0.8827
 1981TIP3    H227435   0.341   1.821  13.470  0.2730 -0.3330 -0.0614
 1982TIP3   OH227436   2.124   1.965   3.514 -0.1988  0.3599  0.4506
 1982TIP3    H127437   2.199   1.976   3.456 -1.0678  1.4335 -0.5365
 1982TIP3    H227438   2.122   1.872   3.535  0.9643  0.1984 -0.1184
 1983TIP3   OH227439   6.043   0.322  16.165 -0.6975 -0.7413  0.1234
 1983TIP3    H127440   6.118   0.371  16.198  0.8357 -1.2597 -2.3697
 1983TIP3    H227441   6.050   0.237  16.207  0.6810 -1.0870 -0.7368
 1984TIP3   OH227442   2.927   1.744   4.664 -0.0105  0.6027 -0.0169
 1984TIP3    H127443   2.955   1.672   4.720  0.3570 -1.0592 -2.2225
 1984TIP3    H227444   3.004   1.800   4.656 -0.1833  1.0995  1.3801
 1985TIP3   OH227445   1.113   6.064  15.787 -0.1548  0.4313  0.0605
 1985TIP3    H127446   1.071   5.980  15.804  0.4982  0.6251  3.1294
 1985TIP3    H227447   1.117   6.108  15.872 -1.3256  4.0452 -1.5145
 1986TIP3   OH227448   4.650   5.831   5.671  0.2038 -0.3136 -0.3276
 1986TIP3    H127449   4.615   5.885   5.742 -0.1093 -1.3140  0.2979
 1986TIP3    H227450   4.718   5.886   5.631 -0.1151  0.5442  0.2699
 1987TIP3   OH227451   2.606   4.943  15.811  1.1878 -0.2082 -0.6466
 1987TIP3    H127452   2.547   4.886  15.860  1.8209 -1.6398 -1.4718
 1987TIP3    H227453   2.650   4.995  15.878  0.4874 -0.5944  0.1346
 1988TIP3   OH227454   4.416   5.074  15.607  0.6235 -0.2203  0.0769
 1988TIP3    H127455   4.372   5.130  15.542 -0.0371  0.6231  1.2155
 1988TIP3    H227456   4.506   5.105  15.608  0.0688  1.5467  1.3614
 1989TIP3   OH227457   4.248   6.528   1.258  0.5810 -0.0553 -0.2451
 1989TIP3    H127458   4.167   6.481   1.244 -0.3355  1.9254 -2.1899
 1989TIP3    H227459   4.280   6.497   1.343 -1.6883 -1.5702  0.1305
 1990TIP3   OH227460   3.056   0.579  12.727  0.2299 -0.5667  0.0411
 1990TIP3    H127461   3.001   0.504  12.703  0.0080 -0.1995 -0.6117
 1990TIP3    H227462   3.000   0.633  12.783 -0.1882 -0.0493 -0.8533
 1991TIP3   OH227463   2.900   3.781   1.669 -0.4564  0.2425 -0.0023
 1991TIP3    H127464   2.893   3.771   1.764  0.2847 -0.3530  0.0038
 1991TIP3    H227465   2.933   3.870   1.657 -0.3929  0.2628  0.3062
 1992TIP3   OH227466   5.093   6.136   2.982 -0.3415  0.5544  0.0974
 1992TIP3    H127467   5.131   6.220   2.956  0.1077  0.3606  0.1145
 1992TIP3    H227468   5.028   6.117   2.914  2.3463 -1.0351 -2.2819
 1993TIP3   OH227469   2.810   5.114  13.435  0.3743  0.2309 -0.5799
 1993TIP3    H127470   2.864   5.052  13.387  1.6826  0.8788 -0.0120
 1993TIP3    H227471   2.817   5.086  13.527 -2.4316 -1.2529 -0.7083
 1994TIP3   OH227472   0.096   3.948  14.215 -0.2450 -0.0073  1.3266
 1994TIP3    H127473   0.181   3.991  14.208 -0.3716  0.1146  0.4876
 1994TIP3    H227474   0.086   3.931  14.309 -0.1658  1.7287  1.6925
 1995TIP3   OH227475   4.204   2.333   0.714 -0.0365  0.0900  0.4382
 1995TIP3    H127476   4.245   2.313   0.797 -0.3781  1.4149  0.9571
 1995TIP3    H227477   4.139   2.264   0.701 -1.4952  0.9973  2.3673
 1996TIP3   OH227478   5.031   6.489  12.839  0.2096  0.0483  0.4816
 1996TIP3    H127479   5.119   6.455  12.855  0.5118 -0.4439 -1.8626
 1996TIP3    H227480   5.045   6.567  12.786 -0.7706 -0.1928 -0.1480
 1997TIP3   OH227481   2.139   3.163   2.833  0.3911 -0.7054  0.0915
 1997TIP3    H127482   2.054   3.187   2.796 -0.0691 -2.1478  0.1534
 1997TIP3    H227483   2.156   3.075   2.799 -0.0096 -2.1063  3.1181
 1998TIP3   OH227484   4.393   2.397   0.499  0.1657 -0.5649 -0.5734
 1998TIP3    H127485   4.468   2.419   0.554 -1.2802  1.0570  0.8897
 1998TIP3    H227486   4.323   2.378   0.561 -0.4371 -3.0464 -1.8844
 1999TIP3   OH227487   5.293   4.685  16.495  0.2837  0.1298  0.4207
 1999TIP3    H127488   5.211   4.670  16.542 -0.2088  0.3392 -0.3451
 1999TIP3    H227489   5.266   4.715  16.408  1.1659 -0.4299 -0.0688
 2000TIP3   OH227490   3.398   5.699   3.228  0.2335  0.2943  0.4566
 2000TIP3    H127491   3.429   5.761   3.162 -0.1131  0.0941  0.0977
 2000TIP3    H227492   3.425   5.737   3.311 -0.7209  1.3758  0.3019
 2001TIP3   OH227493   3.657   1.656   6.089 -0.2001 -0.6987  0.3859
 2001TIP3    H127494   3.712   1.715   6.038 -2.9667  0.9493 -0.9069
 2001TIP3    H227495   3.671   1.682   6.180 -0.3164  1.0562 -0.0612
 2002TIP3   OH227496   0.043   2.357  16.893 -0.1774  0.3697 -0.3549
 2002TIP3    H127497   0.099   2.310  16.954  0.4275  0.4170 -0.8712
 2002TIP3    H227498   0.019   2.291  16.827 -0.5130  0.4206 -0.2885
 2003TIP3   OH227499   1.155   0.831   5.593 -0.0332 -0.1460 -0.2787
 2003TIP3    H127500   1.190   0.832   5.682  1.3884  1.2776 -0.7973
 2003TIP3    H227501   1.088   0.899   5.592  0.1249  0.0101 -0.3508
 2004TIP3   OH227502   1.666   3.448   1.597  0.4635  0.3621  0.0681
 2004TIP3    H127503   1.588   3.480   1.643 -1.0662 -1.1705 -1.3009
 2004TIP3    H227504   1.637   3.368   1.554  2.7827 -0.1626 -0.6625
 2005TIP3   OH227505   5.808   6.587   3.671 -0.1578 -0.3832 -0.0826
 2005TIP3    H127506   5.855   6.549   3.596 -0.1094  0.1821 -0.3521
 2005TIP3    H227507   5.737   6.526   3.689  1.1190 -1.6529  0.8166
 2006TIP3   OH227508   5.432   6.351   1.618 -0.6884 -0.3088  0.1425
 2006TIP3    H127509   5.505   6.332   1.560  0.5905  2.0039  0.8695
 2006TIP3    H227510   5.455   6.434   1.660 -2.4802 -0.8573  2.4478
 2007TIP3   OH227511   6.577   5.097   2.292 -0.4577 -0.9398 -0.3987
 2007TIP3    H127512   6.582   5.192   2.301 -0.5199 -0.9577 -0.1903
 2007TIP3    H227513   6.660   5.073   2.251  0.2572 -0.9794  1.0288
 2008TIP3   OH227514   2.965   3.936  14.379 -0.5537 -0.0666 -0.4833
 2008TIP3    H127515   2.953   3.989  14.300  1.3537  0.4890 -0.4497
 2008TIP3    H227516   2.962   3.999  14.451 -0.9634 -0.3958 -0.2063
 2009TIP3   OH227517   1.320   3.092   1.304 -0.0584 -0.3477  0.3086
 2009TIP3    H127518   1.355   3.027   1.244 -0.4091 -0.3497  0.1037
 2009TIP3    H227519   1.330   3.052   1.391 -0.6494 -0.8534  0.1500
 2010TIP3   OH227520   4.732   1.026   3.198  0.7932 -0.4596  0.8094
 2010TIP3    H127521   4.772   0.950   3.240  0.5188 -0.6152  0.7974
 2010TIP3    H227522   4.709   0.996   3.110 -1.8281 -1.2644  1.6690
 2011TIP3   OH227523   5.014   6.636  15.752  0.1580  0.3486  0.0749
 2011TIP3    H127524   5.000   6.652  15.659 -1.1595 -0.7244  0.0597
 2011TIP3    H227525   4.998   6.720  15.794  0.9520  0.8908 -0.6593
 2012TIP3   OH227526   5.329   6.253   6.024  0.1183  0.2268  0.0899
 2012TIP3    H127527   5.387   6.311   5.974 -0.8497 -0.2314 -1.6675
 2012TIP3    H227528   5.248   6.303   6.032 -1.8476 -1.7450 -4.1028
 2013TIP3   OH227529   1.786   6.473   4.061 -0.3343  0.7771  0.0268
 2013TIP3    H127530   1.861   6.427   4.022  0.3192  1.0281  0.9271
 2013TIP3    H227531   1.821   6.559   4.085 -0.6830  0.6192  1.1806
 2014TIP3   OH227532   5.807   0.445   4.571  0.8893  0.2265 -0.8088
 2014TIP3    H127533   5.890   0.490   4.558  0.8700  0.5608  0.2079
 2014TIP3    H227534   5.810   0.414   4.661  0.2196 -0.4065 -0.9957
 2015TIP3   OH227535   0.606   0.549   0.731  0.0259 -0.0516 -0.2321
 2015TIP3    H127536   0.663   0.527   0.805  0.2276  0.4296 -0.2439
 2015TIP3    H227537   0.575   0.637   0.750 -0.6077 -0.2573 -0.2957
 2016TIP3   OH227538   1.702   2.166  11.329 -1.3159 -0.2864  0.6697
 2016TIP3    H127539   1.718   2.253  11.364 -0.5408 -0.4224  0.6643
 2016TIP3    H227540   1.733   2.170  11.239 -3.2633  0.0480 -0.0357
 2017TIP3   OH227541   3.169   3.372  11.647  0.0508 -0.2420  0.3136
 2017TIP3    H127542   3.191   3.405  11.734  2.1948 -0.2836 -0.1526
 2017TIP3    H227543   3.235   3.305  11.629  1.7188  1.9420 -2.5731
 2018TIP3   OH227544   6.199   5.663   5.483  0.2250  1.3115  0.2674
 2018TIP3    H127545   6.105   5.648   5.472  0.4529  0.9567 -1.4662
 2018TIP3    H227546   6.224   5.713   5.406  1.8199 -0.3330 -0.3442
 2019TIP3   OH227547   0.413   3.692  12.604 -0.0799 -0.0465 -0.1299
 2019TIP3    H127548   0.456   3.609  12.624  0.7860  0.3168 -0.4750
 2019TIP3    H227549   0.483   3.757  12.606 -0.6076  0.5516 -0.7296
 2020TIP3   OH227550   4.110   3.892   4.315  0.1623  0.2845 -0.1636
 2020TIP3    H127551   4.137   3.940   4.393  0.9633 -0.3612 -0.0191
 2020TIP3    H227552   4.015   3.902   4.312 -0.1218 -0.9916  1.8240
 2021TIP3   OH227553   0.900   1.158   6.456  0.5106  0.2155 -0.2044
 2021TIP3    H127554   0.980   1.108   6.439 -0.5675 -1.4062 -0.8661
 2021TIP3    H227555   0.915   1.202   6.539  1.6604 -1.0126  0.2682
 2022TIP3   OH227556   0.445   6.460  12.302  0.4109  0.6165 -0.6789
 2022TIP3    H127557   0.472   6.368  12.297 -0.2453  0.4285 -0.8759
 2022TIP3    H227558   0.489   6.502  12.228  0.0259  0.2708 -1.1112
 2023TIP3   OH227559   1.093   3.444   4.861  0.5320 -0.3257 -0.6388
 2023TIP3    H127560   1.078   3.355   4.831  2.5873 -0.2700 -2.0292
 2023TIP3    H227561   1.106   3.495   4.781  2.2286  0.6192  0.1726
 2024TIP3   OH227562   0.435   6.711  17.165 -0.2093  0.2590  0.1100
 2024TIP3    H127563   0.400   6.629  17.129 -0.2081  0.8123 -1.1662
 2024TIP3    H227564   0.368   6.739  17.228  0.1012 -1.0593  1.0681
 2025TIP3   OH227565   0.014   1.297   0.705  0.2418  0.0302  0.3645
 2025TIP3    H127566   0.011   1.280   0.610  1.0058  3.2380 -0.3467
 2025TIP3    H227567   0.107   1.309   0.724  0.1354 -0.9421  1.6578
 2026TIP3   OH227568   0.387   5.664   4.942  0.2160  0.3597 -0.0253
 2026TIP3    H127569   0.465   5.712   4.915 -0.0725  0.3733 -0.8667
 2026TIP3    H227570   0.314   5.722   4.922 -0.0643  0.0286  0.0223
 2027TIP3   OH227571   6.604   6.793   3.137  0.8468  0.2095 -0.2243
 2027TIP3    H127572   6.577   6.742   3.060 -1.8772  0.6082  0.3567
 2027TIP3    H227573   6.606   6.730   3.209  0.9225  0.2928 -0.1527
 2028TIP3   OH227574   2.851   6.120   5.299  0.0708  0.0735  0.6364
 2028TIP3    H127575   2.817   6.198   5.341 -0.1054  1.4305 -1.8171
 2028TIP3    H227576   2.933   6.148   5.257 -0.6451 -0.6352 -1.3934
 2029TIP3   OH227577   3.817   3.241  15.388  0.3417 -0.5497 -0.4077
 2029TIP3    H127578   3.728   3.255  15.420  0.2013  0.3643 -1.1410
 2029TIP3    H227579   3.873   3.275  15.458  0.0980 -0.5574 -0.2071
 2030TIP3   OH227580   2.092   4.297  11.105  0.0570  0.4100  0.2693
 2030TIP3    H127581   2.178   4.283  11.066 -0.6133  0.4625 -1.3391
 2030TIP3    H227582   2.105   4.368  11.168  1.2048  0.3280  0.1444
 2031TIP3   OH227583   1.575   3.694   5.591 -0.4158  0.4406  0.0075
 2031TIP3    H127584   1.485   3.708   5.620 -0.6977  1.7233 -1.3140
 2031TIP3    H227585   1.567   3.681   5.496  0.7386  0.0274 -0.0385
 2032TIP3   OH227586   3.528   5.991   2.097 -0.7625 -0.1299  0.3766
 2032TIP3    H127587   3.465   5.951   2.037 -1.4377  1.4879 -0.0589
 2032TIP3    H227588   3.527   5.935   2.174 -0.7656 -1.5907 -0.6494
 2033TIP3   OH227589   1.598   5.506   5.208  0.0253  0.4150 -0.2619
 2033TIP3    H127590   1.530   5.516   5.275 -1.0386 -0.9924 -1.0937
 2033TIP3    H227591   1.630   5.417   5.220  0.8272  0.6298 -0.7372
 2034TIP3   OH227592   0.566   0.233  15.596 -0.0175  0.3030  0.6551
 2034TIP3    H127593   0.644   0.286  15.613 -1.9161  3.8488 -0.6625
 2034TIP3    H227594   0.536   0.206  15.682  1.9875 -0.2048  1.2541
 2035TIP3   OH227595   3.002   3.714  14.219  0.0892  0.1441  0.5920
 2035TIP3    H127596   2.931   3.649  14.219 -0.8161  1.0512 -1.4283
 2035TIP3    H227597   3.005   3.745  14.309 -0.0911 -1.9845  1.4028
 2036TIP3   OH227598   2.776   2.435   4.166  0.0679 -0.0507  0.0217
 2036TIP3    H127599   2.776   2.468   4.077  0.5128 -1.1929 -0.4222
 2036TIP3    H227600   2.795   2.511   4.221 -0.2461  0.6633 -0.8439
 2037TIP3   OH227601   1.629   0.779  17.012 -0.1677 -0.7381  0.5742
 2037TIP3    H127602   1.584   0.775  16.928 -1.3680  1.6894  1.0186
 2037TIP3    H227603   1.589   0.708  17.064 -1.2533 -0.6096 -0.0630
 2038TIP3   OH227604   2.032   4.535   0.665  0.2098 -0.7077 -0.0401
 2038TIP3    H127605   2.016   4.603   0.731  0.8270 -0.5899 -0.0085
 2038TIP3    H227606   2.106   4.567   0.615 -2.2524  0.8621 -3.0472
 2039TIP3   OH227607   2.560   4.225  14.508 -0.0557 -0.4573  0.0059
 2039TIP3    H127608   2.618   4.165  14.555  2.2461  1.6876  0.1172
 2039TIP3    H227609   2.619   4.285  14.464 -2.2146  1.7767 -0.0272
 2040TIP3   OH227610   4.537   4.936   5.764 -0.4144 -0.8020  0.3358
 2040TIP3    H127611   4.481   4.922   5.841  0.6062  0.0467  1.2737
 2040TIP3    H227612   4.587   5.015   5.785 -0.0522 -0.5962 -1.1886
 2041TIP3   OH227613   3.625   4.248   2.609  0.4516 -0.3659 -0.1610
 2041TIP3    H127614   3.579   4.259   2.525  1.2523  1.3938 -0.4093
 2041TIP3    H227615   3.711   4.212   2.584  0.5193 -0.2793 -0.0508
 2042TIP3   OH227616   3.338   6.123  10.863 -0.6407  0.1640 -0.1861
 2042TIP3    H127617   3.259   6.099  10.912 -0.7378 -0.3276 -0.5769
 2042TIP3    H227618   3.317   6.103  10.772  0.4929 -1.5557 -0.1151
 2043TIP3   OH227619   5.036   3.856   2.288 -0.1634  0.3596  0.1823
 2043TIP3    H127620   5.050   3.773   2.333 -0.6450  0.0225 -0.2713
 2043TIP3    H227621   5.115   3.906   2.305  1.1002 -1.0209 -1.3128
 2044TIP3   OH227622   4.807   3.858  12.484 -0.0643  0.2591  0.3099
 2044TIP3    H127623   4.713   3.855  12.466  0.1825 -0.2866 -1.0651
 2044TIP3    H227624   4.847   3.873  12.398  1.2317 -2.4594  0.3094
 2045TIP3   OH227625   0.502   2.935  10.556 -0.3140 -0.5608 -0.8283
 2045TIP3    H127626   0.566   3.001  10.585 -0.7494 -0.9661  1.1213
 2045TIP3    H227627   0.443   2.984  10.498  0.0228  0.5015 -0.3030
 2046TIP3   OH227628   4.520   3.088  14.165 -0.4676 -0.0567 -0.0384
 2046TIP3    H127629   4.567   3.171  14.163 -0.3284 -0.1411 -1.0003
 2046TIP3    H227630   4.436   3.108  14.207  0.2546  0.1805  1.3204
 2047TIP3   OH227631   3.213   0.303  15.273  0.2025 -0.0197  0.1727
 2047TIP3    H127632   3.218   0.389  15.229  0.4227 -0.4364 -0.6344
 2047TIP3    H227633   3.124   0.273  15.255 -0.9688  1.3760  3.0691
 2048TIP3   OH227634   2.902   2.902  12.132  0.8696  0.5570  0.2497
 2048TIP3    H127635   2.827   2.942  12.175  1.2221  0.0612  1.3584
 2048TIP3    H227636   2.887   2.918  12.039 -2.8097 -3.1377 -0.0557
 2049TIP3   OH227637   2.055   5.022   0.922 -0.1856 -0.1253 -0.4382
 2049TIP3    H127638   1.984   5.075   0.959 -0.4103 -0.3718 -0.5115
 2049TIP3    H227639   2.025   4.932   0.933  1.1111 -0.3673  1.6547
 2050TIP3   OH227640   5.909   4.469  16.208 -0.0972 -0.3017 -0.2143
 2050TIP3    H127641   5.839   4.491  16.147  2.2822 -1.9094 -3.8926
 2050TIP3    H227642   5.889   4.381  16.238 -0.2982 -0.2838 -0.2958
 2051TIP3   OH227643   5.817   0.259   6.323  0.2312 -0.2696  0.3409
 2051TIP3    H127644   5.909   0.282   6.313  0.0062  0.6178  0.2554
 2051TIP3    H227645   5.775   0.339   6.353 -1.0554  0.2625 -2.5802
 2052TIP3   OH227646   2.731   6.189  14.699  0.2645  0.2774  0.3271
 2052TIP3    H127647   2.677   6.206  14.777  1.3300 -0.0895  1.1774
 2052TIP3    H227648   2.804   6.137  14.732  1.3838  1.1383 -0.7133
 2053TIP3   OH227649   1.358   5.260   4.236 -0.1957 -0.4165  0.6341
 2053TIP3    H127650   1.391   5.248   4.325  1.9909  0.6217  0.0297
 2053TIP3    H227651   1.324   5.349   4.234  2.1115  0.5321 -0.1593
 2054TIP3   OH227652   1.058   0.233   3.503 -0.8227  0.1039  0.2068
 2054TIP3    H127653   1.132   0.181   3.535 -1.5215 -0.5343  0.8362
 2054TIP3    H227654   1.055   0.216   3.409  0.5692  1.1078 -0.0437
 2055TIP3   OH227655   0.955   2.294   5.312 -0.2449  0.0435 -0.3031
 2055TIP3    H127656   1.015   2.297   5.387  0.2762  1.4682 -0.7508
 2055TIP3    H227657   1.013   2.289   5.236 -0.7267  0.2322 -0.6851
 2056TIP3   OH227658   6.080   0.892   6.656  0.3661  0.6688 -0.1192
 2056TIP3    H127659   6.030   0.835   6.715 -2.2206  2.8051 -0.0859
 2056TIP3    H227660   6.066   0.853   6.569 -3.2203  2.2521 -0.4091
 2057TIP3   OH227661   2.243   3.385  16.629  0.1646  0.0820  0.2133
 2057TIP3    H127662   2.250   3.350  16.540 -1.7163 -2.2314  0.8593
 2057TIP3    H227663   2.252   3.309  16.685 -1.3987  1.0538  1.8795
 2058TIP3   OH227664   2.528   0.053   2.529  0.2291 -0.0779 -0.0336
 2058TIP3    H127665   2.553  -0.019   2.470  0.9732 -1.0304  1.3961
 2058TIP3    H227666   2.609   0.076   2.574 -0.3203  0.6716  0.5950
 2059TIP3   OH227667   6.432   3.095   6.109  0.5247  0.9682 -0.0055
 2059TIP3    H127668   6.392   3.083   6.195  0.4450  0.7803 -0.0690
 2059TIP3    H227669   6.383   3.168   6.070 -0.3967  0.1264 -0.4658
 2060TIP3   OH227670   2.887   1.174   4.688 -0.3952 -0.2372 -1.3094
 2060TIP3    H127671   2.942   1.236   4.640  1.0485 -0.0330  0.4764
 2060TIP3    H227672   2.828   1.230   4.739  1.0609 -0.2544  0.4783
 2061TIP3   OH227673   0.126   1.804  15.249  0.0841  0.4838 -0.7480
 2061TIP3    H127674   0.091   1.793  15.338 -1.1594 -1.1128 -1.3914
 2061TIP3    H227675   0.209   1.756  15.251 -1.5297 -2.5289 -1.3062
 2062TIP3   OH227676   6.275   5.480  15.468 -0.1540 -0.0459 -0.2154
 2062TIP3    H127677   6.268   5.405  15.410  0.5362  0.6395 -1.2028
 2062TIP3    H227678   6.338   5.453  15.535 -0.4224 -0.5851 -0.1806
 2063TIP3   OH227679   6.439   0.599  11.632 -0.2678  0.5278  0.2946
 2063TIP3    H127680   6.532   0.579  11.647  0.1592  1.9771 -0.1919
 2063TIP3    H227681   6.408   0.633  11.716 -0.3730  0.0093  0.4670
 2064TIP3   OH227682   6.502   1.013   5.090 -0.6401 -0.0223 -0.1016
 2064TIP3    H127683   6.502   0.923   5.058 -2.0867 -0.2818  0.5584
 2064TIP3    H227684   6.593   1.041   5.081 -0.2167 -1.4420 -0.5886
 2065TIP3   OH227685   5.296   4.310   0.255 -0.7048  0.3292 -0.6989
 2065TIP3    H127686   5.366   4.289   0.194 -1.0971  1.0726 -1.4241
 2065TIP3    H227687   5.229   4.352   0.202 -0.9711  1.1863  0.2650
 2066TIP3   OH227688   5.018   0.373  14.406 -0.5580  0.0663 -0.4106
 2066TIP3    H127689   5.068   0.333  14.478  0.0645  1.9716  0.2615
 2066TIP3    H227690   5.085   0.399  14.343 -1.0887 -1.3794 -1.6307
 2067TIP3   OH227691   3.658   4.298  17.067  0.0362 -0.3238 -0.8123
 2067TIP3    H127692   3.639   4.204  17.063  0.8510 -0.4916 -0.7636
 2067TIP3    H227693   3.740   4.309  17.020 -0.3834  0.4686 -1.3848
 2068TIP3   OH227694   0.088   3.230  13.798  0.0698 -0.4720  0.7200
 2068TIP3    H127695   0.152   3.179  13.848  0.1218 -0.5742  0.5498
 2068TIP3    H227696   0.033   3.271  13.865 -0.3334 -1.2047  0.8469
 2069TIP3   OH227697   6.287   0.405  16.805 -0.0225 -0.5527  0.3810
 2069TIP3    H127698   6.308   0.318  16.840  0.3444 -0.7128 -0.2176
 2069TIP3    H227699   6.239   0.387  16.724 -0.2581 -0.1938  0.4415
 2070TIP3   OH227700   1.382   5.496   5.366  0.4119  0.3939  0.1091
 2070TIP3    H127701   1.355   5.533   5.450  0.0935 -1.0787  0.6847
 2070TIP3    H227702   1.320   5.532   5.303  0.1004  0.8103  0.6469
 2071TIP3   OH227703   5.978   0.240   2.101 -0.5178 -0.2906  0.1258
 2071TIP3    H127704   6.053   0.282   2.143 -0.0165 -1.3456  0.3265
 2071TIP3    H227705   6.017   0.170   2.049 -1.2486  0.0870 -0.9739
 2072TIP3   OH227706   5.570   5.821   5.560  0.1975 -0.0641  0.0208
 2072TIP3    H127707   5.569   5.731   5.594  0.1558 -1.2938 -2.9327
 2072TIP3    H227708   5.643   5.822   5.498 -0.9144  1.3932 -1.3498
 2073TIP3   OH227709   5.959   1.506  12.255 -0.5813 -0.0215  0.5021
 2073TIP3    H127710   5.876   1.467  12.226 -0.4165  0.5169 -0.8068
 2073TIP3    H227711   5.939   1.599  12.266 -0.3623 -0.0387  1.0415
 2074TIP3   OH227712   6.256   2.490  14.054  0.6355  0.1350  0.0738
 2074TIP3    H127713   6.215   2.569  14.019 -2.0888  0.1275  2.8698
 2074TIP3    H227714   6.302   2.452  13.979 -1.0547  2.3905 -2.2671
 2075TIP3   OH227715   4.226   3.582  14.661  0.1392  0.5837  0.8349
 2075TIP3    H127716   4.216   3.652  14.597 -1.9750 -1.7448 -1.6080
 2075TIP3    H227717   4.259   3.626  14.740  0.0025  4.0708 -0.8819
 2076TIP3   OH227718   3.172   2.652  10.758  0.1234 -0.1526  0.2778
 2076TIP3    H127719   3.252   2.601  10.767  1.1217  1.0914 -1.1382
 2076TIP3    H227720   3.167   2.673  10.665 -0.4116  2.0494  0.7458
 2077TIP3   OH227721   2.473   6.243  16.370  0.1441 -0.5483  0.1535
 2077TIP3    H127722   2.485   6.273  16.460 -0.0880  0.0379 -0.0103
 2077TIP3    H227723   2.536   6.171  16.361  1.5873  0.6708  0.1682
 2078TIP3   OH227724   5.802   2.210  13.775  0.0305  0.2093  0.4449
 2078TIP3    H127725   5.867   2.246  13.835  0.4085 -0.4097  0.4176
 2078TIP3    H227726   5.798   2.273  13.703  0.0746  0.6112  0.7901
 2079TIP3   OH227727   2.714   4.607   4.619  0.1841 -0.4145  0.4746
 2079TIP3    H127728   2.655   4.611   4.544  1.1934  0.3674 -0.3087
 2079TIP3    H227729   2.784   4.669   4.598  0.2676  0.1539  2.2664
 2080TIP3   OH227730   5.658   6.687  10.302 -0.2016 -0.1238 -0.0694
 2080TIP3    H127731   5.649   6.740  10.381  1.0059 -0.6355  0.4431
 2080TIP3    H227732   5.664   6.750  10.231 -0.2120  0.3752  0.3680
 2081TIP3   OH227733   5.241   6.039   5.190  0.6064  0.0358 -0.0599
 2081TIP3    H127734   5.287   6.098   5.131  0.1682  0.3764 -0.0754
 2081TIP3    H227735   5.308   5.980   5.224  0.7209 -0.7290 -1.5563
 2082TIP3   OH227736   4.470   0.931  16.467  0.0251 -0.5210  0.6490
 2082TIP3    H127737   4.549   0.890  16.433 -0.7187 -0.9041 -0.6578
 2082TIP3    H227738   4.399   0.892  16.418 -0.7291  2.3910 -0.8242
 2083TIP3   OH227739   3.586   0.810   4.464  0.5258 -0.0392 -0.2711
 2083TIP3    H127740   3.513   0.768   4.418  1.2169  0.0273 -1.4606
 2083TIP3    H227741   3.664   0.782   4.417  1.2336  0.3870  0.6137
 2084TIP3   OH227742   5.102   5.128  12.451 -0.2189  0.3846 -0.5456
 2084TIP3    H127743   5.049   5.194  12.406  0.1515  1.8356  1.0657
 2084TIP3    H227744   5.045   5.096  12.521  0.2667  0.3986 -0.1371
 2085TIP3   OH227745   5.158   6.493   0.642 -0.0330  0.3863  0.3229
 2085TIP3    H127746   5.210   6.420   0.607 -2.2550 -0.7991 -0.7570
 2085TIP3    H227747   5.177   6.566   0.583 -2.8382 -1.2712 -3.0138
 2086TIP3   OH227748   3.088   3.233   3.538  0.0175 -0.1904  1.1497
 2086TIP3    H127749   3.100   3.293   3.464  1.0075 -1.3902  0.2919
 2086TIP3    H227750   3.006   3.188   3.519 -0.4600  0.5086  1.5270
 2087TIP3   OH227751   4.545   5.300   3.666 -0.0810 -0.0608  0.3224
 2087TIP3    H127752   4.603   5.250   3.609 -0.7461 -0.8268  0.2974
 2087TIP3    H227753   4.602   5.366   3.707  0.6222 -0.2400 -0.3506
 2088TIP3   OH227754   1.374   6.527  12.003  0.3051 -0.4169 -0.4862
 2088TIP3    H127755   1.459   6.496  12.034 -0.0184 -0.1007  0.8039
 2088TIP3    H227756   1.379   6.623  12.012 -0.2381 -0.4071 -0.2502
 2089TIP3   OH227757   5.330   4.596   3.179  0.4822  0.1379  0.2665
 2089TIP3    H127758   5.235   4.598   3.192  0.6197  0.1376  1.3849
 2089TIP3    H227759   5.349   4.672   3.124 -0.1594  0.1894  0.1136
 2090TIP3   OH227760   0.630   6.605   4.719  0.1062 -0.4047  0.2979
 2090TIP3    H127761   0.659   6.622   4.808 -0.5835  0.0750  0.4446
 2090TIP3    H227762   0.641   6.688   4.674  0.1435 -0.5573  0.0251
 2091TIP3   OH227763   1.341   1.820  14.498 -0.4777  0.0564 -0.0739
 2091TIP3    H127764   1.366   1.912  14.500 -1.6116  0.4664 -2.2994
 2091TIP3    H227765   1.318   1.803  14.407 -0.1610 -2.4863  0.2464
 2092TIP3   OH227766   2.346   0.917  10.921  0.2050  0.1149  0.2305
 2092TIP3    H127767   2.376   0.937  11.010  3.3364  0.1508 -0.7337
 2092TIP3    H227768   2.300   0.996  10.893 -0.9390  0.0543  1.8209
 2093TIP3   OH227769   3.477   1.313   6.178  0.4442  0.3171 -0.1456
 2093TIP3    H127770   3.523   1.280   6.256  0.4461 -0.0220 -0.2882
 2093TIP3    H227771   3.408   1.249   6.162  0.5462  0.3005 -0.5219
 2094TIP3   OH227772   2.770   5.576   5.524 -0.0316  0.1037  0.3608
 2094TIP3    H127773   2.855   5.551   5.562 -0.4031 -1.4212  0.2539
 2094TIP3    H227774   2.706   5.549   5.589 -0.5878 -1.2394 -0.7054
 2095TIP3   OH227775   6.451   4.890  11.112  0.1871 -0.0477 -0.3605
 2095TIP3    H127776   6.376   4.857  11.063 -0.4663 -0.4254  0.8521
 2095TIP3    H227777   6.414   4.953  11.174  0.9119  0.0077  0.0272
 2096TIP3   OH227778   1.329   1.533  12.225 -0.4583 -0.0699 -0.1760
 2096TIP3    H127779   1.360   1.488  12.147 -0.3040 -0.5449  0.1546
 2096TIP3    H227780   1.330   1.466  12.294 -2.8107 -0.3119 -0.2708
 2097TIP3   OH227781   3.432   6.524   5.060  0.3371 -0.4355  0.4215
 2097TIP3    H127782   3.340   6.521   5.083  0.0785  2.1985  0.0506
 2097TIP3    H227783   3.477   6.546   5.141  0.2279  1.5083  0.0037
 2098TIP3   OH227784   5.803   4.566   0.060  0.1142 -0.2703 -0.2755
 2098TIP3    H127785   5.783   4.499   0.126  1.0727 -1.6498 -1.3187
 2098TIP3    H227786   5.842   4.517  -0.013  0.0704  1.3350 -1.4349
 2099TIP3   OH227787   6.700   2.516  11.706 -0.5855  0.4096 -0.2165
 2099TIP3    H127788   6.794   2.525  11.694 -0.6789  1.0285 -0.5361
 2099TIP3    H227789   6.665   2.604  11.690 -1.1391  0.3620  0.6464
 2100TIP3   OH227790   5.682   1.660  15.122 -0.3621  0.3723  0.5233
 2100TIP3    H127791   5.662   1.642  15.030  1.1573  1.8198 -0.1379
 2100TIP3    H227792   5.741   1.589  15.148 -1.5928 -0.6133  0.7234
 2101TIP3   OH227793   0.682   4.463  13.316  0.3599 -0.2967 -0.1579
 2101TIP3    H127794   0.693   4.371  13.291 -1.9892 -0.1981 -1.9061
 2101TIP3    H227795   0.729   4.512  13.248  0.1148 -0.1622 -0.2308
 2102TIP3   OH227796   0.610   2.755   3.893 -0.1594  0.1868 -0.1406
 2102TIP3    H127797   0.610   2.723   3.983  0.5478 -0.7913 -0.4750
 2102TIP3    H227798   0.556   2.692   3.845 -0.9648  0.9878 -0.3201
 2103TIP3   OH227799   4.012   4.078   1.292  0.2215 -0.3818 -0.6666
 2103TIP3    H127800   3.961   4.148   1.332  2.3008 -0.0363  1.6426
 2103TIP3    H227801   3.947   4.022   1.250 -1.8463  0.9633  0.5528
 2104TIP3   OH227802   4.253   5.497  13.808  0.1802 -0.8735 -0.3080
 2104TIP3    H127803   4.319   5.488  13.739 -0.8734 -1.8353 -1.2466
 2104TIP3    H227804   4.284   5.442  13.879  1.6034  0.6244  0.2931
 2105TIP3   OH227805   2.456   5.242   5.152 -0.4487  0.1454 -0.0264
 2105TIP3    H127806   2.443   5.337   5.150 -2.8038 -0.0716  1.1540
 2105TIP3    H227807   2.390   5.210   5.213 -0.7296 -2.4045 -1.5021
 2106TIP3   OH227808   6.615   5.017   3.775  0.5359 -0.8697 -0.0495
 2106TIP3    H127809   6.652   5.062   3.851 -2.2753  2.7569 -0.5479
 2106TIP3    H227810   6.535   4.976   3.807 -0.7239  0.7703 -0.9255
 2107TIP3   OH227811   2.655   4.697   0.242 -0.2323 -0.4258  0.1189
 2107TIP3    H127812   2.564   4.696   0.272 -0.2304  2.3113  0.5403
 2107TIP3    H227813   2.695   4.621   0.284 -1.8149 -0.4762  1.6833
 2108TIP3   OH227814   4.675   5.998   0.104  0.4082  0.1998  0.5510
 2108TIP3    H127815   4.699   5.909   0.132  1.4934 -0.5640 -2.4493
 2108TIP3    H227816   4.609   5.985   0.036  0.4293  1.7114  0.2087
 2109TIP3   OH227817   2.886   1.517  12.161 -0.2521 -0.6986  0.3844
 2109TIP3    H127818   2.883   1.608  12.130  1.4615 -0.9874 -0.8202
 2109TIP3    H227819   2.801   1.502  12.202 -0.4658  1.5221  0.8560
 2110TIP3   OH227820   3.195   5.752   6.308  0.3192 -0.2746  0.1260
 2110TIP3    H127821   3.129   5.818   6.328 -0.0132 -0.2297 -1.0268
 2110TIP3    H227822   3.277   5.787   6.342  0.0533  0.4952 -0.0231
 2111TIP3   OH227823   3.831   3.911   2.196  0.2263 -0.9543 -0.2743
 2111TIP3    H127824   3.794   3.944   2.278  0.4482 -2.2965  0.3897
 2111TIP3    H227825   3.761   3.921   2.132  0.2695  0.7348 -0.1070
 2112TIP3   OH227826   0.674   3.127   6.488 -0.2783  0.2864  0.1829
 2112TIP3    H127827   0.612   3.170   6.547 -0.2982  0.0285  0.3509
 2112TIP3    H227828   0.756   3.125   6.536 -0.8567 -2.1066  1.2285
 2113TIP3   OH227829   3.781   6.327   4.590  0.3062 -0.3594  0.8808
 2113TIP3    H127830   3.718   6.326   4.518  2.3437 -0.1759 -1.0275
 2113TIP3    H227831   3.738   6.279   4.661 -0.8166 -3.0040 -1.3833
 2114TIP3   OH227832   2.520   5.954  16.306  0.5281  0.1078 -0.5136
 2114TIP3    H127833   2.531   5.859  16.312  1.6804  0.1118 -1.9628
 2114TIP3    H227834   2.547   5.986  16.392 -2.7402 -1.0166  1.0980
 2115TIP3   OH227835   4.491   0.135   4.280 -0.5350  0.4719 -0.2058
 2115TIP3    H127836   4.525   0.048   4.301 -1.1920 -0.6005 -3.0918
 2115TIP3    H227837   4.437   0.159   4.355 -1.4562 -2.2341  0.1069
 2116TIP3   OH227838   3.121   6.532   1.851 -0.2577  0.5915 -0.6955
 2116TIP3    H127839   3.051   6.516   1.914 -0.3377 -0.6532 -1.0710
 2116TIP3    H227840   3.199   6.548   1.905 -0.1694 -1.1811 -0.2482
 2117TIP3   OH227841   6.126   4.056   2.613 -0.0759 -0.2320  0.3584
 2117TIP3    H127842   6.184   4.109   2.667 -0.9500 -0.1004  1.1894
 2117TIP3    H227843   6.079   4.119   2.559 -0.0802 -0.2719  0.3150
 2118TIP3   OH227844   2.581   1.786  15.879 -0.2363 -0.8994 -0.0978
 2118TIP3    H127845   2.557   1.696  15.854 -1.7328 -1.0694  1.6807
 2118TIP3    H227846   2.516   1.810  15.945 -0.3997  1.8409 -1.1254
 2119TIP3   OH227847   1.574   5.115  11.170 -0.5094 -0.1357 -0.8188
 2119TIP3    H127848   1.631   5.159  11.106 -0.0419 -1.4000 -1.2940
 2119TIP3    H227849   1.488   5.153  11.156 -0.5601 -0.8486 -2.6759
 2120TIP3   OH227850   0.831   2.023  11.639 -0.1872 -0.0879 -0.2940
 2120TIP3    H127851   0.826   2.028  11.734  1.3339 -0.5682 -0.1496
 2120TIP3    H227852   0.841   2.114  11.610  0.8213 -0.0363  0.1495
 2121TIP3   OH227853   1.829   6.497  15.304  0.3267 -0.2501  0.3082
 2121TIP3    H127854   1.777   6.578  15.296 -1.4557 -1.4027 -0.5483
 2121TIP3    H227855   1.852   6.493  15.397  0.4668  1.2432  0.3621
 2122TIP3   OH227856   6.716   1.673  12.617  0.1216  0.2772  0.1583
 2122TIP3    H127857   6.628   1.693  12.584  0.3145  1.1881  0.1823
 2122TIP3    H227858   6.758   1.758  12.626  0.9500 -0.1437  0.3218
 2123TIP3   OH227859   1.337   0.923  16.968 -0.2457  0.5282  0.3815
 2123TIP3    H127860   1.349   0.960  17.056  0.3875  0.5671  0.2842
 2123TIP3    H227861   1.411   0.957  16.918  1.0187 -1.7510  0.5879
 2124TIP3   OH227862   4.311   3.999  11.763 -0.4177 -0.3643 -0.6085
 2124TIP3    H127863   4.342   4.040  11.844 -0.4815 -1.4357 -0.0263
 2124TIP3    H227864   4.240   4.056  11.733  0.0147  0.3822 -0.2666
 2125TIP3   OH227865   4.680   2.056  12.076 -0.3454  0.1205  0.1327
 2125TIP3    H127866   4.732   2.118  12.025 -1.5209  0.1900 -1.0320
 2125TIP3    H227867   4.744   1.993  12.110  0.6993  1.2144  0.2472
 2126TIP3   OH227868   2.946   6.183  15.313 -0.4685 -0.0841 -0.2648
 2126TIP3    H127869   2.956   6.228  15.397  0.8281 -0.6625 -0.0774
 2126TIP3    H227870   2.943   6.254  15.249 -1.6833  0.3752  0.2656
 2127TIP3   OH227871   0.865   1.593  15.498 -0.9104  0.2211  0.4565
 2127TIP3    H127872   0.957   1.595  15.524 -1.1294  0.2004  1.2744
 2127TIP3    H227873   0.844   1.500  15.489 -0.9436  0.2102  0.6358
 2128TIP3   OH227874   4.616   0.543   6.468  0.4428  0.7808 -0.2195
 2128TIP3    H127875   4.646   0.516   6.554  0.1647  0.1237 -0.3230
 2128TIP3    H227876   4.676   0.615   6.443  0.4336  1.0680  0.5645
 2129TIP3   OH227877   5.566   6.711   4.516  0.3641 -0.2570 -0.0050
 2129TIP3    H127878   5.546   6.680   4.427  0.0395  1.3031 -0.5016
 2129TIP3    H227879   5.566   6.806   4.509  1.0568 -0.1171  1.5303
 2130TIP3   OH227880   2.114   4.530  13.681  0.0879 -0.5764 -0.2531
 2130TIP3    H127881   2.203   4.535  13.716  0.4027  0.0645 -1.1178
 2130TIP3    H227882   2.126   4.501  13.591 -0.6934 -1.9910  0.0701
 2131TIP3   OH227883   2.313   6.249   3.414 -0.1887  0.3508  0.1279
 2131TIP3    H127884   2.227   6.275   3.382 -0.5641 -0.5751  0.3333
 2131TIP3    H227885   2.371   6.260   3.339 -1.1207 -2.1470 -1.0920
 2132TIP3   OH227886   5.254   1.162  13.690 -0.6652  0.3721 -0.0441
 2132TIP3    H127887   5.257   1.256  13.711  1.0147  0.4324 -0.4329
 2132TIP3    H227888   5.337   1.144  13.646 -0.0613 -1.6836  1.7093
 2133TIP3   OH227889   3.867   0.777   1.364 -0.6891 -0.0632  0.6948
 2133TIP3    H127890   3.920   0.838   1.415 -0.2780 -0.9556  1.3712
 2133TIP3    H227891   3.777   0.795   1.391 -0.7099  1.0817 -0.0498
 2134TIP3   OH227892   4.717   2.090  12.750 -0.5671 -0.6580  0.1576
 2134TIP3    H127893   4.780   2.162  12.743 -0.4430 -0.6802  0.9698
 2134TIP3    H227894   4.645   2.116  12.693 -1.0823  0.6955  1.3749
 2135TIP3   OH227895   6.635   1.091   0.547  0.5052 -0.3722  0.1277
 2135TIP3    H127896   6.584   1.080   0.627  1.2501  2.0646  1.0030
 2135TIP3    H227897   6.718   1.046   0.565  0.6226  0.0609  0.6799
 2136TIP3   OH227898   2.568   2.859   2.110  0.4781  0.0090  0.0959
 2136TIP3    H127899   2.550   2.790   2.046  0.4488  0.3339 -0.2469
 2136TIP3    H227900   2.662   2.851   2.128  0.3242 -0.6414  0.6726
 2137TIP3   OH227901   6.745   3.686  14.674 -0.4157  0.3027 -0.1796
 2137TIP3    H127902   6.820   3.682  14.734  0.0621  0.0658 -0.7705
 2137TIP3    H227903   6.668   3.682  14.730  0.0095 -1.6813  0.3256
 2138TIP3   OH227904   6.090   1.235  13.397 -0.3379  0.3861 -0.1328
 2138TIP3    H127905   6.002   1.268  13.378 -1.1544 -0.6125  1.6465
 2138TIP3    H227906   6.085   1.206  13.488  0.7879 -3.0713 -1.0199
 2139TIP3   OH227907   3.456   2.991   2.243 -0.2817  0.4229  0.4151
 2139TIP3    H127908   3.472   3.081   2.213 -1.0066 -0.0236 -1.4621
 2139TIP3    H227909   3.454   2.939   2.163 -0.1145 -1.2509  1.4452
 2140TIP3   OH227910   4.060   4.840   3.577  0.3695 -0.3344 -0.2156
 2140TIP3    H127911   3.990   4.827   3.641 -1.8636 -0.9039 -2.5996
 2140TIP3    H227912   4.134   4.871   3.628 -0.9598 -1.6821  2.7484
 2141TIP3   OH227913   2.284   3.103  11.267 -0.0619 -0.1802 -0.1539
 2141TIP3    H127914   2.370   3.072  11.298  0.3964  0.3439 -0.8770
 2141TIP3    H227915   2.226   3.091  11.343  0.5183 -1.0581  0.1691
 2142TIP3   OH227916   1.060   3.495  12.011  0.0686 -0.1798 -0.0045
 2142TIP3    H127917   1.057   3.426  12.077 -1.9384 -0.0794  0.0532
 2142TIP3    H227918   1.013   3.569  12.050 -0.4892  0.1463 -1.2407
 2143TIP3   OH227919   3.743   6.061  12.664 -0.0176  0.6858 -0.3702
 2143TIP3    H127920   3.703   6.040  12.748  1.2545  0.5510  0.2285
 2143TIP3    H227921   3.678   6.114  12.618 -1.3431 -0.5278  0.0637
 2144TIP3   OH227922   1.990   0.057  15.164  0.2328 -0.2868  0.6568
 2144TIP3    H127923   1.937   0.041  15.242 -0.0129 -0.6937  0.4098
 2144TIP3    H227924   1.984   0.151  15.149 -1.1834 -0.4455  0.0919
 2145TIP3   OH227925   5.255   2.291  15.757 -0.4905 -0.4962 -0.4960
 2145TIP3    H127926   5.259   2.326  15.668 -1.6377  0.9408 -0.0273
 2145TIP3    H227927   5.309   2.350  15.809 -0.0382 -1.1719 -0.1811
 2146TIP3   OH227928   1.840   4.654  16.735 -0.9638  0.2239 -0.3066
 2146TIP3    H127929   1.797   4.603  16.804  0.1060  0.8800  0.9075
 2146TIP3    H227930   1.773   4.715  16.704 -1.2700  0.4131  0.6839
 2147TIP3   OH227931   2.618   3.090  16.387  0.2069 -0.6528  0.5374
 2147TIP3    H127932   2.566   3.015  16.417  1.4466 -0.9378  2.0963
 2147TIP3    H227933   2.593   3.162  16.446  0.7647 -0.5022  0.5936
 2148TIP3   OH227934   0.942   1.793   3.839 -0.4283  0.2196 -0.0173
 2148TIP3    H127935   1.032   1.760   3.843 -0.2405  0.6238 -0.8028
 2148TIP3    H227936   0.893   1.732   3.894 -0.2293 -1.8920 -1.9846
 2149TIP3   OH227937   0.446   0.912   2.015 -0.4546  0.0250  0.2050
 2149TIP3    H127938   0.517   0.850   2.034 -1.0805 -0.4156  1.1674
 2149TIP3    H227939   0.437   0.964   2.094  1.8401  3.2441 -1.4431
 2150TIP3   OH227940   5.201   5.770  11.970 -0.5022  0.3631 -0.0411
 2150TIP3    H127941   5.165   5.802  12.053 -0.6800 -0.7413  0.3228
 2150TIP3    H227942   5.125   5.756  11.915 -0.4831 -0.0359  0.0284
 2151TIP3   OH227943   4.930   4.932  11.123  0.1841  0.1882  0.0967
 2151TIP3    H127944   4.846   4.972  11.144 -0.6841 -1.4661 -0.0534
 2151TIP3    H227945   4.964   4.985  11.051 -0.4688  1.2043  0.5126
 2152TIP3   OH227946   5.495   0.353   5.922  0.6898 -0.2526  0.1797
 2152TIP3    H127947   5.507   0.319   6.011  0.8174 -1.2877 -0.2192
 2152TIP3    H227948   5.524   0.282   5.865 -1.8181 -0.6359 -0.7481
 2153TIP3   OH227949   2.785   1.702   6.213 -0.0168 -0.3518  0.2213
 2153TIP3    H127950   2.851   1.771   6.218 -1.1760  0.8110  0.0466
 2153TIP3    H227951   2.829   1.624   6.248  1.6453  0.2143 -0.5133
 2154TIP3   OH227952   2.619   2.918  11.658  0.0041  0.2287 -0.2685
 2154TIP3    H127953   2.531   2.932  11.692 -0.1552 -0.1293 -0.5171
 2154TIP3    H227954   2.675   2.910  11.735 -0.3596 -0.6316 -0.0820
 2155TIP3   OH227955   5.657   3.040  11.947 -0.1332 -0.5074  0.5158
 2155TIP3    H127956   5.721   3.054  12.018  0.9310  0.3640 -0.5665
 2155TIP3    H227957   5.602   3.118  11.950 -0.4426 -0.7357  0.7425
 2156TIP3   OH227958   3.074   0.490  16.124  0.0252 -0.1320  0.7609
 2156TIP3    H127959   3.063   0.489  16.029  0.0441  1.5944  0.7111
 2156TIP3    H227960   3.165   0.519  16.138  0.2964 -1.2062  1.3036
 2157TIP3   OH227961   3.979   1.028   3.756  0.5945 -0.0580 -0.1878
 2157TIP3    H127962   3.922   0.952   3.764  1.7967 -0.8444  1.2598
 2157TIP3    H227963   3.973   1.072   3.841  1.5844  0.2289 -0.2494
 2158TIP3   OH227964   3.065   5.917  15.034 -0.4953  0.6187 -0.8913
 2158TIP3    H127965   3.083   5.956  15.120 -1.3265 -1.5664  0.3808
 2158TIP3    H227966   3.138   5.857  15.019 -0.0387  1.4271 -2.0473
 2159TIP3   OH227967   3.328   4.819   4.767  0.6146  0.2080  0.1328
 2159TIP3    H127968   3.277   4.876   4.824  0.3690  0.1377 -0.0150
 2159TIP3    H227969   3.304   4.730   4.794 -0.8358  0.1318 -1.2089
 2160TIP3   OH227970   3.378   2.376   1.502  0.1603 -0.1036 -0.0466
 2160TIP3    H127971   3.319   2.449   1.522  0.1720  0.2677 -1.3096
 2160TIP3    H227972   3.336   2.330   1.429  1.0113 -0.3354 -0.4059
 2161TIP3   OH227973   6.072   5.051   1.045 -0.2519  0.1129 -0.1123
 2161TIP3    H127974   6.062   4.957   1.058  0.2504 -0.0751 -1.0495
 2161TIP3    H227975   6.092   5.061   0.952  0.3521  1.0969  0.1074
 2162TIP3   OH227976   2.711   6.594   2.621  0.1164 -0.7497 -0.0025
 2162TIP3    H127977   2.661   6.601   2.702 -0.1121  1.3916 -0.2682
 2162TIP3    H227978   2.802   6.591   2.649  0.0653  0.5568  0.3430
 2163TIP3   OH227979   6.807   1.461   6.016 -0.2471  0.5409 -0.3235
 2163TIP3    H127980   6.788   1.427   6.103 -0.3894  2.4343  0.4390
 2163TIP3    H227981   6.902   1.463   6.011 -0.2328  0.7973 -0.0286
 2164TIP3   OH227982   5.367   2.786   2.209 -0.7384  1.0751  0.0427
 2164TIP3    H127983   5.366   2.700   2.169 -2.2650  1.0127  0.1622
 2164TIP3    H227984   5.403   2.844   2.141  0.2725  0.3668 -0.0403
 2165TIP3   OH227985   1.535   3.813  13.627  0.4457 -0.2795 -0.1392
 2165TIP3    H127986   1.504   3.723  13.633 -0.0138 -0.1609 -0.7268
 2165TIP3    H227987   1.572   3.820  13.539 -1.1675  0.6233 -0.7695
 2166TIP3   OH227988   6.329   3.513   0.225  0.5328 -0.5761 -0.1350
 2166TIP3    H127989   6.325   3.463   0.144  1.6645 -0.5906 -0.1854
 2166TIP3    H227990   6.251   3.486   0.273 -0.6610  0.1004 -1.5900
 2167TIP3   OH227991   3.309   1.901  11.903 -0.0569  0.2738  0.5962
 2167TIP3    H127992   3.336   1.836  11.967 -1.1921  0.0534  0.8596
 2167TIP3    H227993   3.353   1.875  11.822 -1.4915 -1.5816  0.3654
 2168TIP3   OH227994   6.277   6.369  16.105 -0.1545 -0.4916 -0.6849
 2168TIP3    H127995   6.293   6.317  16.184 -0.1449  0.1082 -0.2801
 2168TIP3    H227996   6.311   6.316  16.034 -0.2982 -1.1093 -0.3008
 2169TIP3   OH227997   2.792   1.370  12.924 -0.2975 -0.5969 -0.3788
 2169TIP3    H127998   2.747   1.434  12.869 -0.8734 -0.2920  0.4347
 2169TIP3    H227999   2.814   1.299  12.864 -0.3259  0.0161 -1.1376
 2170TIP3   OH228000   3.787   0.443   0.724 -0.6453  0.3201 -0.2345
 2170TIP3    H128001   3.866   0.466   0.772 -1.6544  2.6782  0.4692
 2170TIP3    H228002   3.795   0.489   0.640 -1.2606  0.6462 -0.1288
 2171TIP3   OH228003   4.956   3.524  13.316 -0.0992 -0.9873 -0.1388
 2171TIP3    H128004   4.956   3.617  13.294 -1.3537 -0.8700  0.2543
 2171TIP3    H228005   5.043   3.493  13.290 -0.3894 -0.1806 -2.2954
 2172TIP3   OH228006   0.655   5.584  11.350 -0.1129 -0.6407  0.9487
 2172TIP3    H128007   0.687   5.584  11.260 -1.8845 -0.5180  0.2997
 2172TIP3    H228008   0.656   5.676  11.376 -0.9203 -0.5229  0.5675
 2173TIP3   OH228009   0.235   5.905   4.333 -0.2978 -0.2487  0.2435
 2173TIP3    H128010   0.304   5.910   4.398 -0.6886  4.1015  0.6370
 2173TIP3    H228011   0.274   5.939   4.253 -0.8419 -2.0147 -0.8310
 2174TIP3   OH228012   5.838   0.756   3.802 -0.4942  0.0507  0.1638
 2174TIP3    H128013   5.837   0.672   3.755 -2.3735  0.6758 -1.0291
 2174TIP3    H228014   5.917   0.799   3.770  0.2502 -1.0532  0.4369
 2175TIP3   OH228015   3.347   0.178  17.213 -0.8381 -0.4250  0.3074
 2175TIP3    H128016   3.342   0.131  17.130 -0.5865 -1.1101  0.6713
 2175TIP3    H228017   3.424   0.235  17.203 -0.6518 -0.6979  0.1718
 2176TIP3   OH228018   3.904   2.156  16.655  0.1822 -0.4052 -0.1296
 2176TIP3    H128019   3.816   2.156  16.617  0.9421 -1.0404 -2.0069
 2176TIP3    H228020   3.962   2.170  16.581  1.7588 -1.6350  0.8040
 2177TIP3   OH228021   0.160   1.935  16.286 -0.6318  0.2263 -0.6210
 2177TIP3    H128022   0.243   1.894  16.261 -0.5221 -0.2769  0.5317
 2177TIP3    H228023   0.123   1.876  16.352 -2.0631  0.2817 -1.3413
 2178TIP3   OH228024   2.805   6.751  10.604 -0.2869  0.0317  0.3600
 2178TIP3    H128025   2.776   6.665  10.634  0.6056 -0.6907 -0.7713
 2178TIP3    H228026   2.823   6.740  10.511  0.1403  1.3606  0.2606
 2179TIP3   OH228027   5.481   2.218   2.204 -0.2565  0.4162  0.2930
 2179TIP3    H128028   5.505   2.263   2.123  0.3918 -2.0177 -0.9693
 2179TIP3    H228029   5.446   2.134   2.175  0.7788 -0.8802  2.5529
 2180TIP3   OH228030   2.129   3.810   0.398 -0.7988 -0.5175 -0.0602
 2180TIP3    H128031   2.197   3.819   0.465  0.3064 -3.2206 -0.6921
 2180TIP3    H228032   2.098   3.900   0.384  1.6432  0.6493  1.2371
 2181TIP3   OH228033   0.678   5.639   5.162  0.1718 -0.4905 -0.2371
 2181TIP3    H128034   0.676   5.657   5.068 -1.3816 -1.5581 -0.4476
 2181TIP3    H228035   0.630   5.556   5.172 -1.7987  0.7677  1.7407
 2182TIP3   OH228036   0.555   5.346   2.062 -0.4437 -0.1440 -0.4386
 2182TIP3    H128037   0.512   5.274   2.109  0.1801  0.6208  1.4038
 2182TIP3    H228038   0.503   5.423   2.083 -0.6651  0.1050 -1.7833
 2183TIP3   OH228039   5.592   1.388  16.923 -0.5304 -0.0170  0.0491
 2183TIP3    H128040   5.631   1.379  16.835 -0.1065 -0.6029  0.2900
 2183TIP3    H228041   5.667   1.380  16.983 -0.5850  1.8316  0.4388
 2184TIP3   OH228042   5.625   2.408   4.780 -0.1694  0.0508 -0.0744
 2184TIP3    H128043   5.594   2.431   4.693  1.0806 -0.7481 -0.7535
 2184TIP3    H228044   5.634   2.313   4.778  1.2648  0.1558  0.4309
 2185TIP3   OH228045   0.361   4.271  17.151 -0.4585 -0.3942 -0.9754
 2185TIP3    H128046   0.294   4.262  17.084  0.2770 -0.3477 -1.7327
 2185TIP3    H228047   0.423   4.334  17.115  1.7804 -2.8786 -1.8259
 2186TIP3   OH228048   4.717   1.264   1.412 -0.3436  0.1633 -0.5160
 2186TIP3    H128049   4.630   1.298   1.395 -0.7191  0.0628  0.9930
 2186TIP3    H228050   4.718   1.249   1.507  0.9301 -0.8928 -0.6655
 2187TIP3   OH228051   3.983   2.125  14.681  0.6839 -0.5979 -0.0581
 2187TIP3    H128052   3.992   2.218  14.702  2.6898 -1.0818  1.5281
 2187TIP3    H228053   3.903   2.098  14.726 -1.1257  0.7319 -2.2568
 2188TIP3   OH228054   5.511   1.182   5.293  0.8123 -0.0963  0.2575
 2188TIP3    H128055   5.429   1.223   5.319  2.0988  2.7592  0.2020
 2188TIP3    H228056   5.546   1.144   5.374 -0.3157 -0.9800  0.3565
 2189TIP3   OH228057   5.712   6.565  11.972  0.2389  0.9085 -0.1654
 2189TIP3    H128058   5.775   6.509  12.016  2.4400  2.3483 -1.3117
 2189TIP3    H228059   5.641   6.506  11.947  0.2162 -0.4661  2.6816
 2190TIP3   OH228060   3.443   3.778  15.696 -0.2975  0.2380 -0.3200
 2190TIP3    H128061   3.352   3.757  15.675  0.1347 -1.1471 -0.9068
 2190TIP3    H228062   3.470   3.841  15.629 -0.7170  0.4036 -0.3341
 2191TIP3   OH228063   3.596   4.074   4.734  0.3791  0.1331 -0.4757
 2191TIP3    H128064   3.560   3.992   4.769  2.3614 -0.7734 -0.4156
 2191TIP3    H228065   3.562   4.080   4.645  1.7127 -1.8114 -1.1769
 2192TIP3   OH228066   6.549   0.223   3.003  0.0723  0.1304  0.0668
 2192TIP3    H128067   6.569   0.137   3.041  1.8932  0.7310  0.5707
 2192TIP3    H228068   6.549   0.208   2.908  1.2100 -0.2868  0.1148
 2193TIP3   OH228069   1.296   0.105   1.842 -0.2410 -0.2716 -0.2793
 2193TIP3    H128070   1.336   0.058   1.916  1.1480 -0.0781 -0.8619
 2193TIP3    H228071   1.280   0.193   1.876  2.0528  0.3665 -0.6499
 2194TIP3   OH228072   4.538   1.625  17.095  0.4739  0.7436  0.1635
 2194TIP3    H128073   4.571   1.625  17.006  1.6690  3.2865  0.5115
 2194TIP3    H228074   4.597   1.683  17.143 -1.5499  1.4443  2.0188
 2195TIP3   OH228075   1.009   6.015   0.618  0.3540 -0.0657 -0.2022
 2195TIP3    H128076   1.062   6.092   0.637  0.1938  0.4795 -1.8246
 2195TIP3    H228077   0.925   6.051   0.588  0.9677 -0.7331 -3.0521
 2196TIP3   OH228078   0.433   6.329  12.745  0.3645  0.8954  0.1858
 2196TIP3    H128079   0.446   6.389  12.818 -1.6835 -0.0361  1.3685
 2196TIP3    H228080   0.381   6.378  12.682  1.2825  1.3592 -0.2279
 2197TIP3   OH228081   0.663   1.900   3.299 -0.1569 -0.4361 -0.4567
 2197TIP3    H128082   0.746   1.923   3.340 -0.3366 -1.3737  0.4902
 2197TIP3    H228083   0.611   1.863   3.371 -1.8747  1.3117 -0.7294
 2198TIP3   OH228084   1.555   2.460   5.175 -0.4135  0.0896 -0.4994
 2198TIP3    H128085   1.624   2.396   5.160  0.5511  0.3104  2.3717
 2198TIP3    H228086   1.590   2.518   5.243 -2.7580  1.2696 -0.1922
 2199TIP3   OH228087   0.449   1.084  14.863  0.2850 -0.1672 -0.5130
 2199TIP3    H128088   0.429   1.153  14.800 -0.3136 -0.6462 -0.8536
 2199TIP3    H228089   0.461   1.130  14.946 -2.0695  0.1790 -0.2996
 2200TIP3   OH228090   4.119   5.781  16.235 -0.2773 -0.0928  0.1725
 2200TIP3    H128091   4.199   5.794  16.287  0.9637 -0.4687 -1.5578
 2200TIP3    H228092   4.150   5.769  16.146 -2.3307  0.2456 -0.6386
 2201TIP3   OH228093   2.531   0.645   1.151  0.2807 -0.0277 -0.0991
 2201TIP3    H128094   2.533   0.732   1.112  0.1962  1.1914  2.4807
 2201TIP3    H228095   2.473   0.653   1.226  2.0608 -1.6897  1.5691
 2202TIP3   OH228096   5.383   5.049   0.218  0.4746 -0.1442 -0.3347
 2202TIP3    H128097   5.336   4.972   0.251  1.7997 -1.1852 -0.7794
 2202TIP3    H228098   5.361   5.052   0.125  1.4512 -0.7922 -0.6016
 2203TIP3   OH228099   4.663   0.020  13.857 -1.0283  0.0562  0.4429
 2203TIP3    H128100   4.650  -0.074  13.858  1.8552 -0.4337  1.6769
 2203TIP3    H228101   4.604   0.054  13.924 -1.4689 -0.9598  0.5865
 2204TIP3   OH228102   6.232   6.526   1.329 -0.3216  0.1180  0.3808
 2204TIP3    H128103   6.199   6.454   1.276  1.7673  0.4056 -1.4591
 2204TIP3    H228104   6.200   6.507   1.417 -2.1925 -1.5002 -0.5717
 2205TIP3   OH228105   3.815   3.202  13.757 -0.1801  0.3473  0.2704
 2205TIP3    H128106   3.772   3.175  13.676 -1.5409  0.7487  0.8262
 2205TIP3    H228107   3.897   3.152  13.758 -2.1178 -3.1647  0.8145
 2206TIP3   OH228108   4.261   0.496  12.155  0.1837 -0.2840 -0.3364
 2206TIP3    H128109   4.282   0.460  12.241  1.0973 -0.3014 -0.5610
 2206TIP3    H228110   4.271   0.591  12.166 -0.6714 -0.2017 -0.1694
 2207TIP3   OH228111   2.416   4.518   2.293 -0.0876 -0.3868 -0.4853
 2207TIP3    H128112   2.363   4.583   2.340  0.2626 -0.0278 -0.5829
 2207TIP3    H228113   2.444   4.563   2.213  0.0933 -0.6859 -0.5911
 2208TIP3   OH228114   0.466   4.033  16.379 -0.1055  0.2956  0.1556
 2208TIP3    H128115   0.516   4.100  16.332  0.2819  2.1716  3.0076
 2208TIP3    H228116   0.375   4.061  16.370 -0.0859  0.3485  0.1203
 2209TIP3   OH228117   5.988   2.027   2.732 -0.5296  0.5735  0.3502
 2209TIP3    H128118   5.927   2.052   2.802 -2.7049 -0.4641 -1.0587
 2209TIP3    H228119   5.971   2.090   2.662 -1.8227 -1.1703 -0.9883
 2210TIP3   OH228120   5.629   3.179  13.924 -0.0564 -0.7731 -0.1672
 2210TIP3    H128121   5.615   3.093  13.965  0.7060  0.1752  2.3027
 2210TIP3    H228122   5.547   3.226  13.937  0.6318  0.0292  1.7840
 2211TIP3   OH228123   5.899   3.893  11.470  0.3021 -0.2570 -0.2091
 2211TIP3    H128124   5.918   3.814  11.419  0.4564 -0.2437 -0.1711
 2211TIP3    H228125   5.984   3.933  11.485  0.2663 -0.3050  0.1351
 2212TIP3   OH228126   1.174   5.090  16.041  0.4824 -0.0253  0.2153
 2212TIP3    H128127   1.236   5.017  16.036  1.8645  1.1490 -1.1489
 2212TIP3    H228128   1.125   5.086  15.959  0.1118  0.2014  0.4221
 2213TIP3   OH228129   2.968   0.835  16.434 -0.6553 -0.0373  0.5519
 2213TIP3    H128130   2.916   0.832  16.354 -0.5032  1.5784  0.3684
 2213TIP3    H228131   3.039   0.772  16.419 -1.1861 -0.4788 -0.1641
 2214TIP3   OH228132   1.481   1.571   6.627 -0.2741 -0.7138  0.1468
 2214TIP3    H128133   1.530   1.633   6.682 -2.1767 -0.2798  1.4878
 2214TIP3    H228134   1.533   1.562   6.548  0.6845  1.6836  0.4211
 2215TIP3   OH228135   0.149   1.239  10.651  0.0067 -0.1922  0.2396
 2215TIP3    H128136   0.111   1.248  10.564 -0.3122  1.4982  0.5132
 2215TIP3    H228137   0.089   1.182  10.699 -0.7117  0.2306 -0.1537
 2216TIP3   OH228138   3.896   2.955   0.093 -0.4863 -0.4206 -0.1513
 2216TIP3    H128139   3.866   3.040   0.126 -1.0243 -0.8093  0.3869
 2216TIP3    H228140   3.820   2.919   0.047 -1.2645 -1.9079  2.1710
 2217TIP3   OH228141   5.059   5.894  13.472 -0.2949  0.5384  0.7300
 2217TIP3    H128142   5.123   5.934  13.412 -0.2565  1.6276  1.4560
 2217TIP3    H228143   5.073   5.800  13.463  0.0451  0.6905 -0.5940
 2218TIP3   OH228144   2.448   3.729  15.782  0.5895 -0.4758 -0.1759
 2218TIP3    H128145   2.378   3.777  15.737 -0.9684 -2.1089  0.4136
 2218TIP3    H228146   2.441   3.757  15.874  0.8099 -0.5552 -0.1338
 2219TIP3   OH228147   5.937   3.926  16.145 -0.0851  0.2599  0.5232
 2219TIP3    H128148   5.917   3.994  16.210 -0.1606 -1.9962  3.0533
 2219TIP3    H228149   6.033   3.928  16.138 -0.0892  0.6400  0.5416
 2220TIP3   OH228150   4.381   5.303   0.777 -0.0830 -0.3229 -0.0344
 2220TIP3    H128151   4.419   5.316   0.864  0.5209  0.6090 -0.4266
 2220TIP3    H228152   4.288   5.286   0.794 -0.2815  1.3612  0.7203
 2221TIP3   OH228153   6.456   4.673  12.431  0.3609  0.1488 -0.0900
 2221TIP3    H128154   6.416   4.704  12.350  0.8631  1.4244  0.1233
 2221TIP3    H228155   6.383   4.642  12.484 -0.4550  2.7279  0.4235
 2222TIP3   OH228156   1.553   6.216  15.777 -0.2876  0.2866 -0.1135
 2222TIP3    H128157   1.488   6.210  15.846 -0.5211 -0.5514 -0.3918
 2222TIP3    H228158   1.637   6.206  15.822 -0.3808  0.7770  0.1713
 2223TIP3   OH228159   2.037   0.894   1.793  0.0127  0.7741 -0.2279
 2223TIP3    H128160   2.066   0.860   1.708  1.4160  0.7025  0.2557
 2223TIP3    H228161   2.108   0.951   1.821  0.3260 -0.4429  1.6356
 2224TIP3   OH228162   1.918   4.341  15.844 -0.2893  0.6080 -0.7824
 2224TIP3    H128163   1.938   4.293  15.764  0.8022  2.3337 -1.6019
 2224TIP3    H228164   1.989   4.405  15.852 -1.6182  2.0083  0.3108
 2225TIP3   OH228165   4.623   3.469   5.766 -0.3923 -0.2973 -0.3999
 2225TIP3    H128166   4.538   3.448   5.804 -0.5779  0.3364 -0.4466
 2225TIP3    H228167   4.680   3.487   5.841  0.4705 -3.3045 -0.2018
 2226TIP3   OH228168   2.419   2.211  15.272  0.0170 -0.0971 -0.0980
 2226TIP3    H128169   2.457   2.295  15.296  1.1161 -0.9085  1.1991
 2226TIP3    H228170   2.440   2.200  15.179  2.3805 -0.1622  0.3915
 2227TIP3   OH228171   6.189   0.592   4.466  0.1655  0.2815  0.1748
 2227TIP3    H128172   6.199   0.500   4.441  0.7557  0.0034  1.3642
 2227TIP3    H228173   6.222   0.641   4.391  0.5024 -0.4904 -0.1927
 2228TIP3   OH228174   0.055   2.986   0.012 -0.7082 -0.5194  0.0090
 2228TIP3    H128175   0.130   3.045   0.022 -1.6575  0.4425  1.8184
 2228TIP3    H228176  -0.005   3.034  -0.045 -0.7446 -0.4786  0.0809
 2229TIP3   OH228177   6.001   5.308   1.061 -0.1633 -0.9337 -0.0857
 2229TIP3    H128178   5.910   5.320   1.034 -0.5555 -0.4837  1.3368
 2229TIP3    H228179   6.022   5.219   1.035 -1.7567 -1.8473  1.5123
 2230TIP3   OH228180   0.693   4.883   1.477  0.6894 -0.5339  0.1743
 2230TIP3    H128181   0.650   4.931   1.406  0.9144 -1.8412 -0.9059
 2230TIP3    H228182   0.622   4.846   1.528  0.5237 -0.1834  0.1977
 2231TIP3   OH228183   2.247   4.357  16.473  0.2463  0.0570  0.0551
 2231TIP3    H128184   2.277   4.345  16.563  2.3558  2.3786 -0.2423
 2231TIP3    H228185   2.255   4.451  16.457 -0.7727 -0.1882 -2.3520
 2232TIP3   OH228186   1.327   6.801  14.483  0.1302 -0.4441  0.1412
 2232TIP3    H128187   1.365   6.736  14.423  1.2501 -0.2092  0.5779
 2232TIP3    H228188   1.323   6.881  14.431  3.1885  0.3690  0.9384
 2233TIP3   OH228189   6.426   0.731  11.911  0.8232 -0.2153  0.2264
 2233TIP3    H128190   6.411   0.809  11.858 -0.2157 -1.1311 -0.9181
 2233TIP3    H228191   6.438   0.763  12.000  0.4893  1.2425 -0.2344
 2234TIP3   OH228192   3.960   0.639   0.979 -0.3821  0.3451  0.3599
 2234TIP3    H128193   3.946   0.694   0.902  1.0008  0.3318  0.0808
 2234TIP3    H228194   3.932   0.693   1.053 -0.0784  1.0031 -0.0055
 2235TIP3   OH228195   0.149   3.163  15.978  0.4688  0.0993 -0.0199
 2235TIP3    H128196   0.105   3.224  15.919 -1.6337 -1.1421  0.1557
 2235TIP3    H228197   0.202   3.107  15.921  0.5235  0.5587 -0.4254
 2236TIP3   OH228198   3.416   3.152  12.215  0.3990 -0.5256 -0.1497
 2236TIP3    H128199   3.437   3.082  12.153  0.3939 -0.7876  0.1424
 2236TIP3    H228200   3.413   3.109  12.300 -0.0124 -0.2468 -0.0175
 2237TIP3   OH228201   1.904   4.881  13.325  0.3159 -0.2018  0.0971
 2237TIP3    H128202   1.987   4.917  13.356 -0.4416  0.9677  0.8351
 2237TIP3    H228203   1.891   4.803  13.379  1.6512 -1.2875 -1.0672
 2238TIP3   OH228204   6.316   0.667   4.229  0.0960  0.3439 -0.8856
 2238TIP3    H128205   6.310   0.619   4.146 -3.1704 -2.2893  0.6013
 2238TIP3    H228206   6.398   0.636   4.269 -0.2838 -1.5450 -1.4582
 2239TIP3   OH228207   3.957   2.578   0.032 -0.2818  0.3112 -0.0234
 2239TIP3    H128208   3.906   2.650   0.069 -2.3597 -1.0651 -0.0135
 2239TIP3    H228209   3.945   2.506   0.094  1.1042 -0.3079 -0.4217
 2240TIP3   OH228210   3.474   6.514   3.469  0.0113  0.2119  0.0424
 2240TIP3    H128211   3.499   6.603   3.494  1.0987 -0.0146 -0.1912
 2240TIP3    H228212   3.513   6.501   3.382  1.1664 -1.0021  0.7041
 2241TIP3   OH228213   5.976   4.878  10.448  0.1062 -0.0949 -0.8504
 2241TIP3    H128214   6.047   4.935  10.478 -0.5510  0.3696 -0.1024
 2241TIP3    H228215   5.899   4.910  10.496 -0.5215 -0.8421 -1.3384
 2242TIP3   OH228216   2.763   2.601   0.237 -0.2206 -0.4865  0.1155
 2242TIP3    H128217   2.768   2.609   0.142  3.6709 -0.7764  0.1552
 2242TIP3    H228218   2.774   2.508   0.255  1.6052 -0.1611  0.8657
 2243TIP3   OH228219   5.089   2.767   0.765  0.2651  0.6640  0.3559
 2243TIP3    H128220   5.118   2.823   0.838  0.1043  1.9677 -0.5442
 2243TIP3    H228221   4.997   2.748   0.785  0.6926 -0.5119  1.3878
 2244TIP3   OH228222   2.807   6.126   0.560  0.4655 -0.4903 -0.6786
 2244TIP3    H128223   2.718   6.160   0.552  0.5232  0.5278  1.8496
 2244TIP3    H228224   2.842   6.126   0.471 -2.1896 -1.4185 -1.8188
 2245TIP3   OH228225   6.317   5.082  11.286  0.4620 -0.3885 -0.3639
 2245TIP3    H128226   6.231   5.087  11.327 -0.3500  0.8413 -2.0850
 2245TIP3    H228227   6.308   5.133  11.205  2.6772 -0.6207 -0.8212
 2246TIP3   OH228228   0.481   1.571   4.024 -0.6905  1.0525  0.1040
 2246TIP3    H128229   0.490   1.475   4.022 -2.0120  0.8734  1.2692
 2246TIP3    H228230   0.389   1.587   4.003 -0.6259  2.0371  0.5138
 2247TIP3   OH228231   3.820   6.287  15.627  1.0252 -0.2768  0.9632
 2247TIP3    H128232   3.852   6.268  15.539  1.9950 -1.2032  1.4864
 2247TIP3    H228233   3.827   6.203  15.673  1.1606  0.3430  2.1044
 2248TIP3   OH228234   3.672   3.577   0.950 -0.2227 -0.6514  0.1900
 2248TIP3    H128235   3.588   3.549   0.987 -1.0088  0.2900 -0.8070
 2248TIP3    H228236   3.663   3.672   0.938  0.6481 -0.6645 -0.7515
 2249TIP3   OH228237   5.142   1.663  11.442 -0.3346 -0.0251 -0.0658
 2249TIP3    H128238   5.119   1.687  11.352  2.2884  0.4431 -0.6961
 2249TIP3    H228239   5.119   1.740  11.494 -1.5837 -0.1797 -0.3650
 2250TIP3   OH228240   1.085   6.238   4.979 -0.0526  0.0710  0.4111
 2250TIP3    H128241   1.139   6.258   5.056 -1.0139  0.0715  1.1102
 2250TIP3    H228242   1.018   6.306   4.978 -0.5869 -0.4472  0.0998
 2251TIP3   OH228243   4.651   3.627  12.277 -0.1805 -0.4753  0.1894
 2251TIP3    H128244   4.602   3.695  12.232  0.5502  0.0883  0.2253
 2251TIP3    H228245   4.655   3.656  12.368  0.4201 -0.3848  0.1405
 2252TIP3   OH228246   2.980   6.343  15.093 -0.2786  0.0529  0.6338
 2252TIP3    H128247   2.901   6.376  15.051 -0.7734 -0.4278  1.1750
 2252TIP3    H228248   3.032   6.422  15.111 -1.2910  0.5318  1.6104
 2253TIP3   OH228249   5.058   4.489   3.236 -0.3883 -0.0978  0.0060
 2253TIP3    H128250   5.021   4.487   3.324 -0.3838  0.8204  0.0363
 2253TIP3    H228251   5.066   4.397   3.211  0.2523 -0.3895  1.2289
 2254TIP3   OH228252   5.684   4.021   3.087  0.2118 -0.0280 -0.2801
 2254TIP3    H128253   5.780   4.016   3.081  0.1414 -0.6454 -1.1339
 2254TIP3    H228254   5.653   3.961   3.019 -0.7859 -0.1290  0.2500
 2255TIP3   OH228255   1.054   4.768  12.365 -0.0661 -0.2596 -0.5959
 2255TIP3    H128256   1.139   4.739  12.332 -0.4950 -0.0920 -1.9270
 2255TIP3    H228257   0.993   4.701  12.337 -0.4199 -0.2679  0.1610
 2256TIP3   OH228258   5.667   5.922   3.596  0.9276  0.3593  0.3213
 2256TIP3    H128259   5.701   5.833   3.591  0.6119  0.2843 -0.7463
 2256TIP3    H228260   5.732   5.976   3.551  1.3160  0.7380  1.3168
 2257TIP3   OH228261   2.133   4.513   3.923 -0.2924 -0.3310 -0.4228
 2257TIP3    H128262   2.045   4.530   3.956  0.8723  0.2223  2.7809
 2257TIP3    H228263   2.148   4.582   3.858 -1.7914  0.2655 -0.1693
 2258TIP3   OH228264   1.817   3.565  13.857 -0.0604 -0.1457 -0.0575
 2258TIP3    H128265   1.874   3.632  13.821  1.9783 -1.6822  0.1595
 2258TIP3    H228266   1.766   3.534  13.782 -0.0201  0.6696 -0.4265
 2259TIP3   OH228267   4.165   5.203   3.766  0.5247 -0.1486 -0.3227
 2259TIP3    H128268   4.176   5.178   3.857  1.0200  1.2765  0.0460
 2259TIP3    H228269   4.212   5.136   3.716 -0.6355 -1.5300  0.3609
 2260TIP3   OH228270   2.399   0.995  12.760 -0.4201 -0.8464  0.3001
 2260TIP3    H128271   2.398   0.932  12.831  0.9192 -1.9849 -0.6473
 2260TIP3    H228272   2.439   0.949  12.687 -0.9503  0.5688 -0.9466
 2261TIP3   OH228273   6.355   4.648   5.942  0.4391 -0.4762 -0.8350
 2261TIP3    H128274   6.439   4.667   5.985 -0.3156  1.7661 -0.2569
 2261TIP3    H228275   6.327   4.566   5.982  1.3375 -0.1509  0.5616
 2262TIP3   OH228276   3.440   5.213  17.008 -0.2561  0.4371  0.4498
 2262TIP3    H128277   3.444   5.254  16.921 -1.0932  0.6623  0.5143
 2262TIP3    H228278   3.517   5.247  17.053  0.2810  0.1892 -0.2564
 2263TIP3   OH228279   0.766   6.482   3.710  0.1156 -0.7636 -0.2337
 2263TIP3    H128280   0.747   6.502   3.801  2.0088  1.2889 -0.2175
 2263TIP3    H228281   0.842   6.423   3.713 -0.1302 -1.1029 -0.4946
 2264TIP3   OH228282   5.274   1.657   3.851  0.1823 -0.7097 -0.5091
 2264TIP3    H128283   5.368   1.654   3.866 -0.1359 -1.6071  1.7331
 2264TIP3    H228284   5.255   1.749   3.833  1.3725 -0.3651 -0.0950
 2265TIP3   OH228285   4.738   3.818   4.699 -0.0240  0.1165  0.1250
 2265TIP3    H128286   4.787   3.818   4.781 -0.2601  1.5536  0.2934
 2265TIP3    H228287   4.790   3.871   4.640 -0.3717 -0.0437 -0.3288
 2266TIP3   OH228288   0.689   0.469  10.593  0.0868  0.3439  0.1358
 2266TIP3    H128289   0.594   0.474  10.604  0.0136  2.3951 -0.9518
 2266TIP3    H228290   0.702   0.439  10.504  0.5246 -1.6105  0.8093
 2267TIP3   OH228291   2.941   0.658  13.933 -0.5260  0.4558  0.2267
 2267TIP3    H128292   2.984   0.623  14.011  0.2287  1.1217  0.1289
 2267TIP3    H228293   2.907   0.582  13.887 -1.4885  0.0837  1.4876
 2268TIP3   OH228294   6.798   3.795  15.651  0.4922  0.1212 -0.2853
 2268TIP3    H128295   6.861   3.843  15.597  0.5621  1.6539  1.0730
 2268TIP3    H228296   6.721   3.852  15.653 -0.2765 -0.8896 -0.4379
 2269TIP3   OH228297   3.704   0.806  15.455 -0.1872 -0.2979 -0.3895
 2269TIP3    H128298   3.711   0.736  15.520 -1.3703 -1.0280 -1.0082
 2269TIP3    H228299   3.636   0.864  15.490 -0.2410 -0.2431 -0.5844
 2270TIP3   OH228300   3.183   2.765  16.118  0.1897 -0.1362  0.1466
 2270TIP3    H128301   3.209   2.756  16.210  1.1731 -0.8181 -0.1817
 2270TIP3    H228302   3.101   2.814  16.121 -0.5768 -1.4003  1.4994
 2271TIP3   OH228303   6.285   3.863  15.432  0.4342 -0.0127  0.0238
 2271TIP3    H128304   6.252   3.830  15.516 -1.8395  0.8915 -0.4398
 2271TIP3    H228305   6.280   3.787  15.374 -1.8833  0.2579 -0.2591
 2272TIP3   OH228306   5.584   3.850  15.554 -0.1788 -0.2459 -0.5933
 2272TIP3    H128307   5.497   3.855  15.594 -0.8917  1.3429 -2.1662
 2272TIP3    H228308   5.629   3.930  15.583  0.4140 -0.6137 -0.4932
 2273TIP3   OH228309   5.064   0.585   2.615 -0.6754 -0.0029  0.6482
 2273TIP3    H128310   5.011   0.637   2.556  1.5760  1.9411  0.2199
 2273TIP3    H228311   5.126   0.539   2.559 -0.4793 -0.5254  1.2724
 2274TIP3   OH228312   5.130   0.977  11.163  0.2893  0.7280  0.4675
 2274TIP3    H128313   5.129   0.924  11.083 -1.0797  2.2145 -0.5532
 2274TIP3    H228314   5.201   0.940  11.215  0.1981 -1.2997 -0.7323
 2275TIP3   OH228315   2.836   5.926   4.710  1.1393 -0.2959  0.2920
 2275TIP3    H128316   2.752   5.880   4.712  2.0048 -2.0387 -0.5895
 2275TIP3    H228317   2.845   5.956   4.619  2.1851 -1.6616 -0.1019
 2276TIP3   OH228318   6.351   5.835  16.345  0.0246 -0.4469  0.1007
 2276TIP3    H128319   6.271   5.832  16.397 -0.0090  2.4881  0.3916
 2276TIP3    H228320   6.404   5.762  16.377 -2.4316 -2.4129 -0.0368
 2277TIP3   OH228321   4.971   5.146   3.129  0.3283 -0.8722  0.3075
 2277TIP3    H128322   4.914   5.171   3.201 -0.5709 -1.5929 -0.1422
 2277TIP3    H228323   5.016   5.227   3.105 -1.5216  0.0496 -0.2322
 2278TIP3   OH228324   3.490   6.231   5.593 -0.1746 -0.0582  0.5551
 2278TIP3    H128325   3.584   6.242   5.606  0.1648 -1.3885 -0.5456
 2278TIP3    H228326   3.473   6.140   5.617 -0.3173 -1.2703 -3.3753
 2279TIP3   OH228327   4.438   2.290  14.137  0.4523  0.4527 -0.0869
 2279TIP3    H128328   4.435   2.348  14.061  0.3811 -0.8296 -1.1023
 2279TIP3    H228329   4.488   2.338  14.202 -0.3929  2.0370 -0.5399
 2280TIP3   OH228330   4.450   4.677  12.033  0.4610  0.3907 -0.3494
 2280TIP3    H128331   4.527   4.729  12.014  1.9069 -1.4584  0.1653
 2280TIP3    H228332   4.414   4.716  12.113  1.3706  0.7550 -0.1061
 2281TIP3   OH228333   2.278   6.594   0.443  0.0707  0.0919 -0.1037
 2281TIP3    H128334   2.207   6.652   0.471 -3.7114 -2.7134 -2.7897
 2281TIP3    H228335   2.273   6.519   0.503 -0.3600 -0.8102 -1.2229
 2282TIP3   OH228336   4.859   5.693   1.908  0.4230 -0.0472 -0.4714
 2282TIP3    H128337   4.793   5.624   1.913 -0.5998  0.8306 -1.4101
 2282TIP3    H228338   4.943   5.647   1.905 -0.2190 -1.2181 -0.6685
 2283TIP3   OH228339   4.912   0.216   2.847 -0.7258  0.0511 -0.0942
 2283TIP3    H128340   4.837   0.171   2.807 -2.4711  2.8817 -0.2981
 2283TIP3    H228341   4.887   0.229   2.938  0.2132 -0.3262  0.2250
 2284TIP3   OH228342   3.026   3.237   0.828  0.5124  0.3869 -0.2681
 2284TIP3    H128343   3.062   3.171   0.769 -0.4072 -0.0011 -0.4165
 2284TIP3    H228344   3.054   3.210   0.915  1.7466  0.8755 -0.4929
 2285TIP3   OH228345   5.026   1.661   2.079  0.3026  0.0702 -0.9265
 2285TIP3    H128346   4.976   1.738   2.051 -0.1952 -0.0401 -0.3517
 2285TIP3    H228347   5.065   1.628   1.998  0.7702  1.0957 -1.1403
 2286TIP3   OH228348   0.330   4.457  15.029 -0.4209 -0.0286 -0.9781
 2286TIP3    H128349   0.332   4.396  14.956 -1.4216  0.7582 -1.6959
 2286TIP3    H228350   0.315   4.542  14.988  1.0088  0.7211 -0.0066
 2287TIP3   OH228351   0.028   5.626  14.748 -0.0248  0.2109  0.0571
 2287TIP3    H128352  -0.058   5.586  14.736  0.0632 -0.0865  0.3991
 2287TIP3    H228353   0.016   5.685  14.822 -0.4304  1.6374 -1.0944
 2288TIP3   OH228354   4.376   5.527   3.312  0.1532  0.1339 -0.3687
 2288TIP3    H128355   4.471   5.532   3.305  0.2873 -1.6713 -0.2106
 2288TIP3    H228356   4.360   5.455   3.373 -1.3353 -0.9477 -1.9434
 2289TIP3   OH228357   5.600   4.784   4.590 -0.3576 -0.1988  0.3049
 2289TIP3    H128358   5.615   4.690   4.603  0.4881 -0.3387 -1.3109
 2289TIP3    H228359   5.505   4.794   4.590 -0.7595 -1.9078 -3.9817
 2290TIP3   OH228360   0.577   2.481  12.722  0.0377 -0.3178 -0.0245
 2290TIP3    H128361   0.625   2.557  12.756 -0.4538 -0.1519  0.3088
 2290TIP3    H228362   0.629   2.405  12.749 -0.2967 -0.1839  1.0352
 2291TIP3   OH228363   0.489   1.148   4.395  0.6077  0.5729 -0.0972
 2291TIP3    H128364   0.476   1.230   4.348 -0.8901  0.9371  0.8818
 2291TIP3    H228365   0.583   1.147   4.416  0.5967  2.1847  0.1270
 2292TIP3   OH228366   2.865   4.976   5.840 -0.2672 -0.5192  0.5282
 2292TIP3    H128367   2.845   5.064   5.869  1.4270 -0.3853  1.4712
 2292TIP3    H228368   2.940   4.986   5.781 -0.9800 -1.2035 -0.5295
 2293TIP3   OH228369   5.674   4.764  12.908  1.0810 -0.1557  0.3708
 2293TIP3    H128370   5.700   4.855  12.916  1.5792 -0.3356  0.8214
 2293TIP3    H228371   5.598   4.755  12.965  0.7440  0.0886 -0.0393
 2294TIP3   OH228372   6.634   3.407  14.941  0.5899 -0.1069  0.1303
 2294TIP3    H128373   6.626   3.493  14.900 -0.9923  1.0027  2.5802
 2294TIP3    H228374   6.607   3.346  14.872  0.9282  1.3807 -1.4026
 2295TIP3   OH228375   2.432   6.455   0.966 -0.9138  0.1436 -0.2804
 2295TIP3    H128376   2.373   6.381   0.953  0.1579 -1.4519  2.9496
 2295TIP3    H228377   2.375   6.525   1.000 -1.2469 -0.8567  1.3106
 2296TIP3   OH228378   6.327   1.620  15.805  0.0496 -0.3200  0.1705
 2296TIP3    H128379   6.363   1.671  15.733  2.2407 -0.2532  1.2465
 2296TIP3    H228380   6.338   1.529  15.779  1.7695 -0.3180  0.7979
 2297TIP3   OH228381   1.175   3.540   3.313  0.0929  0.2404 -0.5941
 2297TIP3    H128382   1.136   3.457   3.341  0.0032  0.5597  0.2594
 2297TIP3    H228383   1.265   3.536   3.344 -0.1630  0.8334  0.2710
 2298TIP3   OH228384   2.302   3.552   3.111  0.3767 -0.3370  0.2816
 2298TIP3    H128385   2.297   3.561   3.206  1.2415  1.2654  0.2085
 2298TIP3    H228386   2.283   3.460   3.094  0.0612 -0.6123  1.9885
 2299TIP3   OH228387   4.913   4.040  13.320  0.2005 -0.2689 -0.0779
 2299TIP3    H128388   4.905   4.086  13.403 -0.0470  0.4721 -0.4942
 2299TIP3    H228389   4.880   4.103  13.255  0.7196 -0.6948 -0.7726
 2300TIP3   OH228390   4.698   3.507   2.878  0.0546  0.3712 -0.2902
 2300TIP3    H128391   4.660   3.476   2.796  1.8048 -0.2334 -0.9133
 2300TIP3    H228392   4.756   3.436   2.906  2.8483  2.3058 -0.8390
 2301TIP3   OH228393   5.738   5.532  14.386  0.0599 -0.2010 -0.3675
 2301TIP3    H128394   5.723   5.618  14.345 -0.6548  0.6504  1.5955
 2301TIP3    H228395   5.810   5.495  14.336 -0.4018  1.0132 -2.0377
 2302TIP3   OH228396   4.356   5.807  17.005  0.0675  0.2578  0.4461
 2302TIP3    H128397   4.376   5.895  16.973  1.0513 -0.5743 -1.4018
 2302TIP3    H228398   4.264   5.794  16.985 -0.0049  0.7564  0.4500
 2303TIP3   OH228399   4.566   2.660   0.597 -0.0669  0.0869  0.3474
 2303TIP3    H128400   4.602   2.592   0.540 -1.1156  0.7378 -1.1556
 2303TIP3    H228401   4.534   2.612   0.674 -1.2089 -1.2198 -0.8808
 2304TIP3   OH228402   2.747   2.470   0.676  0.4602 -0.2146  0.2528
 2304TIP3    H128403   2.673   2.473   0.737 -0.1352  0.5492 -0.4827
 2304TIP3    H228404   2.712   2.423   0.599  1.0958 -0.8685  0.3553
 2305TIP3   OH228405   1.201   5.707  14.442  0.0688  0.1319 -0.2867
 2305TIP3    H128406   1.173   5.633  14.496 -1.0286  0.2253 -0.6960
 2305TIP3    H228407   1.195   5.783  14.501 -0.9659  0.2097 -0.4803
 2306TIP3   OH228408   1.080   5.101  15.253  0.0937 -0.0568  0.4372
 2306TIP3    H128409   1.121   5.111  15.339  2.5201  0.7946 -0.7146
 2306TIP3    H228410   0.986   5.095  15.271  0.3086  2.3863  2.9594
 2307TIP3   OH228411   4.555   5.276  10.633 -0.3559 -0.4123 -0.3193
 2307TIP3    H128412   4.646   5.247  10.642  0.3312  1.6651  0.0422
 2307TIP3    H228413   4.549   5.353  10.690 -2.9322 -1.6637  1.2596
 2308TIP3   OH228414   4.693   6.639   4.349 -0.0083 -0.0968 -0.2121
 2308TIP3    H128415   4.634   6.593   4.290  2.2435 -0.6615 -2.1852
 2308TIP3    H228416   4.688   6.731   4.322  0.7863 -0.3087 -1.1249
 2309TIP3   OH228417   3.310   3.343  13.396 -0.4445  1.0095 -0.6826
 2309TIP3    H128418   3.302   3.284  13.322 -1.7509 -0.2892  0.4342
 2309TIP3    H228419   3.281   3.428  13.362  0.7000  0.8804 -2.0937
 2310TIP3   OH228420   4.238   6.403  15.325 -0.1073  0.0649 -0.4307
 2310TIP3    H128421   4.331   6.426  15.328  0.5720 -2.4772  0.3209
 2310TIP3    H228422   4.225   6.348  15.403 -2.8285  2.1980  0.7988
 2311TIP3   OH228423   4.884   2.252   4.664 -0.4059  0.6128  0.0623
 2311TIP3    H128424   4.972   2.218   4.651 -0.8018  0.0788 -1.5605
 2311TIP3    H228425   4.897   2.340   4.700  0.7656  0.3966  0.1989
 2312TIP3   OH228426   1.266   4.752  16.081  0.2613 -0.4324  0.5340
 2312TIP3    H128427   1.316   4.761  16.162 -1.3952 -1.5686  1.7567
 2312TIP3    H228428   1.174   4.754  16.110 -0.3636 -1.8151 -1.1985
 2313TIP3   OH228429   3.458   6.405  15.661  0.5208 -0.5382  0.0600
 2313TIP3    H128430   3.525   6.340  15.683 -0.2781 -1.9272 -1.4668
 2313TIP3    H228431   3.432   6.385  15.571 -2.2210 -0.3257  0.6972
 2314TIP3   OH228432   6.027   1.118   6.395 -0.1606  1.1322  0.1954
 2314TIP3    H128433   5.961   1.110   6.464 -0.7812 -1.0204 -0.5775
 2314TIP3    H228434   6.111   1.119   6.443 -0.4765 -1.9386  1.0371
 2315TIP3   OH228435   0.981   6.820  16.875 -0.5218  0.8917 -0.1399
 2315TIP3    H128436   0.963   6.898  16.823 -0.9066 -0.0291 -1.4364
 2315TIP3    H228437   0.953   6.747  16.819 -2.3414 -0.0888  1.9338
 2316TIP3   OH228438   0.567   2.030   4.192  0.6031  0.7732  0.4568
 2316TIP3    H128439   0.601   1.984   4.270  1.0057  1.6985  0.8381
 2316TIP3    H228440   0.638   2.088   4.165  0.3957  0.5925 -0.5038
 2317TIP3   OH228441   0.296   1.094   4.722  0.5367 -0.2381  0.1991
 2317TIP3    H128442   0.283   1.040   4.644  0.4723 -0.7803  0.5777
 2317TIP3    H228443   0.287   1.184   4.691  2.7259 -0.3321 -0.8453
 2318TIP3   OH228444   3.719   5.100  11.226 -0.6654 -0.0761  0.2302
 2318TIP3    H128445   3.646   5.161  11.216 -0.4141  0.1817 -0.0315
 2318TIP3    H228446   3.776   5.117  11.151 -0.7236 -0.8170  0.0011
 2319TIP3   OH228447   0.295   5.016  12.615 -0.4215  0.1311  0.1865
 2319TIP3    H128448   0.248   5.068  12.681 -0.7310  0.6075 -0.4037
 2319TIP3    H228449   0.258   5.044  12.532 -0.7416 -1.1868 -0.1354
 2320TIP3   OH228450   5.295   5.089  16.756  0.2503  0.0260  0.0305
 2320TIP3    H128451   5.215   5.036  16.758 -0.2929  0.8373  1.1560
 2320TIP3    H228452   5.264   5.179  16.757  1.1676  0.4098 -1.6884
 2321TIP3   OH228453   6.017   1.237   2.404  0.1499  0.1292  0.1243
 2321TIP3    H128454   5.988   1.328   2.405  1.6070  0.6230  0.2962
 2321TIP3    H228455   5.991   1.202   2.490  1.0225  0.8872  0.7195
 2322TIP3   OH228456   4.211   4.971   3.037 -0.4596 -0.4451  0.0859
 2322TIP3    H128457   4.250   4.985   2.950 -0.4545 -0.8337  0.0248
 2322TIP3    H228458   4.224   5.054   3.082 -0.6077 -0.1839 -0.3428
 2323TIP3   OH228459   0.025   6.105  13.533 -0.1708 -0.6251  0.5876
 2323TIP3    H128460   0.117   6.098  13.507 -0.8487 -1.7536 -1.7821
 2323TIP3    H228461  -0.004   6.015  13.544 -1.6659 -0.4772 -1.5294
 2324TIP3   OH228462   4.219   5.466   3.736 -0.3372 -0.4121 -0.5860
 2324TIP3    H128463   4.190   5.376   3.721 -0.6503 -0.3551 -0.3215
 2324TIP3    H228464   4.247   5.468   3.827  1.2610 -0.6712 -1.0377
 2325TIP3   OH228465   6.709   1.720   4.317 -0.2006 -0.3103  0.5054
 2325TIP3    H128466   6.760   1.692   4.392  1.8205 -2.0178 -1.3810
 2325TIP3    H228467   6.664   1.641   4.286 -1.2307  0.4171  0.0600
 2326TIP3   OH228468   5.925   3.443   4.592  0.3317  0.0433 -0.6407
 2326TIP3    H128469   5.844   3.392   4.581 -0.7870  1.1163  1.7672
 2326TIP3    H228470   5.943   3.439   4.686  1.0193  2.7874 -0.5755
 2327TIP3   OH228471   2.553   0.494   3.477 -0.9913 -0.0401 -0.0330
 2327TIP3    H128472   2.486   0.433   3.507  0.2679 -1.3772  0.1621
 2327TIP3    H228473   2.586   0.536   3.556  0.5144 -1.6562  0.2461
 2328TIP3   OH228474   2.258   5.657  12.989 -0.3702  0.0587  0.3983
 2328TIP3    H128475   2.195   5.625  12.924  1.1335 -0.1203 -1.0552
 2328TIP3    H228476   2.212   5.728  13.034 -0.9344  1.3908 -2.0803
 2329TIP3   OH228477   0.043   1.390   5.000 -0.5011 -0.4592  0.0598
 2329TIP3    H128478   0.028   1.391   4.905 -0.2008 -0.3544  0.0148
 2329TIP3    H228479   0.128   1.348   5.011 -0.0696  0.4472  0.2222
 2330TIP3   OH228480   5.735   1.272   2.156  0.6598 -0.2130 -0.4954
 2330TIP3    H128481   5.703   1.338   2.095 -0.0228 -0.4579 -0.4152
 2330TIP3    H228482   5.730   1.313   2.242  0.3089 -0.3433 -0.4540
 2331TIP3   OH228483   0.629   5.307  17.154  0.1816  0.7612  0.0614
 2331TIP3    H128484   0.611   5.380  17.212 -1.2630  0.1925  0.3812
 2331TIP3    H228485   0.575   5.324  17.076 -3.7614 -1.9784  1.8506
 2332TIP3   OH228486   4.493   0.076  14.298  0.2919  0.4303 -0.0448
 2332TIP3    H128487   4.523   0.070  14.389 -2.6000 -2.5941  0.9203
 2332TIP3    H228488   4.424   0.142  14.300  1.4729  1.7390 -0.5580
 2333TIP3   OH228489   1.036   0.696  14.727 -0.2333  0.5752  0.2131
 2333TIP3    H128490   1.082   0.671  14.647 -0.2700  2.1303 -0.3371
 2333TIP3    H228491   1.017   0.613  14.771 -0.9963 -0.4024 -1.8164
 2334TIP3   OH228492   0.533   5.080  15.769 -0.1670 -0.0170 -0.3819
 2334TIP3    H128493   0.622   5.107  15.791 -0.3054  0.9588 -0.9928
 2334TIP3    H228494   0.478   5.122  15.836 -0.3718  1.1908 -1.2782
 2335TIP3   OH228495   2.337   5.309   0.700 -0.4261  0.6931 -0.0075
 2335TIP3    H128496   2.317   5.393   0.742 -1.4027  1.4303 -1.8414
 2335TIP3    H228497   2.251   5.268   0.688 -0.0594 -0.0135 -0.2690
 2336TIP3   OH228498   3.516   1.978   4.801  0.2056  0.1819  0.3377
 2336TIP3    H128499   3.563   2.004   4.879 -0.9736  0.2702  1.0413
 2336TIP3    H228500   3.482   1.891   4.821  0.4946 -0.0990 -0.3541
 2337TIP3   OH228501   6.134   3.339   0.958 -0.0723  0.1601  0.2817
 2337TIP3    H128502   6.179   3.309   0.879  0.7344 -0.3383  0.9153
 2337TIP3    H228503   6.072   3.268   0.978  0.0322  0.0865  0.3441
 2338TIP3   OH228504   0.983   3.410   0.422 -0.3121 -0.4071 -0.6473
 2338TIP3    H128505   0.986   3.332   0.477  0.3757  0.0793  0.0419
 2338TIP3    H228506   1.058   3.462   0.451 -0.4702  0.2822 -1.4325
 2339TIP3   OH228507   4.816   4.135  15.596 -0.1215 -0.6036  0.7023
 2339TIP3    H128508   4.834   4.135  15.502 -0.0631 -0.9264  0.7134
 2339TIP3    H228509   4.891   4.182  15.634 -1.7846  2.6955  0.2955
 2340TIP3   OH228510   2.629   5.954   0.346  0.1244  0.2175 -0.1766
 2340TIP3    H128511   2.704   5.931   0.291  1.5407 -0.0406  1.7858
 2340TIP3    H228512   2.614   6.047   0.329  0.3658  0.0848 -1.1711
 2341TIP3   OH228513   1.101   1.224  16.400  0.2864 -0.0409  0.1172
 2341TIP3    H128514   1.190   1.210  16.434 -0.4974  0.3422  2.5091
 2341TIP3    H228515   1.063   1.136  16.395 -0.3596  0.0380  2.6326
 2342TIP3   OH228516   4.858   3.089   1.739  0.6580 -0.4760  0.0221
 2342TIP3    H128517   4.798   3.152   1.698 -1.8524 -2.9878 -0.5600
 2342TIP3    H228518   4.834   3.089   1.831  0.7783 -0.4380  0.0531
 2343TIP3   OH228519   6.776   0.637  13.742 -0.0408  0.2380 -0.0369
 2343TIP3    H128520   6.790   0.716  13.689 -0.2851 -1.2375 -2.4750
 2343TIP3    H228521   6.859   0.590  13.737 -0.3619 -0.3544  0.1241
 2344TIP3   OH228522   3.068   5.134  15.678  0.2701 -0.2340 -0.6484
 2344TIP3    H128523   3.141   5.129  15.617  0.1811 -1.9378 -0.6523
 2344TIP3    H228524   2.993   5.160  15.624  0.6740  0.6656 -0.7943
 2345TIP3   OH228525   4.284   5.937  15.467  0.2719  0.2106  0.4298
 2345TIP3    H128526   4.306   6.030  15.461  0.3105  0.1757 -0.0076
 2345TIP3    H228527   4.253   5.914  15.379 -0.6829  0.0551  0.7886
 2346TIP3   OH228528   6.709   3.542   0.055 -0.3826 -0.4228 -0.2952
 2346TIP3    H128529   6.619   3.575   0.050 -0.4639  0.2003  3.0975
 2346TIP3    H228530   6.760   3.616   0.087  0.8195 -1.5401  0.4609
 2347TIP3   OH228531   3.725   2.775  15.476 -0.0220  0.0429 -0.0972
 2347TIP3    H128532   3.747   2.717  15.550 -2.6615 -1.5487 -0.4156
 2347TIP3    H228533   3.662   2.837  15.512 -3.7204 -2.5935 -1.4132
 2348TIP3   OH228534   4.154   3.128   2.159 -0.0654  0.5958  0.1349
 2348TIP3    H128535   4.219   3.198   2.161  0.1664  0.4260 -0.7990
 2348TIP3    H228536   4.091   3.154   2.092  1.1241 -0.9884 -1.7112
 2349TIP3   OH228537   4.756   2.645  16.076 -0.1191 -0.0518 -0.0160
 2349TIP3    H128538   4.781   2.555  16.097 -0.6409 -0.4147 -0.9141
 2349TIP3    H228539   4.667   2.638  16.043 -0.4735  0.9069  0.6727
 2350TIP3   OH228540   4.831   4.651   0.113 -0.1930  0.0824  1.1590
 2350TIP3    H128541   4.907   4.627   0.060 -1.0774  1.4909 -0.8991
 2350TIP3    H228542   4.850   4.618   0.201  2.4566 -0.2071  0.5343
 2351TIP3   OH228543   5.590   2.813   1.572  0.3714  0.1818 -0.2738
 2351TIP3    H128544   5.497   2.793   1.563  0.3280  1.0625 -2.6312
 2351TIP3    H228545   5.600   2.899   1.531  2.4849 -0.6911 -1.8142
 2352TIP3   OH228546   0.946   2.684   1.096 -0.1071  0.0114 -0.2266
 2352TIP3    H128547   0.888   2.760   1.093  1.6367  1.3693 -2.6045
 2352TIP3    H228548   1.032   2.718   1.071  1.2045 -2.3777  0.7223
 2353TIP3   OH228549   5.643   5.091  16.371 -0.5922  0.9768 -0.8482
 2353TIP3    H128550   5.626   5.156  16.438 -0.5660  1.1556 -1.0120
 2353TIP3    H228551   5.611   5.008  16.408 -0.8231  1.1198 -0.7261
 2354TIP3   OH228552   1.426   4.012   0.654  0.4194  0.3516 -0.2227
 2354TIP3    H128553   1.345   4.060   0.675  0.5565  0.5051 -0.0369
 2354TIP3    H228554   1.495   4.064   0.696  0.6128  0.2198 -0.3808
 2355TIP3   OH228555   0.716   1.061   1.507 -0.0526 -0.3556 -0.2981
 2355TIP3    H128556   0.637   1.008   1.498  0.1433 -0.7850  0.3908
 2355TIP3    H228557   0.723   1.078   1.601  0.9354 -0.7534 -0.2803
 2356TIP3   OH228558   3.082   0.262   0.481 -0.3938  0.3981  0.2495
 2356TIP3    H128559   3.109   0.309   0.560  0.6919  0.5083 -0.1618
 2356TIP3    H228560   3.050   0.178   0.512  1.5971 -0.2363  0.7319
 2357TIP3   OH228561   2.666   0.067   2.927 -0.6619  0.0648  0.1831
 2357TIP3    H128562   2.743   0.081   2.982 -1.2493 -0.8776  1.2995
 2357TIP3    H228563   2.630   0.154   2.913  0.0651  0.4171  0.4693
 2358TIP3   OH228564   6.053   2.806  12.029  0.2787  0.4462  0.2832
 2358TIP3    H128565   5.980   2.791  11.968  0.1011  0.2191  0.5503
 2358TIP3    H228566   6.074   2.720  12.063 -0.9874  0.8004  2.1132
 2359TIP3   OH228567   3.665   1.182   3.232  0.3903  0.0587 -0.2061
 2359TIP3    H128568   3.735   1.188   3.298  0.4205  0.1564 -0.2474
 2359TIP3    H228569   3.681   1.256   3.174 -0.2062  0.5384  0.2303
 2360TIP3   OH228570   1.630   4.021  12.362 -0.3443 -0.0099 -0.7223
 2360TIP3    H128571   1.574   4.096  12.384  0.3915 -0.0086  1.3716
 2360TIP3    H228572   1.626   3.965  12.439  1.2494 -0.8190 -1.1902
 2361TIP3   OH228573   4.815   1.545   5.573  0.0546 -0.0007  0.2921
 2361TIP3    H128574   4.750   1.478   5.594 -0.6108  0.6892  0.4808
 2361TIP3    H228575   4.793   1.619   5.630  1.9264 -0.2665  1.4578
 2362TIP3   OH228576   4.713   6.087   5.834 -0.3023  0.4503 -0.0363
 2362TIP3    H128577   4.698   6.182   5.833 -2.0236  0.2223  0.8476
 2362TIP3    H228578   4.704   6.063   5.926 -0.8224 -0.7092 -0.3783
 2363TIP3   OH228579   2.337   1.354  12.050 -0.2906 -0.9879 -0.7529
 2363TIP3    H128580   2.292   1.348  12.134  2.3670  0.0127  0.8600
 2363TIP3    H228581   2.393   1.277  12.047  0.4230 -0.4632 -1.1172
 2364TIP3   OH228582   5.321   6.595   5.001 -0.3151  0.6454 -0.1994
 2364TIP3    H128583   5.355   6.562   4.918  1.6567 -0.6133  1.0194
 2364TIP3    H228584   5.371   6.674   5.018  1.7217 -0.8273  1.2506
 2365TIP3   OH228585   3.378   2.141  12.486 -0.0838 -0.0377  0.3639
 2365TIP3    H128586   3.416   2.207  12.543  2.0000  0.1766 -1.1613
 2365TIP3    H228587   3.371   2.063  12.540 -1.3937  1.0321  1.8360
 2366TIP3   OH228588   4.258   3.235   3.538  0.4524  0.0903 -0.1677
 2366TIP3    H128589   4.308   3.208   3.615 -1.1869 -0.5274  0.7326
 2366TIP3    H228590   4.229   3.324   3.557  0.0100 -0.0782 -0.0326
 2367TIP3   OH228591   2.754   2.771   5.584 -0.4117  0.1911  0.2919
 2367TIP3    H128592   2.665   2.756   5.615 -0.4964 -0.3779 -0.2202
 2367TIP3    H228593   2.748   2.852   5.533 -0.6267  0.1620  0.2705
 2368TIP3   OH228594   0.298   3.648  14.626  0.1383 -0.1942  0.0071
 2368TIP3    H128595   0.232   3.642  14.694 -0.8284  1.5727 -0.7139
 2368TIP3    H228596   0.311   3.557  14.597 -0.1751 -0.8484  1.7788
 2369TIP3   OH228597   5.083   4.499  16.279  0.0942 -0.7300  0.5984
 2369TIP3    H128598   5.135   4.467  16.352 -0.2638 -0.4596  0.9812
 2369TIP3    H228599   5.141   4.559  16.233  0.1105 -0.3925  1.0503
 2370TIP3   OH228600   3.404   1.009  15.889 -0.1040  0.0895 -0.1234
 2370TIP3    H128601   3.477   1.021  15.948  0.0093  1.6759 -0.5309
 2370TIP3    H228602   3.355   0.934  15.925  1.4450 -0.7058  0.3907
 2371TIP3   OH228603   3.942   3.324   5.777 -0.2227  0.2846 -0.6300
 2371TIP3    H128604   3.863   3.285   5.816 -0.3909  0.4779 -0.7708
 2371TIP3    H228605   3.982   3.373   5.849  0.9892 -1.6089  0.0452
 2372TIP3   OH228606   4.480   5.478   0.322  0.0692  0.0978  0.3149
 2372TIP3    H128607   4.519   5.493   0.408 -1.4181  0.5086  0.9394
 2372TIP3    H228608   4.494   5.560   0.274 -1.0218  0.6708  0.9453
 2373TIP3   OH228609   3.265   1.290   5.183  0.0390 -0.0941 -0.1211
 2373TIP3    H128610   3.227   1.377   5.194 -1.1162 -0.8951  3.0099
 2373TIP3    H228611   3.348   1.307   5.137  0.4628  2.8090  1.4743
 2374TIP3   OH228612   3.718   6.801   5.456  0.2000  0.4249 -0.0173
 2374TIP3    H128613   3.756   6.875   5.504  0.2846 -0.5654  1.5293
 2374TIP3    H228614   3.624   6.817   5.457  0.2261  0.5677  0.2477
 2375TIP3   OH228615   0.763   4.217  15.053 -0.2310 -0.4387 -0.1167
 2375TIP3    H128616   0.669   4.230  15.041 -0.3881 -0.8674  0.6000
 2375TIP3    H228617   0.776   4.122  15.045  0.1677 -0.3692 -0.3508
 2376TIP3   OH228618   2.546   3.659  17.172  0.3630  0.8122  0.0505
 2376TIP3    H128619   2.507   3.571  17.167  0.1996  0.8596  0.4906
 2376TIP3    H228620   2.474   3.715  17.201  0.5860  1.0157  0.2056
 2377TIP3   OH228621   0.589   3.074  14.037  0.2273  0.1932 -0.1214
 2377TIP3    H128622   0.514   3.131  14.056 -2.6458 -3.3607  0.2880
 2377TIP3    H228623   0.581   3.055  13.944  0.1621 -0.7165  0.0575
 2378TIP3   OH228624   6.342   4.161   2.940 -0.1156 -0.5942  0.1967
 2378TIP3    H128625   6.383   4.076   2.927 -0.3385 -0.7178  0.2859
 2378TIP3    H228626   6.407   4.225   2.912  1.2544 -0.6294  2.9615
 2379TIP3   OH228627   2.190   0.447  11.567  0.5896 -0.1494 -0.1662
 2379TIP3    H128628   2.243   0.368  11.577 -0.3602 -0.7132  0.6095
 2379TIP3    H228629   2.209   0.499  11.645 -0.2890 -0.5483  0.3293
 2380TIP3   OH228630   2.893   1.460   3.044 -0.9685  0.2884  0.4423
 2380TIP3    H128631   2.846   1.515   2.981  1.5988  1.5212 -0.5373
 2380TIP3    H228632   2.871   1.370   3.018 -1.4909  0.8027 -0.9899
 2381TIP3   OH228633   1.024   0.075   2.328  0.4562 -0.2368 -0.0211
 2381TIP3    H128634   1.058   0.019   2.398 -0.9992  0.8156  1.6052
 2381TIP3    H228635   0.946   0.030   2.297 -0.2721  0.4478  0.7502
 2382TIP3   OH228636   0.825   0.723   4.369  0.1207  0.4796 -0.3188
 2382TIP3    H128637   0.904   0.770   4.341 -0.3376 -0.6530 -4.1064
 2382TIP3    H228638   0.856   0.660   4.434  2.4545 -0.1347 -1.8985
 2383TIP3   OH228639   5.154   1.769   2.286 -0.0386  0.3213  0.0526
 2383TIP3    H128640   5.120   1.717   2.214 -0.0163  0.4648 -0.0606
 2383TIP3    H228641   5.106   1.738   2.363  0.9494 -0.8458  0.2267
 2384TIP3   OH228642   4.549   4.362   5.203 -0.0899 -0.6300 -0.2288
 2384TIP3    H128643   4.620   4.321   5.252 -1.6325 -2.4268  0.6763
 2384TIP3    H228644   4.470   4.342   5.254 -1.3099  0.8670 -1.4222
 2385TIP3   OH228645   2.901   6.588   0.767  0.6335 -0.4649  0.0446
 2385TIP3    H128646   2.839   6.537   0.819  0.3557 -0.1571  0.0201
 2385TIP3    H228647   2.861   6.675   0.761  0.0791 -0.7876 -1.6587
 2386TIP3   OH228648   3.433   0.427  13.347  0.3540 -0.9296 -0.7104
 2386TIP3    H128649   3.404   0.373  13.421 -0.9172  0.5744 -0.0404
 2386TIP3    H228650   3.358   0.427  13.287  0.2721  0.1540 -0.6371
 2387TIP3   OH228651   3.556   4.357  16.198 -0.2308  0.8140 -0.6695
 2387TIP3    H128652   3.633   4.368  16.142 -0.0421  0.2381 -0.5305
 2387TIP3    H228653   3.482   4.384  16.144  0.0524  1.1883 -0.8691
 2388TIP3   OH228654   6.722   0.670   2.195 -0.0972 -0.2753 -0.1664
 2388TIP3    H128655   6.812   0.676   2.164 -0.2928 -1.1650 -0.9488
 2388TIP3    H228656   6.706   0.754   2.239  0.7383  0.3460 -1.0143
 2389TIP3   OH228657   2.740   5.065  17.207  0.0954  0.6740  0.5839
 2389TIP3    H128658   2.699   4.999  17.263 -0.0496  0.0539 -0.2437
 2389TIP3    H228659   2.668   5.105  17.159  0.4165 -0.4406 -0.8992
 2390TIP3   OH228660   6.354   4.238   5.131  0.1244  0.7044 -0.6537
 2390TIP3    H128661   6.388   4.194   5.209  0.7608 -0.2683 -1.4532
 2390TIP3    H228662   6.270   4.274   5.158  0.0527 -0.1439  0.3106
 2391TIP3   OH228663   3.148   6.411  13.808  0.4121 -0.3575  0.2032
 2391TIP3    H128664   3.062   6.443  13.836 -0.1759  0.3909 -2.1719
 2391TIP3    H228665   3.208   6.441  13.876 -1.0107  0.4126  1.1766
 2392TIP3   OH228666   6.459   5.348  13.701 -0.4818 -0.2497  0.5032
 2392TIP3    H128667   6.449   5.441  13.721  2.7297  0.1886  0.6276
 2392TIP3    H228668   6.370   5.313  13.703 -1.6067  2.3568  2.6864
 2393TIP3   OH228669   5.356   6.414  15.503  0.0643 -0.5016  0.1338
 2393TIP3    H128670   5.395   6.328  15.522  0.5877 -0.2335  0.3033
 2393TIP3    H228671   5.307   6.436  15.582  0.4927 -0.3415  0.3576
 2394TIP3   OH228672   4.082   0.901   0.324 -0.2364 -0.1500 -0.1482
 2394TIP3    H128673   4.137   0.823   0.324  0.8543  0.5991  0.5852
 2394TIP3    H228674   4.101   0.944   0.240 -1.8550 -1.3335 -1.1746
 2395TIP3   OH228675   4.406   3.008   1.189  0.1709 -0.1514 -0.4204
 2395TIP3    H128676   4.478   2.946   1.201  1.1645  0.9814 -0.3369
 2395TIP3    H228677   4.388   3.006   1.095  1.8348  1.1514 -0.8136
 2396TIP3   OH228678   5.686   6.766   2.044 -0.9981 -0.2212 -0.5671
 2396TIP3    H128679   5.668   6.802   1.956 -0.8615  0.0990 -0.4653
 2396TIP3    H228680   5.626   6.692   2.051 -0.0999 -1.0624 -1.4389
 2397TIP3   OH228681   5.142   5.926   4.948 -0.1713  0.4500 -0.0786
 2397TIP3    H128682   5.221   5.938   4.896 -0.0430  0.1231  0.0399
 2397TIP3    H228683   5.159   5.975   5.029 -0.3671  0.9485 -0.3385
 2398TIP3   OH228684   3.958   3.218   4.337  0.5958  0.0245 -0.0079
 2398TIP3    H128685   4.014   3.295   4.325  1.6512 -0.7351  0.0187
 2398TIP3    H228686   3.997   3.171   4.410 -0.2819 -0.3451  0.2309
 2399TIP3   OH228687   1.039   4.070   1.622 -0.3739 -0.5406 -0.1366
 2399TIP3    H128688   1.076   3.983   1.635  1.6857  0.4429  0.9364
 2399TIP3    H228689   1.110   4.122   1.585 -2.1302  0.2599 -2.7211
 2400TIP3   OH228690   5.229   1.880  12.397  0.4571  0.5809  0.3373
 2400TIP3    H128691   5.205   1.832  12.318  1.4669  0.5263  0.0537
 2400TIP3    H228692   5.145   1.905  12.436 -0.1068 -1.4081  0.5104
 2401TIP3   OH228693   1.011   2.798   2.984 -0.5091 -0.1206 -0.2151
 2401TIP3    H128694   1.024   2.841   3.068 -1.6391 -0.6772  0.2606
 2401TIP3    H228695   0.916   2.797   2.971 -0.3068  1.6919 -2.4337
 2402TIP3   OH228696   5.009   6.596   4.258 -0.5844  0.5852 -0.1170
 2402TIP3    H128697   4.961   6.679   4.261  0.1452  0.9923  0.5981
 2402TIP3    H228698   5.000   6.559   4.346 -0.0804  0.3796 -0.1490
 2403TIP3   OH228699   6.340   3.717   2.279  0.1972 -0.5192  0.0989
 2403TIP3    H128700   6.286   3.752   2.349  2.5342 -1.7995  2.7224
 2403TIP3    H228701   6.372   3.794   2.233 -1.9974  0.3186 -0.1204
 2404TIP3   OH228702   0.827   0.504  13.306 -0.4603  0.2316 -0.4403
 2404TIP3    H128703   0.741   0.502  13.263 -0.4585 -1.0728 -0.4356
 2404TIP3    H228704   0.816   0.448  13.383  0.0574  1.0626  0.2588
 2405TIP3   OH228705   6.760   0.670  15.829  1.0327 -0.2417  0.3109
 2405TIP3    H128706   6.804   0.623  15.759  1.2395 -1.5473  1.2737
 2405TIP3    H228707   6.735   0.602  15.892  1.1305  0.9104  1.6500
 2406TIP3   OH228708   5.838   4.784  13.650 -0.2801  0.3201 -0.3665
 2406TIP3    H128709   5.855   4.769  13.557  0.3745  1.3134 -0.4153
 2406TIP3    H228710   5.899   4.725  13.695 -0.9639 -0.5458 -0.5590
 2407TIP3   OH228711   0.661   2.945   1.135  0.3251 -0.6278 -0.1142
 2407TIP3    H128712   0.682   2.924   1.226  0.7821 -0.2027 -0.1147
 2407TIP3    H228713   0.571   2.915   1.123  0.0597 -0.1568  0.6514
 2408TIP3   OH228714   2.379   4.143   3.885  0.0785  0.0453  0.0045
 2408TIP3    H128715   2.391   4.050   3.901 -0.4063 -0.3425 -1.7279
 2408TIP3    H228716   2.440   4.186   3.945  0.2595 -1.3658  0.8705
 2409TIP3   OH228717   5.182   1.148   2.682 -0.0863 -0.5209  0.3012
 2409TIP3    H128718   5.095   1.130   2.646 -0.0262 -0.0235 -0.1156
 2409TIP3    H228719   5.229   1.065   2.676 -0.4503 -0.7274  0.2898
 2410TIP3   OH228720   4.034   4.212   5.585  0.2355 -0.3031  0.0490
 2410TIP3    H128721   4.021   4.118   5.579 -2.2717 -0.0152 -0.2695
 2410TIP3    H228722   4.025   4.244   5.495  1.6615  0.2252  0.0596
 2411TIP3   OH228723   6.712   2.121  15.863 -0.0447 -0.3095  0.1319
 2411TIP3    H128724   6.725   2.056  15.932  0.2270  0.4335  0.8006
 2411TIP3    H228725   6.700   2.204  15.910  0.2871  0.2379 -0.7213
 2412TIP3   OH228726   2.569   6.088   2.024 -0.1878  0.0026  0.4308
 2412TIP3    H128727   2.482   6.108   1.989  0.1113 -1.3756 -1.2459
 2412TIP3    H228728   2.552   6.035   2.102 -0.9375 -2.2480 -1.1393
 2413TIP3   OH228729   1.346   4.404  12.888  0.1416  0.2170 -0.3857
 2413TIP3    H128730   1.269   4.447  12.851  0.9424  2.4078  0.3171
 2413TIP3    H228731   1.405   4.392  12.813  0.0539  0.7359 -0.5455
 2414TIP3   OH228732   2.599   3.352   2.249 -0.0700 -0.1665  0.3192
 2414TIP3    H128733   2.511   3.318   2.235  0.8602 -2.1569 -1.1237
 2414TIP3    H228734   2.587   3.423   2.312 -2.8258  0.3961 -0.7131
 2415TIP3   OH228735   4.100   3.257  12.550  0.1917 -0.4900 -0.1275
 2415TIP3    H128736   4.098   3.268  12.645 -0.3328  4.2269 -0.4343
 2415TIP3    H228737   4.010   3.237  12.525  0.0837 -0.5233  0.2878
 2416TIP3   OH228738   0.787   5.580   1.134  0.0905  0.2329  0.1119
 2416TIP3    H128739   0.763   5.495   1.096 -0.1687  0.1112  0.5450
 2416TIP3    H228740   0.851   5.615   1.073  0.6337 -0.5330  0.2208
 2417TIP3   OH228741   0.377   4.534   4.430  0.6208  0.0837  0.0605
 2417TIP3    H128742   0.408   4.619   4.461 -1.5761  0.7901  0.4798
 2417TIP3    H228743   0.296   4.553   4.383 -1.0814 -1.9373  1.9488
 2418TIP3   OH228744   2.710   6.573   3.139 -0.0014  0.0629 -0.0348
 2418TIP3    H128745   2.631   6.569   3.193 -0.4506 -1.3846 -0.7478
 2418TIP3    H228746   2.735   6.481   3.126  2.0500  0.4930  0.5127
 2419TIP3   OH228747   6.260   0.028  14.494 -0.1947 -0.7278  0.5187
 2419TIP3    H128748   6.258   0.043  14.588 -0.4043 -1.2250  0.5940
 2419TIP3    H228749   6.199   0.093  14.458  0.7170  0.2076  0.6140
 2420TIP3   OH228750   6.218   1.745   5.571  0.1588  0.4981 -0.2813
 2420TIP3    H128751   6.149   1.770   5.509 -0.8520  1.1149  1.0422
 2420TIP3    H228752   6.242   1.827   5.614  0.1549 -0.0689  0.8212
 2421TIP3   OH228753   4.130   0.099  11.018  0.1792 -0.3763  0.1938
 2421TIP3    H128754   4.195   0.119  11.085  0.7584 -1.1166 -0.1421
 2421TIP3    H228755   4.053   0.069  11.068 -0.2811  1.4129  0.6476
 2422TIP3   OH228756   1.565   0.665  14.625 -0.1495 -0.1526 -0.6728
 2422TIP3    H128757   1.547   0.757  14.610 -2.8762 -0.4384  0.2358
 2422TIP3    H228758   1.560   0.654  14.720 -0.0001 -1.2296 -0.7696
 2423TIP3   OH228759   1.409   4.422   2.819 -0.0111  0.3156 -0.6808
 2423TIP3    H128760   1.384   4.427   2.911 -2.1380  3.4635 -1.2553
 2423TIP3    H228761   1.505   4.414   2.820 -0.1241 -1.7597  1.7072
 2424TIP3   OH228762   1.169   5.836   0.745  0.3244  0.0987 -0.0726
 2424TIP3    H128763   1.132   5.896   0.679  3.4412  1.4343 -0.8063
 2424TIP3    H228764   1.147   5.877   0.829 -1.4632 -0.2304 -0.3361
 2425TIP3   OH228765   6.720   1.355   2.994  0.2823 -0.1190 -0.0335
 2425TIP3    H128766   6.650   1.345   2.929 -0.0026  0.8990  0.0916
 2425TIP3    H228767   6.772   1.429   2.963  0.3216  0.1931  0.7347
 2426TIP3   OH228768   5.950   2.145   4.673 -0.1337 -0.0664 -0.4768
 2426TIP3    H128769   5.859   2.122   4.657  0.6465 -2.7674 -1.5727
 2426TIP3    H228770   5.983   2.174   4.587  0.2368  0.1564 -0.2641
 2427TIP3   OH228771   5.176   1.525   1.857  0.1410 -0.1749 -0.6839
 2427TIP3    H128772   5.204   1.586   1.789  1.7346 -1.1335 -0.9384
 2427TIP3    H228773   5.186   1.438   1.817 -0.5771 -0.6876  0.2040
 2428TIP3   OH228774   4.658   6.746  15.573 -0.4305 -0.5067  0.4309
 2428TIP3    H128775   4.714   6.781  15.504 -0.5402 -0.0680  0.5591
 2428TIP3    H228776   4.588   6.701  15.526 -1.5117  1.3283  0.1760
 2429TIP3   OH228777   4.876   3.972  14.564  0.4109  0.2713 -0.0276
 2429TIP3    H128778   4.945   4.020  14.520 -0.0006  0.8560 -0.0453
 2429TIP3    H228779   4.889   3.881  14.536  1.4582  0.2904  0.3658
 2430TIP3   OH228780   5.453   2.408  11.516 -0.3201 -0.0110 -0.3839
 2430TIP3    H128781   5.463   2.503  11.507  0.9020 -0.2745 -2.1882
 2430TIP3    H228782   5.369   2.398  11.561 -0.4328  1.9185 -0.0521
 2431TIP3   OH228783   2.619   6.563  15.258 -0.1829 -0.2431 -0.1837
 2431TIP3    H128784   2.531   6.582  15.227 -1.1245  1.2915  2.9608
 2431TIP3    H228785   2.666   6.645  15.248  0.0592 -0.2796  0.5750
 2432TIP3   OH228786   3.564   4.398  11.785  1.2996 -0.2209 -0.5596
 2432TIP3    H128787   3.631   4.362  11.726 -0.0199 -2.0636 -1.0304
 2432TIP3    H228788   3.551   4.329  11.851 -0.2780 -0.0194 -0.6203
 2433TIP3   OH228789   2.351   3.843   1.342  0.2446 -0.1926 -0.1087
 2433TIP3    H128790   2.383   3.763   1.385  0.9353 -0.1874 -0.6050
 2433TIP3    H228791   2.264   3.819   1.309 -0.4397 -0.1108  1.5313
 2434TIP3   OH228792   3.110   5.706   5.322  0.5407  0.0330 -0.5486
 2434TIP3    H128793   3.015   5.705   5.306  0.4870 -1.6236 -0.2948
 2434TIP3    H228794   3.125   5.788   5.370 -1.1796 -0.8747  1.7305
 2435TIP3   OH228795   2.777   4.583  10.721  0.4753 -0.4517 -0.6122
 2435TIP3    H128796   2.870   4.573  10.743  0.6098  1.6290  0.0566
 2435TIP3    H228797   2.773   4.666  10.672 -0.9756 -0.7064 -0.9737
 2436TIP3   OH228798   3.344   3.941   4.191  0.1030 -0.3636 -0.4001
 2436TIP3    H128799   3.268   3.958   4.246  2.5851  0.1645  3.2167
 2436TIP3    H228800   3.348   3.846   4.183  1.0213 -0.6973  2.7202
 2437TIP3   OH228801   3.310   0.605   6.183 -0.2899  0.0399 -0.2544
 2437TIP3    H128802   3.392   0.568   6.151  0.0665  1.0293 -0.5358
 2437TIP3    H228803   3.242   0.560   6.134  0.1127 -0.3954 -0.4195
 2438TIP3   OH228804   1.411   1.413   4.247  0.1550 -0.3735  0.5282
 2438TIP3    H128805   1.330   1.446   4.286  0.4552 -0.5682  1.3224
 2438TIP3    H228806   1.451   1.491   4.208 -0.0547 -0.1414  0.7662
 2439TIP3   OH228807   1.001   5.516   6.359 -0.0999 -0.1618 -0.4427
 2439TIP3    H128808   0.941   5.455   6.403  1.5308  0.5399  3.1187
 2439TIP3    H228809   0.950   5.596   6.347 -0.3720 -0.0892  1.0646
 2440TIP3   OH228810   6.627   3.289   2.203 -0.0923  0.3167  0.1545
 2440TIP3    H128811   6.548   3.293   2.257 -1.6746 -0.8268 -1.9540
 2440TIP3    H228812   6.654   3.198   2.208  0.1187  0.3434 -0.4666
 2441TIP3   OH228813   6.428   3.632  11.804 -0.1514 -0.3169 -0.6494
 2441TIP3    H128814   6.457   3.593  11.887 -0.2981 -0.0525 -0.4731
 2441TIP3    H228815   6.342   3.592  11.787 -1.4404  1.6512  0.7577
 2442TIP3   OH228816   5.919   2.140  14.806  0.6638  0.1784  0.1819
 2442TIP3    H128817   5.876   2.195  14.741  0.8539 -2.0219 -1.9687
 2442TIP3    H228818   5.848   2.110  14.863  0.4879  2.1036  1.0343
 2443TIP3   OH228819   5.195   6.312  14.137  0.3612  0.2675  0.2396
 2443TIP3    H128820   5.101   6.301  14.124  0.3556 -1.6128  1.4717
 2443TIP3    H228821   5.213   6.401  14.107 -1.5443  0.1985 -1.3407
 2444TIP3   OH228822   1.716   2.130  15.378  0.0620  0.2351  0.5171
 2444TIP3    H128823   1.754   2.111  15.463  0.6921 -0.4462  0.0899
 2444TIP3    H228824   1.766   2.205  15.345 -0.9680  1.2829  1.2417
 2445TIP3   OH228825   2.349   4.559  13.829 -0.4237  0.2498 -0.3497
 2445TIP3    H128826   2.417   4.618  13.863 -0.6662  0.2963  0.0640
 2445TIP3    H228827   2.397   4.491  13.783 -0.0193 -0.4136  1.0054
 2446TIP3   OH228828   3.055   6.107   1.002  0.1127 -0.4487 -0.0464
 2446TIP3    H128829   3.118   6.067   1.062  1.2421  1.6456  0.2873
 2446TIP3    H228830   2.970   6.096   1.045  0.3250 -2.6369 -0.1193
 2447TIP3   OH228831   1.651   2.491  11.676 -0.0353  0.0324  0.0681
 2447TIP3    H128832   1.562   2.484  11.640  0.2325  0.6461 -0.7347
 2447TIP3    H228833   1.639   2.533  11.761 -0.3360  2.1302 -0.9489
 2448TIP3   OH228834   4.991   0.453   1.091  0.0147 -0.1650  0.8421
 2448TIP3    H128835   5.002   0.508   1.169  1.1430  1.0497 -0.1254
 2448TIP3    H228836   5.075   0.407   1.082  0.7190  1.3246 -0.8119
 2449TIP3   OH228837   3.317   4.670   2.675  0.0184 -0.1999  0.0059
 2449TIP3    H128838   3.365   4.753   2.673  0.1079 -0.2565 -0.3427
 2449TIP3    H228839   3.325   4.639   2.765  0.6904 -0.2408 -0.0661
 2450TIP3   OH228840   1.695   4.567   5.579 -0.5034 -0.4225 -0.3382
 2450TIP3    H128841   1.685   4.500   5.511 -0.0586  0.5564 -1.4127
 2450TIP3    H228842   1.611   4.613   5.580  0.3629  1.3570 -2.2608
 2451TIP3   OH228843   2.603   5.947  13.722 -0.0492  0.5768 -0.4923
 2451TIP3    H128844   2.696   5.969  13.720 -0.1356  1.1404  0.7217
 2451TIP3    H228845   2.598   5.870  13.779 -0.4587  1.2932  0.4452
 2452TIP3   OH228846   6.638   6.190   5.104 -0.0340 -0.3896 -0.3674
 2452TIP3    H128847   6.646   6.144   5.187 -0.7023 -0.0905 -0.1249
 2452TIP3    H228848   6.655   6.123   5.038  0.2390 -0.6902  0.0010
 2453TIP3   OH228849   1.313   4.183  15.271 -0.1949  0.0795  0.4818
 2453TIP3    H128850   1.258   4.195  15.193 -0.2525  2.9163  0.8296
 2453TIP3    H228851   1.254   4.199  15.345  0.7226  1.9330  0.8932
 2454TIP3   OH228852   3.319   5.733  11.058 -0.1787 -0.0277 -0.6553
 2454TIP3    H128853   3.295   5.724  10.966  2.8558 -0.8279 -1.4904
 2454TIP3    H228854   3.292   5.650  11.098 -2.3348  0.6747 -0.5448
 2455TIP3   OH228855   5.173   2.108  13.784  0.4207  1.1093 -0.1123
 2455TIP3    H128856   5.219   2.037  13.739  1.7392  1.8653  0.0054
 2455TIP3    H228857   5.198   2.097  13.876 -1.4593  0.1800  0.3496
 2456TIP3   OH228858   4.344   2.844   5.500 -0.2365 -0.4134  0.6762
 2456TIP3    H128859   4.395   2.844   5.581  0.4092  3.3815  0.4553
 2456TIP3    H228860   4.261   2.802   5.524  0.7026 -1.2355  2.7002
 2457TIP3   OH228861   2.954   1.253   1.642 -0.1398  0.8098  0.8690
 2457TIP3    H128862   2.896   1.205   1.702  0.0078 -0.1154  0.2712
 2457TIP3    H228863   3.042   1.225   1.666 -0.0864  0.3654  0.1585
 2458TIP3   OH228864   2.267   1.499  16.837 -0.5133 -0.3553 -0.4641
 2458TIP3    H128865   2.297   1.470  16.751 -1.1290 -0.7123 -0.5663
 2458TIP3    H228866   2.260   1.594  16.830  0.3721 -0.2852 -0.5000
 2459TIP3   OH228867   2.190   1.276  13.262  0.0182 -0.0071 -0.2429
 2459TIP3    H128868   2.114   1.244  13.214 -0.1666  0.3153 -0.1711
 2459TIP3    H228869   2.221   1.201  13.312  1.0696 -0.7477 -1.9450
 2460TIP3   OH228870   6.069   1.821  12.599 -0.4592 -0.6536  0.0684
 2460TIP3    H128871   6.074   1.857  12.511  0.6587 -0.1857  0.3121
 2460TIP3    H228872   6.160   1.813  12.628 -0.7496 -2.0638  0.6748
 2461TIP3   OH228873   6.057   1.169   2.695  0.4951  0.3272 -0.1823
 2461TIP3    H128874   6.119   1.118   2.747  1.7130 -0.0515 -1.9126
 2461TIP3    H228875   6.100   1.253   2.682  0.3171  0.3401 -0.7249
 2462TIP3   OH228876   2.785   5.957  14.357 -0.5633 -0.2538  0.1909
 2462TIP3    H128877   2.877   5.982  14.355 -0.1784 -1.5555  0.4771
 2462TIP3    H228878   2.737   6.039  14.348  0.6226  0.4645  0.2686
 2463TIP3   OH228879   0.244   5.115   2.807  0.1683 -0.8933  0.4994
 2463TIP3    H128880   0.210   5.090   2.893 -1.3057 -0.0438  0.1907
 2463TIP3    H228881   0.334   5.143   2.825  0.1046 -1.3614  1.6482
 2464TIP3   OH228882   0.189   0.641   5.701  0.0932 -0.3078  0.0676
 2464TIP3    H128883   0.240   0.646   5.783 -0.4641 -0.5379  0.4319
 2464TIP3    H228884   0.101   0.616   5.729  0.0265 -0.9124 -0.6552
 2465TIP3   OH228885   1.711   5.859  14.690 -0.3080 -0.3150  0.3098
 2465TIP3    H128886   1.693   5.776  14.648 -0.7574  0.2978 -0.7523
 2465TIP3    H228887   1.804   5.874  14.677 -0.6157  0.3355 -1.3949
 2466TIP3   OH228888   3.929   5.345  12.014 -0.2333 -0.4553  0.3604
 2466TIP3    H128889   3.844   5.368  11.977 -0.2680  0.6973  1.0994
 2466TIP3    H228890   3.993   5.373  11.949 -0.3869 -0.7598  0.0750
 2467TIP3   OH228891   4.834   0.752   6.433 -0.4032 -0.4033  0.1006
 2467TIP3    H128892   4.912   0.750   6.488 -0.4951 -0.2489  0.2365
 2467TIP3    H228893   4.864   0.791   6.351 -0.4499  0.1462  0.3363
 2468TIP3   OH228894   0.516   5.914   4.936 -0.3733  0.2841 -0.3058
 2468TIP3    H128895   0.590   5.897   4.995  0.1316  0.0423 -0.9952
 2468TIP3    H228896   0.443   5.934   4.994  0.5190  1.6992  0.3830
 2469TIP3   OH228897   0.924   6.800  17.131 -0.1216 -0.6139  0.4671
 2469TIP3    H128898   0.945   6.719  17.178 -0.2007 -0.2288  1.1734
 2469TIP3    H228899   0.948   6.781  17.040  1.3624 -0.8875  0.8887
 2470TIP3   OH228900   2.099   6.414  15.784 -0.1684  0.2379 -0.1876
 2470TIP3    H128901   2.164   6.461  15.836  0.9606 -0.9966 -0.4155
 2470TIP3    H228902   2.039   6.375  15.848  0.0132  0.4073  0.0834
 2471TIP3   OH228903   1.946   6.239   6.070  1.0736 -0.2401  0.1040
 2471TIP3    H128904   1.883   6.227   6.142  0.6874  1.4762  0.0983
 2471TIP3    H228905   1.995   6.317   6.095  1.4000 -0.0200 -1.1766
 2472TIP3   OH228906   1.777   0.423   5.543 -0.0753  0.0304 -0.0492
 2472TIP3    H128907   1.852   0.466   5.585  0.1059  1.4434 -1.6938
 2472TIP3    H228908   1.709   0.422   5.611  0.9078  0.2044  0.9650
 2473TIP3   OH228909   1.401   5.326   3.964 -0.1120 -0.1529 -0.2390
 2473TIP3    H128910   1.385   5.327   4.059 -1.7214 -1.4092 -0.4402
 2473TIP3    H228911   1.370   5.240   3.936 -1.2553  0.8129 -2.1486
 2474TIP3   OH228912   2.975   0.054  16.766  0.4018 -0.0284 -0.4468
 2474TIP3    H128913   2.982  -0.041  16.766 -0.9131 -0.3272 -4.9009
 2474TIP3    H228914   3.012   0.081  16.682 -0.6134  3.2554  0.0104
 2475TIP3   OH228915   5.795   0.802   2.704  0.2917 -0.3273  0.3975
 2475TIP3    H128916   5.844   0.884   2.693 -1.6835  0.6649 -1.7526
 2475TIP3    H228917   5.710   0.829   2.738 -0.6762 -1.3388 -1.0870
 2476TIP3   OH228918   6.594   1.592   3.713  0.0629 -0.2752  0.4438
 2476TIP3    H128919   6.502   1.566   3.723 -0.3648  1.7684  2.7634
 2476TIP3    H228920   6.643   1.524   3.760 -0.6911  0.8360  2.9900
 2477TIP3   OH228921   3.886   5.555  12.985 -0.0888  0.3191  0.0592
 2477TIP3    H128922   3.955   5.496  13.014 -0.7088 -1.7362 -2.2552
 2477TIP3    H228923   3.807   5.522  13.028 -0.3053 -0.1385 -0.6553
 2478TIP3   OH228924   3.751   1.671   5.346  0.0040 -0.0717  0.3549
 2478TIP3    H128925   3.706   1.587   5.352 -0.4017  0.0801 -0.4758
 2478TIP3    H228926   3.843   1.647   5.333 -0.4495 -0.4847 -2.9709
 2479TIP3   OH228927   4.865   5.746  14.538 -0.7342 -0.0186 -0.2319
 2479TIP3    H128928   4.845   5.687  14.466 -0.0017 -0.1967 -0.2920
 2479TIP3    H228929   4.812   5.824  14.520 -0.6341 -0.1016 -0.9012
 2480TIP3   OH228930   2.832   2.993   1.013 -0.1607  0.0332 -0.3355
 2480TIP3    H128931   2.839   3.055   1.085 -2.8211 -0.4321  0.4106
 2480TIP3    H228932   2.761   2.934   1.038 -0.2791 -0.9653 -2.7491
 2481TIP3   OH228933   4.084   2.434   6.104 -0.3821 -0.0134  0.3701
 2481TIP3    H128934   4.179   2.447   6.109 -0.5287  1.2225  0.3261
 2481TIP3    H228935   4.060   2.398   6.189 -0.0851  1.2690  1.0244
 2482TIP3   OH228936   2.796   5.301  16.272  0.0598 -0.3677 -0.0179
 2482TIP3    H128937   2.840   5.379  16.237 -0.0267 -0.7220 -0.9465
 2482TIP3    H228938   2.718   5.291  16.217  0.5714 -1.6638 -0.5486
 2483TIP3   OH228939   5.242   0.720   5.272 -0.6085 -0.0744  0.8635
 2483TIP3    H128940   5.268   0.751   5.185 -0.9017 -0.1563  0.7479
 2483TIP3    H228941   5.220   0.628   5.259  2.2414 -0.9716  1.5724
 2484TIP3   OH228942   0.902   0.176  14.969 -0.0498  0.0829 -0.0163
 2484TIP3    H128943   0.822   0.204  14.924 -0.7611 -2.3837 -0.4561
 2484TIP3    H228944   0.870   0.130  15.046  0.8834 -1.4561 -0.5136
 2485TIP3   OH228945   0.081   6.032  14.775  0.0324 -0.1904 -0.3194
 2485TIP3    H128946   0.041   5.999  14.695  1.0922  1.1670 -1.4814
 2485TIP3    H228947   0.175   6.036  14.755  0.2509  0.7699  0.7494
 2486TIP3   OH228948   3.345   6.377   5.796  0.5578 -0.3150 -0.0352
 2486TIP3    H128949   3.383   6.357   5.882  0.3101 -2.7783 -0.4112
 2486TIP3    H228950   3.403   6.333   5.734  0.5625  1.1796 -1.1487
 2487TIP3   OH228951   4.709   0.360   4.976  0.2848 -0.2238  0.2715
 2487TIP3    H128952   4.692   0.269   4.952 -0.5843  0.0856 -0.3166
 2487TIP3    H228953   4.782   0.355   5.038  0.0733 -1.3417  0.4511
 2488TIP3   OH228954   1.279   1.812   2.195 -0.4395  0.1739  0.5448
 2488TIP3    H128955   1.235   1.884   2.150  0.1142  1.2785  1.7018
 2488TIP3    H228956   1.372   1.832   2.188 -0.1786 -1.1728 -0.2924
 2489TIP3   OH228957   6.666   1.924  15.635 -0.3805 -0.2033 -0.1298
 2489TIP3    H128958   6.755   1.906  15.606 -0.2730 -1.9319  1.1592
 2489TIP3    H228959   6.676   1.975  15.715 -0.6439  1.8654 -1.3326
 2490TIP3   OH228960   6.568   5.660   5.269  0.4487 -0.3622 -0.7012
 2490TIP3    H128961   6.644   5.715   5.248  0.8142  0.4269  2.2952
 2490TIP3    H228962   6.525   5.705   5.342 -0.3770 -3.0431  0.5848
 2491TIP3   OH228963   4.015   0.362   1.901 -0.1078 -0.6233 -0.2213
 2491TIP3    H128964   4.043   0.344   1.811  1.8549 -1.8611  0.5659
 2491TIP3    H228965   3.971   0.447   1.896 -2.6224 -1.9302 -2.8089
 2492TIP3   OH228966   3.943   6.237   3.355 -0.0075 -0.1286 -0.1900
 2492TIP3    H128967   3.960   6.176   3.427 -1.1486 -1.6177 -1.1200
 2492TIP3    H228968   3.870   6.291   3.386  0.1685 -0.0838  0.1496
 2493TIP3   OH228969   3.686   0.872  10.697 -0.3180  0.2105 -0.2462
 2493TIP3    H128970   3.776   0.896  10.718 -0.8344  2.2565 -0.1428
 2493TIP3    H228971   3.634   0.908  10.769 -1.3372  0.1652 -0.9288
 2494TIP3   OH228972   3.550   0.049   1.973 -0.5857  0.0487  0.4108
 2494TIP3    H128973   3.573   0.127   2.024  0.2852  0.2062 -0.2017
 2494TIP3    H228974   3.585  -0.024   2.024 -2.0087 -0.0244  1.3379
 2495TIP3   OH228975   4.745   1.950  13.796 -0.4669 -0.0447 -0.2975
 2495TIP3    H128976   4.668   1.903  13.828  1.0385 -2.5882 -0.1249
 2495TIP3    H228977   4.767   1.906  13.713  0.4793  1.0024 -0.6288
 2496TIP3   OH228978   4.422   4.954   2.505  0.2566  0.3452  0.9171
 2496TIP3    H128979   4.330   4.938   2.526 -0.0851 -0.0991 -0.7516
 2496TIP3    H228980   4.448   4.878   2.452  1.4199  0.7290  0.9142
 2497TIP3   OH228981   2.595   6.638   2.377  0.1619 -0.6079 -0.5844
 2497TIP3    H128982   2.505   6.608   2.365 -0.0105 -0.3980  0.0946
 2497TIP3    H228983   2.618   6.607   2.465 -0.1888  1.5981  0.3616
 2498TIP3   OH228984   5.349   5.880   3.220  0.2447  0.8118  0.0891
 2498TIP3    H128985   5.374   5.900   3.130  1.2310 -0.5930  0.0203
 2498TIP3    H228986   5.264   5.922   3.232 -0.4194  0.0984 -1.8455
 2499TIP3   OH228987   0.050   5.426  11.831  0.3462  0.0048  0.2356
 2499TIP3    H128988  -0.010   5.371  11.780  1.6843 -0.4727 -0.8658
 2499TIP3    H228989  -0.008   5.480  11.885 -1.0954 -0.1319 -1.0947
 2500TIP3   OH228990   2.642   0.875   4.409  0.0979  0.6076  0.0414
 2500TIP3    H128991   2.624   0.909   4.497  0.4060 -2.3677  1.3762
 2500TIP3    H228992   2.562   0.828   4.385 -0.5755  2.6142 -2.0352
 2501TIP3   OH228993   2.477   1.655   0.162  0.3936 -0.2369  0.3625
 2501TIP3    H128994   2.499   1.748   0.169 -0.3386 -0.1274  1.4025
 2501TIP3    H228995   2.559   1.614   0.135  1.1535  0.5186  1.4087
 2502TIP3   OH228996   1.829   3.362  16.361 -0.0440  0.6425  0.3651
 2502TIP3    H128997   1.821   3.412  16.443 -0.1049  1.1835  0.0374
 2502TIP3    H228998   1.922   3.363  16.341 -0.0283  0.5036  0.4345
 2503TIP3   OH228999   0.454   2.796  14.929 -0.2341 -0.4293  0.3374
 2503TIP3    H129000   0.507   2.858  14.879  0.9781 -2.0857 -0.5208
 2503TIP3    H229001   0.478   2.810  15.020 -0.2780  0.6086  0.1983
 2504TIP3   OH229002   3.403   0.295   4.862 -0.8771  0.2413 -0.2914
 2504TIP3    H129003   3.397   0.210   4.818 -2.3370 -0.5690  1.3665
 2504TIP3    H229004   3.313   0.321   4.877 -0.4308  1.4400  0.4391
 2505TIP3   OH229005   5.723   3.343   5.930 -0.3131  0.3367  0.1495
 2505TIP3    H129006   5.746   3.300   6.012  0.6349 -2.1951 -1.3433
 2505TIP3    H229007   5.645   3.395   5.951 -0.2805 -0.4770  2.5541
 2506TIP3   OH229008   1.669   0.712   5.489  0.2119  0.2634  0.3919
 2506TIP3    H129009   1.707   0.690   5.404  0.8403 -0.3164  0.8090
 2506TIP3    H229010   1.664   0.629   5.535 -1.4344  0.3515  0.4249
 2507TIP3   OH229011   4.683   5.475  12.354  0.3119 -0.0142  0.5616
 2507TIP3    H129012   4.724   5.534  12.417 -1.4561  0.3746  1.4260
 2507TIP3    H229013   4.605   5.442  12.400 -0.8040 -0.0431 -1.2518
 2508TIP3   OH229014   1.446   4.191   2.090 -0.0069  0.1824 -0.2609
 2508TIP3    H129015   1.476   4.108   2.127  0.4940 -0.2442 -1.5648
 2508TIP3    H229016   1.461   4.256   2.159  0.5353 -0.6472  0.4110
 2509TIP3   OH229017   0.792   4.100   0.554  0.5017  0.2335  0.0051
 2509TIP3    H129018   0.743   4.018   0.544  0.5275  0.0029  1.5780
 2509TIP3    H229019   0.883   4.076   0.542  0.4497  0.1854 -0.3066
 2510TIP3   OH229020   6.455   6.112   0.603  0.2265  0.3878  0.0851
 2510TIP3    H129021   6.467   6.206   0.614 -0.6594  0.6219 -0.8087
 2510TIP3    H229022   6.539   6.074   0.629  0.1110  1.2787  2.0009
 2511TIP3   OH229023   2.674   0.712  12.443 -0.2811 -0.3953 -0.2597
 2511TIP3    H129024   2.763   0.681  12.426 -0.4546 -0.7596 -0.5061
 2511TIP3    H229025   2.627   0.635  12.474 -0.3215 -0.0413  0.5973
 2512TIP3   OH229026   0.787   4.383  15.871  0.4458 -0.2389  0.0105
 2512TIP3    H129027   0.738   4.399  15.952  0.2714 -1.5872  0.2020
 2512TIP3    H229028   0.759   4.452  15.811 -2.5682 -1.5461 -0.2800
 2513TIP3   OH229029   0.750   0.617   3.590  0.1925  0.6613 -0.4532
 2513TIP3    H129030   0.757   0.541   3.648 -0.3829  1.2579  0.4282
 2513TIP3    H229031   0.828   0.613   3.536 -0.1445 -0.9236 -0.8827
 2514TIP3   OH229032   1.869   4.610   3.146 -0.0375 -0.0186 -0.1870
 2514TIP3    H129033   1.826   4.659   3.217  0.6376 -0.5888  0.6319
 2514TIP3    H229034   1.925   4.547   3.191  0.0456 -0.7161 -1.2344
 2515TIP3   OH229035   0.547   4.735   5.768  0.3608  0.4169  0.0369
 2515TIP3    H129036   0.633   4.733   5.811  1.0708 -0.4098 -1.3317
 2515TIP3    H229037   0.552   4.665   5.703 -1.4080  0.2922  0.0006
 2516TIP3   OH229038   0.062   0.868  14.930 -0.2248  0.4817  0.5048
 2516TIP3    H129039   0.065   0.773  14.932 -1.1835  0.4036 -0.4761
 2516TIP3    H229040   0.066   0.895  15.022  0.7289 -0.4656  0.7462
 2517TIP3   OH229041   2.709   2.590  11.429  0.3047 -0.2271 -0.0776
 2517TIP3    H129042   2.659   2.660  11.388  2.3952 -0.5816 -3.6677
 2517TIP3    H229043   2.650   2.515  11.428 -0.6324  0.4774  0.2170
 2518TIP3   OH229044   3.685   2.603   2.495 -0.1604 -0.1567  0.6663
 2518TIP3    H129045   3.633   2.532   2.532  0.3915 -0.3960  0.9878
 2518TIP3    H229046   3.676   2.675   2.558 -2.0446  0.6551 -0.4353
 2519TIP3   OH229047   0.127   2.698   1.624  0.2187 -0.0091  0.8749
 2519TIP3    H129048   0.039   2.729   1.606  0.3949  0.0571  0.0971
 2519TIP3    H229049   0.162   2.760   1.689 -0.3229 -0.0810  1.2398
 2520TIP3   OH229050   5.222   4.259  12.160 -0.6090  0.2519  0.1285
 2520TIP3    H129051   5.178   4.198  12.220 -1.3905  1.1252  0.4786
 2520TIP3    H229052   5.269   4.319  12.219 -2.0944  1.6569 -0.0499
 2521TIP3   OH229053   0.367   3.268  11.350 -0.2895 -0.1084 -0.2806
 2521TIP3    H129054   0.391   3.343  11.296  1.5020 -0.1703  0.3679
 2521TIP3    H229055   0.340   3.306  11.434 -0.6619 -0.1357 -0.3853
 2522TIP3   OH229056   3.354   3.481  12.536 -0.0793 -0.6384 -0.2029
 2522TIP3    H129057   3.370   3.470  12.442 -1.8724  0.1098 -0.6296
 2522TIP3    H229058   3.351   3.392  12.570 -0.5080 -0.9673 -1.0646
 2523TIP3   OH229059   3.711   5.262   1.302 -0.2173  0.1043  0.0530
 2523TIP3    H129060   3.658   5.182   1.291 -2.1578  1.0374  1.8641
 2523TIP3    H229061   3.668   5.327   1.246  0.4725  0.2791 -0.2849
 2524TIP3   OH229062   1.021   6.182   5.665 -0.5063  0.3680  0.2239
 2524TIP3    H129063   1.024   6.098   5.711 -0.2029 -0.2995 -0.9648
 2524TIP3    H229064   1.005   6.247   5.734  1.0800 -0.4414  1.4228
 2525TIP3   OH229065   4.176   3.063  16.011  0.2202  0.1017 -0.1761
 2525TIP3    H129066   4.089   3.037  16.041  0.2058  0.1494 -0.1746
 2525TIP3    H229067   4.227   3.073  16.091 -0.0814  1.1653 -0.1006
 2526TIP3   OH229068   1.204   2.970  14.704  0.0695  0.2220  0.3132
 2526TIP3    H129069   1.280   3.022  14.730 -1.0864  2.4450 -0.4576
 2526TIP3    H229070   1.155   2.955  14.785  0.0939  0.9212  0.4590
 2527TIP3   OH229071   3.376   6.781   5.785 -0.1353  0.6145  0.1140
 2527TIP3    H129072   3.443   6.714   5.800 -0.9193 -0.1408  0.3647
 2527TIP3    H229073   3.352   6.810   5.873  0.4457  1.4779 -0.0106
 2528TIP3   OH229074   0.434   5.921  17.015  0.0133 -0.0471 -0.3283
 2528TIP3    H129075   0.486   5.954  17.088 -0.3839 -0.8379  0.3320
 2528TIP3    H229076   0.374   5.993  16.994 -0.1583  0.0398  0.4194
 2529TIP3   OH229077   4.239   1.530  17.169  0.5384 -0.4254  0.1963
 2529TIP3    H129078   4.327   1.531  17.132  0.0952 -1.1629 -0.9351
 2529TIP3    H229079   4.183   1.564  17.099 -0.2822 -1.5834  0.2584
 2530TIP3   OH229080   2.846   5.262   3.043 -0.1581 -0.4780 -0.0424
 2530TIP3    H129081   2.865   5.181   2.994  0.1778 -0.2081 -0.3607
 2530TIP3    H229082   2.769   5.240   3.095  0.6924 -1.4247  0.8741
 2531TIP3   OH229083   4.137   4.173  16.068  0.0316  0.0968 -0.1544
 2531TIP3    H129084   4.161   4.081  16.061  0.4951  0.0876  1.2897
 2531TIP3    H229085   4.192   4.218  16.004  1.9884 -0.2774  1.1727
 2532TIP3   OH229086   2.973   2.425  16.387  0.9200 -1.2237 -0.7498
 2532TIP3    H129087   2.933   2.387  16.465  3.4856 -3.2820 -0.3103
 2532TIP3    H229088   2.992   2.350  16.330 -0.0362  0.1296 -3.0310
 2533TIP3   OH229089   3.473   4.698   6.139  0.2199 -0.0733  0.1211
 2533TIP3    H129090   3.461   4.704   6.234  0.0724  0.3940  0.0785
 2533TIP3    H229091   3.561   4.731   6.124 -0.4318  1.7557 -0.0721
 2534TIP3   OH229092   2.342   4.682  11.102  0.0966 -0.1448  0.0771
 2534TIP3    H129093   2.425   4.633  11.106 -0.3505 -0.8690  0.6431
 2534TIP3    H229094   2.297   4.646  11.026  1.6383  2.4853 -2.3233
 2535TIP3   OH229095   5.888   4.061  15.725  0.0370  0.5659 -0.0095
 2535TIP3    H129096   5.920   3.975  15.753  0.6034  0.8463  0.2193
 2535TIP3    H229097   5.913   4.120  15.796 -1.4449  0.7188  0.4235
 2536TIP3   OH229098   6.522   6.141   1.195  0.1011 -0.0722  0.1760
 2536TIP3    H129099   6.577   6.063   1.184  0.1353 -0.2398  1.3842
 2536TIP3    H229100   6.436   6.106   1.219 -0.3041  0.2222 -0.8035
 2537TIP3   OH229101   2.948   2.882   6.190  0.2252 -0.1695  0.1012
 2537TIP3    H129102   2.872   2.845   6.145 -0.1432  0.3805  0.2609
 2537TIP3    H229103   3.005   2.912   6.120 -0.1262  0.2484 -0.0091
 2538TIP3   OH229104   4.492   0.624  12.356  0.6368 -0.1191 -0.6522
 2538TIP3    H129105   4.451   0.709  12.341  1.7175  0.3309 -1.1115
 2538TIP3    H229106   4.471   0.604  12.448 -0.0020  0.4187 -0.6705
 2539TIP3   OH229107   2.971   0.606  14.996 -0.0634  0.3315 -0.3467
 2539TIP3    H129108   2.963   0.592  14.901 -1.1340  2.5496 -0.6659
 2539TIP3    H229109   2.904   0.550  15.034  0.1521 -0.3332 -0.9162
 2540TIP3   OH229110   2.593   4.558  16.707  0.5225  0.0151  0.4188
 2540TIP3    H129111   2.612   4.637  16.656  0.4311 -0.7879 -0.9333
 2540TIP3    H229112   2.584   4.489  16.640  1.9285 -1.4113  1.6057
 2541TIP3   OH229113   4.505   1.527  11.931  0.1809 -0.6480 -0.3574
 2541TIP3    H129114   4.595   1.523  11.898 -0.5422 -0.6564 -2.4564
 2541TIP3    H229115   4.474   1.437  11.925 -0.8514 -0.2100 -2.4071
 2542TIP3   OH229116   5.358   3.047  14.163  0.2844  0.2157 -0.5308
 2542TIP3    H129117   5.345   3.124  14.218 -0.9350  0.3985 -1.0406
 2542TIP3    H229118   5.448   3.055  14.130  1.9182 -1.0242  3.0746
 2543TIP3   OH229119   1.829   2.086   3.263 -0.3546 -0.4729 -0.0040
 2543TIP3    H129120   1.738   2.083   3.292 -0.3249  0.9010  0.3219
 2543TIP3    H229121   1.828   2.043   3.177 -1.1211 -1.3255  0.4140
 2544TIP3   OH229122   1.790   6.684   6.411 -0.0158  0.2155  0.3581
 2544TIP3    H129123   1.758   6.714   6.496  0.4179  0.8572  0.2951
 2544TIP3    H229124   1.845   6.608   6.432 -1.2445 -0.6794  0.5023
 2545TIP3   OH229125   4.425   5.294   2.773 -0.0509 -0.2528  0.0032
 2545TIP3    H129126   4.389   5.373   2.815 -0.3816 -0.3189 -0.1496
 2545TIP3    H229127   4.419   5.226   2.840  1.1531  0.0732  0.4746
 2546TIP3   OH229128   6.449   3.953  12.700 -0.0656  0.0188  0.4207
 2546TIP3    H129129   6.440   3.987  12.789 -0.1195  0.1185  0.3765
 2546TIP3    H229130   6.469   4.030  12.647 -0.8597  0.0885  0.2093
 2547TIP3   OH229131   6.246   4.339   4.871 -0.0066  0.0136  0.6027
 2547TIP3    H129132   6.228   4.404   4.939 -1.8472 -1.1190  1.2911
 2547TIP3    H229133   6.280   4.263   4.919  2.6971  0.5867 -0.2529
 2548TIP3   OH229134   6.514   5.391   2.311  0.4440 -0.5300 -0.1122
 2548TIP3    H129135   6.527   5.481   2.280  2.9316 -1.3063 -1.6862
 2548TIP3    H229136   6.572   5.384   2.387 -0.4011 -0.5861  0.5371
 2549TIP3   OH229137   3.065   4.360  15.676 -0.5338  0.1232  0.4739
 2549TIP3    H129138   3.097   4.412  15.750  2.2823  0.6713 -0.9729
 2549TIP3    H229139   3.045   4.424  15.608 -2.7722 -0.3897  0.5867
 2550TIP3   OH229140   0.532   5.759   3.651 -0.2331 -0.1885  0.0313
 2550TIP3    H129141   0.601   5.823   3.637 -0.1048 -0.1014  0.9740
 2550TIP3    H229142   0.577   5.674   3.651 -0.0336 -0.0928  1.1799
 2551TIP3   OH229143   0.246   1.969   2.823 -0.3511 -0.1525 -0.7214
 2551TIP3    H129144   0.298   1.955   2.744  1.8391  1.6974  0.2792
 2551TIP3    H229145   0.214   2.059   2.815 -2.2227 -0.7641 -0.6016
 2552TIP3   OH229146   5.506   2.947   5.796  0.2959  0.6571 -0.3451
 2552TIP3    H129147   5.501   2.980   5.886 -1.8687  0.1449 -0.2227
 2552TIP3    H229148   5.475   3.020   5.742  0.1118  0.4467 -0.5256
 2553TIP3   OH229149   0.771   2.675  12.836 -0.0031 -0.3607 -0.1393
 2553TIP3    H129150   0.830   2.605  12.812 -1.0333 -0.8712 -1.2729
 2553TIP3    H229151   0.827   2.741  12.878  1.2667 -1.0258 -0.7524
 2554TIP3   OH229152   3.257   1.550  15.385 -0.3615  0.5323 -0.1627
 2554TIP3    H129153   3.199   1.479  15.358 -1.0744  0.6139  1.0821
 2554TIP3    H229154   3.232   1.624  15.330 -1.4938  0.5798  0.3948
 2555TIP3   OH229155   1.192   1.822   1.591  0.7832 -0.2488  0.3728
 2555TIP3    H129156   1.183   1.802   1.498  1.3995 -1.2795  0.5162
 2555TIP3    H229157   1.108   1.797   1.629 -0.0238  1.5773 -0.1063
 2556TIP3   OH229158   6.779   4.486  12.876  0.1243  0.3484  0.2144
 2556TIP3    H129159   6.791   4.393  12.891  0.3677  0.5880  1.5946
 2556TIP3    H229160   6.825   4.504  12.794 -0.0988 -0.7675 -0.1669
 2557TIP3   OH229161   4.271   6.235   0.602  0.4797  0.2130 -0.2814
 2557TIP3    H129162   4.327   6.312   0.593  1.7283 -0.6445 -0.0313
 2557TIP3    H229163   4.323   6.163   0.567 -0.7081 -0.5126 -0.6072
 2558TIP3   OH229164   5.691   2.271  10.807 -0.4832  0.0171 -0.2917
 2558TIP3    H129165   5.774   2.256  10.852 -0.3765  0.4133 -0.3551
 2558TIP3    H229166   5.624   2.254  10.874 -0.3192  0.8496  0.0936
 2559TIP3   OH229167   6.595   2.976   4.873 -0.3573  0.0841  0.1533
 2559TIP3    H129168   6.678   2.933   4.850  0.6211  1.5479  0.7637
 2559TIP3    H229169   6.547   2.981   4.790  0.4623 -0.1726 -0.3563
 2560TIP3   OH229170   6.208   4.142  13.667 -0.8342  0.2360 -0.4424
 2560TIP3    H129171   6.251   4.227  13.682 -0.9244 -0.0245  1.6581
 2560TIP3    H229172   6.250   4.107  13.589  0.4010  1.4765 -0.3727
 2561TIP3   OH229173   3.360   6.207   1.513 -0.9854  0.2214 -0.2232
 2561TIP3    H129174   3.334   6.297   1.534 -0.7870 -0.2797  2.5618
 2561TIP3    H229175   3.285   6.172   1.465 -1.0436  1.8478 -1.4070
 2562TIP3   OH229176   4.891   3.099   0.899  0.7974 -0.1487 -0.1180
 2562TIP3    H129177   4.965   3.127   0.953  0.1839  2.5826 -0.5489
 2562TIP3    H229178   4.904   3.143   0.815 -0.6763 -0.6281 -0.6271
 2563TIP3   OH229179   1.620   2.686   0.935  0.2689 -0.0009  0.5597
 2563TIP3    H129180   1.613   2.747   0.861  1.0294  1.6764  1.7846
 2563TIP3    H229181   1.533   2.647   0.941 -0.0672  0.4893 -0.6721
 2564TIP3   OH229182   0.362   0.030  16.753 -0.3014 -0.2008 -0.2828
 2564TIP3    H129183   0.444  -0.001  16.791 -0.1227 -0.5100 -0.9068
 2564TIP3    H229184   0.315   0.071  16.826 -0.0212 -0.8892  0.2913
 2565TIP3   OH229185   3.471   5.748  11.366  0.0831 -0.2148 -0.3946
 2565TIP3    H129186   3.482   5.662  11.324 -0.3744 -0.7238  0.4933
 2565TIP3    H229187   3.447   5.807  11.295 -0.6561 -1.0498 -0.8572
 2566TIP3   OH229188   3.203   1.215   2.060 -0.0638  0.2166  0.5561
 2566TIP3    H129189   3.216   1.310   2.058 -1.2360  0.4136 -1.8060
 2566TIP3    H229190   3.114   1.203   2.093 -0.3208  0.0410 -0.1720
 2567TIP3   OH229191   5.007   2.082   1.690 -0.1169  0.2107  0.1084
 2567TIP3    H129192   4.917   2.050   1.697 -0.1664  0.6901  2.7783
 2567TIP3    H229193   4.997   2.177   1.682  0.1552  0.2178 -0.1387
 2568TIP3   OH229194   1.182   1.732  16.095 -0.6140  0.4299  0.8580
 2568TIP3    H129195   1.270   1.739  16.133 -0.0138  1.5532 -0.6306
 2568TIP3    H229196   1.169   1.816  16.050 -0.3706 -1.4756 -3.1889
 2569TIP3   OH229197   5.259   5.218   3.721  0.4000  0.1818 -0.2444
 2569TIP3    H129198   5.168   5.241   3.700 -0.1396  0.0097  1.6781
 2569TIP3    H229199   5.254   5.126   3.748  0.8536  0.6078  1.3796
 2570TIP3   OH229200   0.130   3.669   3.029 -0.0304 -0.0680 -0.6588
 2570TIP3    H129201   0.051   3.698   3.075 -0.4299  0.7168 -1.7718
 2570TIP3    H229202   0.199   3.674   3.094 -0.5942  0.8788 -0.1069
 2571TIP3   OH229203   5.841   1.687  16.066 -0.4785 -0.0109 -0.8881
 2571TIP3    H129204   5.841   1.692  16.162 -0.7978  0.8190 -0.9233
 2571TIP3    H229205   5.875   1.599  16.047 -2.3343 -0.9806  0.0122
 2572TIP3   OH229206   0.768   1.601  13.086  0.1462 -0.1834  0.4857
 2572TIP3    H129207   0.779   1.541  13.159 -0.3039 -0.2322  0.5139
 2572TIP3    H229208   0.855   1.604  13.044  0.1343 -0.9706  0.3892
 2573TIP3   OH229209   1.309   2.149   4.431 -0.0201 -0.1777 -0.7067
 2573TIP3    H129210   1.393   2.104   4.427  0.9514  1.3107  1.4753
 2573TIP3    H229211   1.257   2.098   4.493 -0.1514 -0.1618 -0.8011
 2574TIP3   OH229212   0.867   3.683  15.350 -0.3426  0.1184  0.1821
 2574TIP3    H129213   0.908   3.758  15.307  2.3822 -1.4178 -0.1299
 2574TIP3    H229214   0.824   3.720  15.427 -1.2383  2.2930 -1.2671
 2575TIP3   OH229215   4.060   5.999   2.871 -0.0405  0.0989  0.3774
 2575TIP3    H129216   4.148   5.964   2.865 -0.3674 -0.9000  1.1556
 2575TIP3    H229217   4.049   6.023   2.963  0.0990  2.1179 -0.0835
 2576TIP3   OH229218   3.481   1.838   0.653 -0.4393  0.3272 -0.5027
 2576TIP3    H129219   3.395   1.870   0.682 -0.7950  0.7601 -1.9546
 2576TIP3    H229220   3.526   1.815   0.734 -2.0193 -0.1749  0.2851
 2577TIP3   OH229221   0.166   6.525  14.443  0.0422 -0.2920  0.0617
 2577TIP3    H129222   0.133   6.489  14.361 -0.6825 -1.3119  0.7578
 2577TIP3    H229223   0.147   6.618  14.439  0.9481 -0.1454 -1.3428
 2578TIP3   OH229224   3.281   0.999   0.224 -0.4164  0.0916 -0.3413
 2578TIP3    H129225   3.357   1.055   0.207 -1.2825  1.1074 -0.9960
 2578TIP3    H229226   3.277   0.939   0.149 -1.7279  1.7453 -1.6762
 2579TIP3   OH229227   4.418   3.346   3.732  0.5138  0.5469  0.3703
 2579TIP3    H129228   4.447   3.289   3.803 -2.3493 -0.0988  1.1805
 2579TIP3    H229229   4.393   3.428   3.775  0.5435  0.8382 -0.1537
 2580TIP3   OH229230   0.040   0.079   6.004 -1.0343 -0.2790 -0.2861
 2580TIP3    H129231  -0.002   0.159   6.035  2.9259  1.4757  1.3279
 2580TIP3    H229232   0.076   0.039   6.084 -1.3459 -2.7287 -1.2884
 2581TIP3   OH229233   6.053   3.362  16.984  0.3164  0.3701  0.3159
 2581TIP3    H129234   5.970   3.321  16.964 -0.4639  1.8629  0.3487
 2581TIP3    H229235   6.038   3.408  17.066  0.9663  1.1933 -0.0131
 2582TIP3   OH229236   6.485   2.501  16.594 -0.1704 -0.1353 -0.0223
 2582TIP3    H129237   6.402   2.523  16.550  0.5424  1.3530 -0.6823
 2582TIP3    H229238   6.475   2.537  16.682  0.4061  1.5796 -0.6304
 2583TIP3   OH229239   1.615   4.752  17.244  0.4812  0.2580  0.6324
 2583TIP3    H129240   1.612   4.736  17.338  1.0915  0.5765  0.7124
 2583TIP3    H229241   1.640   4.844  17.235 -0.3007  0.4413  0.1578
 2584TIP3   OH229242   0.975   1.681  16.730 -0.3214 -0.5746 -0.3864
 2584TIP3    H129243   0.939   1.608  16.780  3.3433 -1.8006  0.7182
 2584TIP3    H229244   1.043   1.643  16.676  0.9786  1.8473 -0.6105
 2585TIP3   OH229245   3.163   0.347   1.157 -0.1875  0.4061 -0.9371
 2585TIP3    H129246   3.224   0.307   1.218 -0.7948  2.3017  1.0483
 2585TIP3    H229247   3.217   0.407   1.105  0.0457  0.1591 -0.9796
 2586TIP3   OH229248   5.152   4.982  13.624 -0.3798 -0.6618 -0.2398
 2586TIP3    H129249   5.197   4.976  13.540  0.0157 -1.4249  0.0236
 2586TIP3    H229250   5.195   5.055  13.669 -1.3868  0.5322 -1.1620
 2587TIP3   OH229251   0.107   0.109  10.416  0.2884  0.0142  0.3444
 2587TIP3    H129252   0.079   0.199  10.429  0.1752  0.0412 -0.0627
 2587TIP3    H229253   0.089   0.065  10.499  2.3875  0.8861  1.3274
 2588TIP3   OH229254   2.416   0.301  10.503 -0.4430 -0.3699  0.1309
 2588TIP3    H129255   2.491   0.263  10.457  0.1092  0.3285  0.4189
 2588TIP3    H229256   2.347   0.235  10.497 -0.0849 -0.6714 -0.8859
 2589TIP3   OH229257   4.769   1.490   5.931 -0.1552 -0.5589  0.2419
 2589TIP3    H129258   4.703   1.551   5.897 -0.4205  0.1631  1.9383
 2589TIP3    H229259   4.852   1.537   5.923 -0.2458 -0.3026  0.7509
 2590TIP3   OH229260   5.032   4.874   4.635 -0.0960 -0.4295 -0.0101
 2590TIP3    H129261   4.939   4.861   4.656  0.4025 -1.1291  1.9249
 2590TIP3    H229262   5.064   4.785   4.619  0.4534 -0.2846  0.2877
 2591TIP3   OH229263   1.334   5.946   6.776  0.4960 -0.2777  0.0232
 2591TIP3    H129264   1.295   6.021   6.731  0.7105 -0.5496 -0.6299
 2591TIP3    H229265   1.259   5.897   6.811  0.3289 -0.0299  0.0102
 2592TIP3   OH229266   0.292   5.483  11.436 -0.4515  0.0307 -0.2376
 2592TIP3    H129267   0.353   5.443  11.498 -1.2880  0.5080  0.9217
 2592TIP3    H229268   0.338   5.480  11.352 -0.2011 -2.7649 -0.0982
 2593TIP3   OH229269   3.322   1.036   1.576 -0.4704  0.1872  0.0811
 2593TIP3    H129270   3.285   1.099   1.638  0.5963  2.1502 -1.1643
 2593TIP3    H229271   3.282   1.058   1.492  0.2334 -0.5315 -0.4645
 2594TIP3   OH229272   1.091   1.166  10.609 -0.4194  0.0489 -0.3166
 2594TIP3    H129273   1.009   1.187  10.564 -0.9224  1.7293  1.2470
 2594TIP3    H229274   1.067   1.164  10.702  0.8781 -1.7996  0.0282
 2595TIP3   OH229275   6.620   0.204  13.795 -0.4752 -0.1127  0.8752
 2595TIP3    H129276   6.611   0.275  13.858  0.1410  1.7691 -1.0310
 2595TIP3    H229277   6.706   0.218  13.755 -0.5256 -1.6849  0.1408
 2596TIP3   OH229278   4.849   3.652  15.415  0.7930 -0.5466 -0.5367
 2596TIP3    H129279   4.795   3.581  15.451 -1.4893  1.9157  1.2806
 2596TIP3    H229280   4.933   3.644  15.460  0.2329 -1.5056  0.3906
 2597TIP3   OH229281   1.305   5.281   6.874  0.1124 -0.3369  0.4054
 2597TIP3    H129282   1.385   5.233   6.854  0.0294 -0.7406  1.0206
 2597TIP3    H229283   1.243   5.254   6.806  1.5040  2.7004 -2.3185
 2598TIP3   OH229284   3.243   5.776   3.629 -0.8978 -0.0898  0.2172
 2598TIP3    H129285   3.335   5.765   3.608 -1.0260  0.8566 -0.9292
 2598TIP3    H229286   3.197   5.739   3.553 -1.4703 -0.4992  0.7515
 2599TIP3   OH229287   0.381   3.930   3.123 -0.0861 -0.5298  0.5691
 2599TIP3    H129288   0.398   3.852   3.175  0.3996 -0.1887  0.9362
 2599TIP3    H229289   0.332   3.988   3.182 -0.3775 -0.5311  0.3252
 2600TIP3   OH229290   5.713   6.450  11.083 -0.4626  0.3936  0.1651
 2600TIP3    H129291   5.809   6.451  11.081 -0.3359 -1.6199  1.9073
 2600TIP3    H229292   5.691   6.454  11.176 -1.8671 -2.9540  0.1193
 2601TIP3   OH229293   5.691   6.683   0.514 -0.7444  0.0711  0.0197
 2601TIP3    H129294   5.756   6.749   0.490  0.5651 -0.5865  1.5713
 2601TIP3    H229295   5.701   6.613   0.450  0.2650 -0.1233  0.3800
 2602TIP3   OH229296   6.485   5.925   3.463 -0.3138 -0.0079 -0.0089
 2602TIP3    H129297   6.451   5.837   3.449 -1.4729  0.3413  0.4876
 2602TIP3    H229298   6.562   5.913   3.520 -1.1595 -0.6030  1.0392
 2603TIP3   OH229299   4.162   0.060   4.963 -0.2541  0.9540 -0.1044
 2603TIP3    H129300   4.079   0.057   4.916 -1.7944  2.8295  2.2365
 2603TIP3    H229301   4.194   0.150   4.949  0.4477  0.8042  0.4908
 2604TIP3   OH229302   6.057   4.352  16.690  0.8475  0.3218 -0.2275
 2604TIP3    H129303   6.088   4.262  16.684  2.4468  0.8346 -0.1586
 2604TIP3    H229304   5.969   4.350  16.652  1.4954 -0.9492 -1.7640
 2605TIP3   OH229305   5.135   5.736   3.766 -0.6076  0.3726 -0.0743
 2605TIP3    H129306   5.149   5.820   3.810 -0.8683  0.2429  0.2602
 2605TIP3    H229307   5.126   5.673   3.838  0.5882 -0.1136 -0.3196
 2606TIP3   OH229308   5.614   1.286  13.952 -0.1073  0.0475  0.2636
 2606TIP3    H129309   5.638   1.318  13.865 -2.8752  0.6560 -0.3870
 2606TIP3    H229310   5.636   1.193  13.951 -1.3590 -0.2913 -1.6635
 2607TIP3   OH229311   3.962   1.132   2.388 -0.3158  0.3074 -0.1818
 2607TIP3    H129312   3.868   1.120   2.398 -0.0235 -1.5492  0.8231
 2607TIP3    H229313   3.999   1.046   2.406  1.7116  1.3728  1.0743
 2608TIP3   OH229314   4.951   6.623  14.289  0.3570  0.0492  0.2948
 2608TIP3    H129315   4.924   6.640  14.198 -2.0653 -2.0023  0.5135
 2608TIP3    H229316   4.983   6.708  14.320 -2.3210  1.8476 -1.3380
 2609TIP3   OH229317   3.653   5.450   1.123  0.5912  0.4690 -0.2074
 2609TIP3    H129318   3.564   5.478   1.145  0.5049 -0.4651  0.7526
 2609TIP3    H229319   3.709   5.522   1.154  0.2178  0.7501 -0.1763
 2610TIP3   OH229320   5.596   3.391  15.215 -0.1289 -0.9317 -0.1620
 2610TIP3    H129321   5.555   3.347  15.141  1.4447 -0.0295 -1.6521
 2610TIP3    H229322   5.689   3.368  15.209  0.2029  0.0116  0.8939
 2611TIP3   OH229323   4.224   0.482   1.355 -0.1645  0.0118  0.4652
 2611TIP3    H129324   4.279   0.557   1.376 -0.7683  0.8305 -0.7529
 2611TIP3    H229325   4.136   0.518   1.348 -0.3270 -0.6016 -1.1519
 2612TIP3   OH229326   5.963   2.659   1.672 -0.7368 -0.3855 -0.7134
 2612TIP3    H129327   5.919   2.673   1.589 -1.2660 -0.1686 -0.3981
 2612TIP3    H229328   5.893   2.634   1.733 -0.0542 -3.2230 -0.9389
 2613TIP3   OH229329   3.394   2.804  16.859 -0.0833  0.1697 -0.1905
 2613TIP3    H129330   3.331   2.780  16.927  0.0392  1.3718  0.3694
 2613TIP3    H229331   3.371   2.749  16.784  0.1504 -1.6251  0.9899
 2614TIP3   OH229332   1.141   4.525  17.108 -0.0768  0.2311 -0.1049
 2614TIP3    H129333   1.165   4.433  17.103 -0.7850  0.0848 -1.0514
 2614TIP3    H229334   1.213   4.566  17.156  0.1250 -0.8486  0.5433
 2615TIP3   OH229335   3.777   1.559   1.922 -0.1429 -0.0120  0.0117
 2615TIP3    H129336   3.741   1.592   2.004 -0.8742 -0.4632 -0.1243
 2615TIP3    H229337   3.775   1.464   1.931 -1.6697 -0.1198 -1.1189
 2616TIP3   OH229338   0.099   4.206   3.904  0.0265  0.4284 -0.4130
 2616TIP3    H129339   0.008   4.190   3.878 -0.3233 -0.4513  1.2533
 2616TIP3    H229340   0.093   4.243   3.992  1.2996  0.1382 -0.1870
 2617TIP3   OH229341   3.750   1.363   0.034 -0.5223  0.0110 -0.1159
 2617TIP3    H129342   3.819   1.301   0.057 -1.3637 -0.7965  0.2726
 2617TIP3    H229343   3.742   1.419   0.111  0.3280  0.7186 -0.5143
 2618TIP3   OH229344   3.043   1.959  16.976  0.7685  0.4981 -0.3375
 2618TIP3    H129345   3.112   2.018  16.945  1.5511 -0.2624 -0.0693
 2618TIP3    H229346   2.977   2.017  17.015  0.7852  1.3072 -1.4593
 2619TIP3   OH229347   3.230   5.119  14.074  0.0908 -0.1980 -0.2278
 2619TIP3    H129348   3.276   5.061  14.014 -2.0328 -1.3182 -0.8777
 2619TIP3    H229349   3.234   5.074  14.159 -0.4156 -0.6628 -0.4445
 2620TIP3   OH229350   5.080   5.902   4.347  0.2832 -0.0325  0.4285
 2620TIP3    H129351   5.154   5.962   4.339  1.4704 -1.6246 -1.6060
 2620TIP3    H229352   5.087   5.846   4.270 -1.8020 -1.6398  1.3222
 2621TIP3   OH229353   4.343   0.122  16.299 -0.4140 -0.4726 -0.2123
 2621TIP3    H129354   4.356   0.185  16.227 -0.0201 -0.3004  0.0089
 2621TIP3    H229355   4.292   0.051  16.259 -3.0798  1.1003  0.1069
 2622TIP3   OH229356   0.369   5.481   4.425 -0.6970 -0.3025 -0.6002
 2622TIP3    H129357   0.382   5.406   4.483  0.3658  0.6299  0.4408
 2622TIP3    H229358   0.417   5.459   4.346 -0.1237 -0.5973 -0.1766
 2623TIP3   OH229359   4.011   6.704   4.411 -0.0264  0.3147  0.3013
 2623TIP3    H129360   4.044   6.618   4.435 -1.2080  0.0121  0.9327
 2623TIP3    H229361   4.037   6.761   4.483  0.8594  0.5257 -0.1732
 2624TIP3   OH229362   6.342   6.071   6.218  0.6089 -0.5286  0.2189
 2624TIP3    H129363   6.405   6.076   6.290  0.0245 -0.7869  0.7572
 2624TIP3    H229364   6.260   6.104   6.254  0.5549  0.3028 -0.6330
 2625TIP3   OH229365   0.519   5.947  12.833 -0.0932 -0.1623  0.1464
 2625TIP3    H129366   0.559   6.018  12.882  0.5260 -1.0600  0.9855
 2625TIP3    H229367   0.569   5.869  12.858 -0.2449 -0.7830 -1.3388
 2626TIP3   OH229368   6.754   3.188  16.695 -0.1614  1.0523  0.0297
 2626TIP3    H129369   6.687   3.211  16.759 -0.9360 -0.3917 -0.2319
 2626TIP3    H229370   6.830   3.162  16.747 -0.7606 -0.0382  0.3970
 2627TIP3   OH229371   4.654   4.011   4.384 -0.5412  0.6569  0.1544
 2627TIP3    H129372   4.599   3.941   4.418  0.1877  0.6583  1.3679
 2627TIP3    H229373   4.614   4.033   4.299 -1.8086 -0.0142  0.5472
 2628TIP3   OH229374   5.445   0.985   0.698  0.6668 -0.0664  0.1088
 2628TIP3    H129375   5.445   1.081   0.694  0.6327 -0.0546  0.3624
 2628TIP3    H229376   5.492   0.957   0.619  0.4090  0.1521 -0.1262
 2629TIP3   OH229377   3.211   5.417  11.612  0.5065 -0.6714 -0.1421
 2629TIP3    H129378   3.140   5.474  11.583  0.7702  0.2439  0.9332
 2629TIP3    H229379   3.175   5.329  11.607 -0.8468 -0.1972  0.7455
 2630TIP3   OH229380   3.225   6.666   0.180 -0.2267  0.1906  0.1230
 2630TIP3    H129381   3.243   6.759   0.189 -1.3017  0.3150  1.2161
 2630TIP3    H229382   3.173   6.660   0.099 -1.2606  0.7337  0.7187
 2631TIP3   OH229383   6.110   2.433   0.246  0.7977 -0.3831  0.0484
 2631TIP3    H129384   6.083   2.373   0.176  0.9788  1.5384 -1.7899
 2631TIP3    H229385   6.029   2.456   0.291  0.1679  0.6238 -1.5004
 2632TIP3   OH229386   6.118   2.412  16.095  0.3384 -0.4638 -0.3644
 2632TIP3    H129387   6.027   2.439  16.082  0.8250  1.9758  0.7074
 2632TIP3    H229388   6.118   2.371  16.182  0.4559  0.6854  0.1932
 2633TIP3   OH229389   3.519   2.229   0.891  0.2700  0.1231 -0.1897
 2633TIP3    H129390   3.576   2.153   0.877  0.2537 -0.0820  0.7549
 2633TIP3    H229391   3.572   2.304   0.865  0.5384 -0.1536 -0.4568
 2634TIP3   OH229392   5.849   6.690   3.230 -0.3070  0.2008 -0.0391
 2634TIP3    H129393   5.849   6.627   3.301  0.8357 -0.9174 -0.9962
 2634TIP3    H229394   5.924   6.747   3.248 -0.0125 -0.0879 -0.3579
 2635TIP3   OH229395   6.612   4.145   4.099  0.4825 -0.4289 -0.0091
 2635TIP3    H129396   6.653   4.140   4.012 -0.0506  0.8523 -0.3499
 2635TIP3    H229397   6.682   4.120   4.159  0.8606 -1.3372 -0.7894
 2636TIP3   OH229398   3.912   5.933   1.285 -0.2096 -0.2011 -0.0089
 2636TIP3    H129399   3.983   5.995   1.300 -1.4928  1.3929 -0.2447
 2636TIP3    H229400   3.883   5.908   1.373 -1.4241  1.6635  0.1763
 2637TIP3   OH229401   6.074   3.751   3.038 -0.0598 -0.0439  0.3305
 2637TIP3    H129402   6.014   3.714   2.974  1.2303 -0.9135 -0.4202
 2637TIP3    H229403   6.160   3.716   3.015  0.7935  1.2919  1.2587
 2638TIP3   OH229404   0.284   0.302  16.898  0.1232 -0.5631 -0.0841
 2638TIP3    H129405   0.215   0.302  16.964 -0.2698  0.4109 -0.4755
 2638TIP3    H229406   0.366   0.303  16.948 -0.1696  1.0815  0.4114
 2639TIP3   OH229407   0.463   2.554  12.427 -0.0241 -0.2493 -0.3238
 2639TIP3    H129408   0.547   2.599  12.440 -0.9676  1.1184  1.5834
 2639TIP3    H229409   0.446   2.511  12.511 -2.7088  2.2335  0.5829
 2640TIP3   OH229410   6.788   1.792   3.687  0.2736 -0.4600 -0.0346
 2640TIP3    H129411   6.727   1.848   3.734  0.9052 -0.3377  0.6695
 2640TIP3    H229412   6.742   1.709   3.677 -0.6550  0.1585 -1.0486
 2641TIP3   OH229413   2.806   6.587   4.194  0.1699  0.1590  0.0794
 2641TIP3    H129414   2.761   6.581   4.110  0.0934  0.1245  0.1237
 2641TIP3    H229415   2.859   6.667   4.187  0.7288 -0.2331 -0.2800
 2642TIP3   OH229416   6.376   1.354   1.543  0.1890 -0.5525  0.3358
 2642TIP3    H129417   6.320   1.283   1.510 -1.9849 -0.8985  4.1549
 2642TIP3    H229418   6.315   1.414   1.586  2.0184  3.5309 -2.2306
 2643TIP3   OH229419   3.863   2.260  11.365  0.2545  0.0469  0.4197
 2643TIP3    H129420   3.873   2.267  11.270  3.0543 -2.1582  0.4007
 2643TIP3    H229421   3.779   2.216  11.377 -0.1079  0.2790 -1.0108
 2644TIP3   OH229422   5.397   0.690  11.753 -0.9333  0.9685 -0.0397
 2644TIP3    H129423   5.310   0.719  11.725 -1.3351  0.7151  0.8948
 2644TIP3    H229424   5.438   0.657  11.674 -3.0119 -2.2402  0.0454
 2645TIP3   OH229425   5.186   4.712   2.132 -0.0435  0.2096  0.3274
 2645TIP3    H129426   5.232   4.651   2.074 -0.0429 -1.9276  2.4044
 2645TIP3    H229427   5.248   4.783   2.148  0.2522  0.4215 -1.5404
 2646TIP3   OH229428   0.493   5.407   3.793 -0.1867 -0.6583 -0.5604
 2646TIP3    H129429   0.523   5.357   3.869  1.2304 -1.3260 -1.5266
 2646TIP3    H229430   0.421   5.461   3.827 -0.6285 -2.0823  0.8918
 2647TIP3   OH229431   1.033   0.943  14.871 -0.1175  0.0544  0.2843
 2647TIP3    H129432   1.007   0.864  14.824 -0.6883  1.0291 -1.1157
 2647TIP3    H229433   0.969   1.009  14.843  0.0498  0.9027  1.7956
 2648TIP3   OH229434   4.834   0.887   1.896 -0.0093  0.0289 -0.4035
 2648TIP3    H129435   4.797   0.808   1.936  0.4718 -0.6360 -1.2125
 2648TIP3    H229436   4.893   0.853   1.829  0.0791  1.0890 -0.8792
 2649TIP3   OH229437   6.102   6.662   1.932 -0.3677  0.1039 -0.2185
 2649TIP3    H129438   6.169   6.713   1.979 -0.0272  0.9720 -1.6082
 2649TIP3    H229439   6.030   6.724   1.918  0.2222  0.3864 -2.2935
 2650TIP3   OH229440   1.600   2.505  16.017  0.3269 -0.1527  0.2757
 2650TIP3    H129441   1.593   2.461  15.932  3.2394 -0.9388  0.3416
 2650TIP3    H229442   1.631   2.593  15.997  2.4543 -0.7907  0.5066
 2651TIP3   OH229443   2.392   2.132  12.381 -0.0843  0.2830  0.5451
 2651TIP3    H129444   2.333   2.136  12.306 -0.3697 -0.5992  0.7135
 2651TIP3    H229445   2.448   2.209  12.372 -0.6808  0.6457 -0.0983
 2652TIP3   OH229446   6.051   4.882  11.691  0.4019 -0.3180  0.5179
 2652TIP3    H129447   5.956   4.887  11.696  0.3848 -0.4181  0.2874
 2652TIP3    H229448   6.080   4.972  11.708  0.2300 -0.1172 -0.1971
 2653TIP3   OH229449   2.399   4.494  14.976  0.1888 -0.4654 -0.2336
 2653TIP3    H129450   2.335   4.550  14.932 -0.0518  0.4118  1.1536
 2653TIP3    H229451   2.483   4.524  14.942  0.2393  2.1845  1.8297
 2654TIP3   OH229452   2.940   1.080  12.947  0.2699 -0.2510  0.0696
 2654TIP3    H129453   2.856   1.077  12.992  1.5440  0.6807  2.6795
 2654TIP3    H229454   2.919   1.111  12.858 -2.2852 -1.7057  0.0979
 2655TIP3   OH229455   1.267   2.915   0.671 -0.3994 -0.1566  0.8724
 2655TIP3    H129456   1.210   2.927   0.595  1.5584  0.0748 -0.6402
 2655TIP3    H229457   1.294   2.823   0.665  1.8155  0.5128 -0.2938
 2656TIP3   OH229458   2.513   6.210   5.094 -0.3022  0.3931  0.3858
 2656TIP3    H129459   2.575   6.182   5.027 -0.1688  0.2992  0.5458
 2656TIP3    H229460   2.471   6.287   5.058  1.0642  1.4399  0.9276
 2657TIP3   OH229461   0.257   5.496  16.043 -0.1662 -0.1548 -0.5146
 2657TIP3    H129462   0.295   5.442  15.974  0.1898 -1.8639  0.9551
 2657TIP3    H229463   0.288   5.457  16.125 -0.1708  2.0954  0.6412
 2658TIP3   OH229464   1.329   0.923   0.349 -0.1850  0.0226  0.0971
 2658TIP3    H129465   1.356   0.859   0.415  1.0494 -2.4574 -2.6342
 2658TIP3    H229466   1.403   0.983   0.342 -0.8099  1.0814  1.6904
 2659TIP3   OH229467   1.644   1.629  14.845  0.3578  0.1811  0.4837
 2659TIP3    H129468   1.659   1.548  14.893  1.9310  0.2251  0.1194
 2659TIP3    H229469   1.732   1.664  14.829 -0.2836  2.2204  1.0826
 2660TIP3   OH229470   3.794   3.266   3.284  1.1271  0.1156 -0.2550
 2660TIP3    H129471   3.839   3.244   3.366 -1.3613 -1.5767  0.7785
 2660TIP3    H229472   3.764   3.356   3.296  0.0382 -0.3973  1.1145
 2661TIP3   OH229473   5.903   2.152  12.377 -0.5160 -0.2105  0.2739
 2661TIP3    H129474   5.890   2.062  12.407 -0.1239  0.2075  1.7505
 2661TIP3    H229475   5.816   2.193  12.386 -0.1826  0.2165  2.0021
 2662TIP3   OH229476   6.430   2.732   0.912 -0.8583 -0.1493  0.1118
 2662TIP3    H129477   6.410   2.647   0.873  0.0952 -0.5544  0.4854
 2662TIP3    H229478   6.493   2.712   0.982 -1.1347  0.7810  0.6440
 2663TIP3   OH229479   3.752   4.380   6.277  0.5559  0.6202 -0.6370
 2663TIP3    H129480   3.838   4.422   6.269  1.0618 -0.4264 -0.7522
 2663TIP3    H229481   3.761   4.321   6.351  0.7448 -1.3625 -2.1532
 2664TIP3   OH229482   0.392   3.892   5.380 -0.6655 -0.5616 -0.1120
 2664TIP3    H129483   0.307   3.850   5.392  0.4582 -2.7798  0.7601
 2664TIP3    H229484   0.394   3.916   5.287 -2.3683 -0.1002 -0.0544
 2665TIP3   OH229485   3.450   4.946  15.566  0.1923  0.4745 -0.0146
 2665TIP3    H129486   3.406   4.887  15.505 -0.4521 -0.0296  0.9094
 2665TIP3    H229487   3.394   5.023  15.570  0.6817  0.8777 -0.7008
 2666TIP3   OH229488   5.228   5.600  12.563 -0.5842 -0.5171  0.0370
 2666TIP3    H129489   5.138   5.619  12.590 -1.4025 -0.9677 -2.1629
 2666TIP3    H229490   5.246   5.663  12.493  0.8490 -0.3767  0.5072
 2667TIP3   OH229491   3.622   6.259  14.715  0.8246 -0.1249 -0.6935
 2667TIP3    H129492   3.631   6.179  14.664  0.2328  1.0206 -2.6922
 2667TIP3    H229493   3.529   6.281  14.710  0.8289  0.2921  0.5173
 2668TIP3   OH229494   5.595   4.200  14.113 -0.1696  0.3891  0.2211
 2668TIP3    H129495   5.620   4.260  14.184  1.5256 -0.6945  0.5997
 2668TIP3    H229496   5.629   4.115  14.141 -1.9405 -0.6512 -0.6109
 2669TIP3   OH229497   0.187   6.672   5.426 -0.0544  0.4343  0.0154
 2669TIP3    H129498   0.174   6.699   5.516 -1.1822  2.2043 -0.6434
 2669TIP3    H229499   0.101   6.680   5.385  0.8118  1.6027 -1.6942
 2670TIP3   OH229500   4.572   4.697   1.292  0.7585  0.3639  0.0379
 2670TIP3    H129501   4.648   4.646   1.318  0.2580 -1.6180 -2.0486
 2670TIP3    H229502   4.576   4.698   1.196 -0.9049  1.7298 -0.0637
 2671TIP3   OH229503   0.892   2.142   2.102 -0.3865 -0.4626  0.4342
 2671TIP3    H129504   0.903   2.228   2.062 -1.9942 -0.6200 -0.4194
 2671TIP3    H229505   0.914   2.155   2.194 -0.9915  0.9572  0.4030
 2672TIP3   OH229506   2.255   4.445   1.984  0.2121  0.2204 -0.4316
 2672TIP3    H129507   2.174   4.408   2.019  0.2253  1.8814  1.6104
 2672TIP3    H229508   2.324   4.401   2.034  0.3822  0.7951 -0.1496
 2673TIP3   OH229509   4.881   5.799   3.638 -0.5235  0.3716 -0.0577
 2673TIP3    H129510   4.942   5.864   3.673 -1.4319  0.9254  0.5575
 2673TIP3    H229511   4.928   5.716   3.644  0.1361  0.7738  0.4931
 2674TIP3   OH229512   2.658   5.050  15.570  0.0589 -0.5965 -0.0285
 2674TIP3    H129513   2.575   5.045  15.524 -0.3697  1.3420  0.4422
 2674TIP3    H229514   2.641   5.012  15.657 -0.5401  0.4138  0.3073
 2675TIP3   OH229515   4.639   5.365   2.592 -0.3365 -0.1995 -0.3091
 2675TIP3    H129516   4.580   5.378   2.667  0.6876 -0.6271  0.6044
 2675TIP3    H229517   4.586   5.385   2.516 -1.1003  1.4401  0.5918
 2676TIP3   OH229518   4.589   1.553   2.334  0.2724  0.0728  0.0982
 2676TIP3    H129519   4.608   1.579   2.244 -0.0038  2.3882  0.6357
 2676TIP3    H229520   4.651   1.603   2.387 -0.2049 -0.5160  1.2497
 2677TIP3   OH229521   5.358   6.242  14.803 -0.0722 -0.4865  0.6616
 2677TIP3    H129522   5.310   6.320  14.774  1.2302 -0.2882 -1.1130
 2677TIP3    H229523   5.409   6.273  14.879 -1.2739 -0.2233  1.3809
 2678TIP3   OH229524   1.984   5.878  16.782  0.2955 -0.2096 -0.1647
 2678TIP3    H129525   2.015   5.788  16.793  1.2681  0.3563  2.6267
 2678TIP3    H229526   2.027   5.909  16.702  3.0187 -1.1067  0.8089
 2679TIP3   OH229527   5.442   5.388   3.881  0.0214  0.5826  0.0095
 2679TIP3    H129528   5.360   5.340   3.892 -0.2979  0.9026 -0.8873
 2679TIP3    H229529   5.505   5.321   3.854 -0.4534  0.6670 -1.3631
 2680TIP3   OH229530   1.407   4.840   1.879 -0.2061  0.3163 -0.7407
 2680TIP3    H129531   1.382   4.749   1.865  1.3920 -0.3500  0.4193
 2680TIP3    H229532   1.366   4.864   1.962  1.0495 -0.0607  0.0229
 2681TIP3   OH229533   2.302   0.380   3.212  0.5176  0.1716 -0.2228
 2681TIP3    H129534   2.395   0.392   3.192  0.3910 -0.2397 -1.0833
 2681TIP3    H229535   2.301   0.350   3.303  1.0622  2.6728  0.6908
 2682TIP3   OH229536   0.507   0.375   0.270  0.5306  0.1262 -0.1147
 2682TIP3    H129537   0.482   0.394   0.179  1.9467  1.9523 -0.1820
 2682TIP3    H229538   0.459   0.440   0.322 -0.1626 -0.8198  0.4723
 2683TIP3   OH229539   4.248   1.384   5.649 -0.1216  0.1270  0.0449
 2683TIP3    H129540   4.275   1.394   5.558 -1.0355 -0.7822 -0.3461
 2683TIP3    H229541   4.306   1.317   5.685 -0.6013 -0.4635 -0.2576
 2684TIP3   OH229542   5.941   2.179   0.638  0.9685 -0.4523 -0.3346
 2684TIP3    H129543   5.874   2.136   0.690  1.0150 -0.9965 -0.7212
 2684TIP3    H229544   5.906   2.267   0.621 -0.1523 -1.0984 -1.4769
 2685TIP3   OH229545   2.888   2.775  16.113  0.3140  0.5281  0.3244
 2685TIP3    H129546   2.826   2.720  16.065  2.5078 -1.0452 -0.8412
 2685TIP3    H229547   2.913   2.843  16.051  0.6862  0.4189  0.3523
 2686TIP3   OH229548   2.831   4.438  14.682 -0.6418 -0.4980 -0.4010
 2686TIP3    H129549   2.829   4.405  14.593 -0.4131  0.2011 -0.6747
 2686TIP3    H229550   2.923   4.459  14.698 -0.9273  1.1581 -0.6965
 2687TIP3   OH229551   6.777   1.054  16.900  0.3514  0.0761 -0.4344
 2687TIP3    H129552   6.689   1.016  16.892  1.0871 -1.4216 -2.2106
 2687TIP3    H229553   6.761   1.147  16.911 -1.5042 -0.4232  2.2430
 2688TIP3   OH229554   5.542   3.959   0.879  0.8702 -0.4541 -0.2969
 2688TIP3    H129555   5.553   3.988   0.788 -0.9751  0.9957 -0.1085
 2688TIP3    H229556   5.480   3.885   0.873  0.0436  0.2100 -0.1751
 2689TIP3   OH229557   1.726   3.813   3.604 -0.2957 -0.0213  0.3435
 2689TIP3    H129558   1.677   3.827   3.524 -1.2253 -1.4572  0.6264
 2689TIP3    H229559   1.677   3.746   3.652  1.8322 -1.4537  0.6950
 2690TIP3   OH229560   5.285   0.623  15.596  0.2096 -0.0075  0.2727
 2690TIP3    H129561   5.201   0.588  15.627 -0.8926  2.1899 -0.0470
 2690TIP3    H229562   5.317   0.558  15.534 -0.2602 -1.8276  1.8537
 2691TIP3   OH229563   1.127   2.903  14.457 -0.2923  0.1707  0.1641
 2691TIP3    H129564   1.086   2.817  14.468 -0.4495  0.1149 -0.7209
 2691TIP3    H229565   1.127   2.942  14.544 -0.3354 -0.6760  0.5528
 2692TIP3   OH229566   2.466   6.412  14.590 -0.0903 -0.1574  0.0780
 2692TIP3    H129567   2.481   6.407  14.685  1.5125  0.9436 -0.0798
 2692TIP3    H229568   2.371   6.416  14.581 -0.2701 -0.3035  1.6373
 2693TIP3   OH229569   4.174   6.237  16.684  0.1421  0.4108  0.3518
 2693TIP3    H129570   4.264   6.251  16.656  0.6339 -0.7481  1.2712
 2693TIP3    H229571   4.140   6.170  16.625 -0.1011  0.7939  0.0525
 2694TIP3   OH229572   3.440   0.047   1.550  0.0028 -0.5087  0.3544
 2694TIP3    H129573   3.361   0.081   1.593  1.4457  2.2379  1.0169
 2694TIP3    H229574   3.482  -0.007   1.617  0.0169  0.1741  0.9019
 2695TIP3   OH229575   1.253   1.740   0.075 -0.1557  0.1370 -0.4390
 2695TIP3    H129576   1.206   1.762  -0.005 -0.8249 -0.2871 -0.1686
 2695TIP3    H229577   1.331   1.795   0.073 -0.8072  1.0600 -0.7486
 2696TIP3   OH229578   3.356   5.210   1.590 -0.5430 -0.0552 -0.1757
 2696TIP3    H129579   3.342   5.269   1.516 -1.5009 -1.9451 -1.5768
 2696TIP3    H229580   3.316   5.128   1.563  1.8627 -1.7985  1.1431
 2697TIP3   OH229581   3.450   5.088   5.124  0.4390  0.4711  0.5660
 2697TIP3    H129582   3.403   5.073   5.206  1.2506 -0.7353  0.8331
 2697TIP3    H229583   3.542   5.074   5.146  0.6470 -0.1431 -0.5997
 2698TIP3   OH229584   1.090   0.169  11.825 -0.1181 -0.2119  0.6132
 2698TIP3    H129585   1.095   0.264  11.835 -2.7715 -0.0480  1.1464
 2698TIP3    H229586   1.062   0.155  11.735  0.8309 -0.5377  0.3602
 2699TIP3   OH229587   1.344   3.846  12.505 -0.3601  0.1876  0.1983
 2699TIP3    H129588   1.347   3.840  12.600  1.2744  1.2135  0.2429
 2699TIP3    H229589   1.435   3.842  12.478 -0.7961 -0.0144 -1.3336
 2700TIP3   OH229590   1.139   0.276   4.831  0.2163  0.5443  0.2418
 2700TIP3    H129591   1.133   0.291   4.926  0.8237 -0.4953  0.4650
 2700TIP3    H229592   1.055   0.238   4.808 -1.0428  3.3226 -0.1917
 2701TIP3   OH229593   1.905   5.270   3.002  0.3633  0.6648  0.2495
 2701TIP3    H129594   1.917   5.229   2.917 -0.4591  0.2286  0.3385
 2701TIP3    H229595   1.853   5.347   2.985 -0.4011  0.2005  0.4420
 2702TIP3   OH229596   6.244   1.059   0.980  0.0442 -0.0748  0.1426
 2702TIP3    H129597   6.327   1.080   1.023 -0.0333  1.7235 -0.4890
 2702TIP3    H229598   6.258   0.972   0.942  1.1982 -0.3366  1.0961
 2703TIP3   OH229599   6.647   5.578   1.208  0.0048 -0.5941  0.2366
 2703TIP3    H129600   6.583   5.562   1.277 -0.6501  0.9864  0.0442
 2703TIP3    H229601   6.595   5.606   1.133  0.8351 -0.3626 -0.2709
 2704TIP3   OH229602   4.310   3.775  13.047  0.0345 -0.3772 -0.2611
 2704TIP3    H129603   4.388   3.721  13.037  0.1090 -0.2930 -0.1468
 2704TIP3    H229604   4.287   3.802  12.959  1.0275  0.8515 -0.1726
 2705TIP3   OH229605   6.710   1.955  11.519  0.7010  0.4638  0.0426
 2705TIP3    H129606   6.714   2.040  11.476  3.9364 -0.8171 -2.6617
 2705TIP3    H229607   6.795   1.946  11.562  0.3848 -1.3383  0.3724
 2706TIP3   OH229608   3.012   2.672   2.543 -0.1020 -0.0433  0.0062
 2706TIP3    H129609   3.017   2.761   2.508 -4.7779  0.5264  0.1526
 2706TIP3    H229610   3.030   2.681   2.636  1.3199  0.3650 -0.2901
 2707TIP3   OH229611   0.716   5.648  16.797 -0.5170 -0.3304  0.0793
 2707TIP3    H129612   0.652   5.710  16.762  0.6492  0.2110 -1.2028
 2707TIP3    H229613   0.792   5.702  16.818 -0.3896 -0.9867  1.4094
 2708TIP3   OH229614   0.288   6.472   3.207 -0.4917 -0.0748 -0.2472
 2708TIP3    H129615   0.375   6.500   3.179 -0.7250 -0.3964 -1.3405
 2708TIP3    H229616   0.229   6.540   3.174 -0.6078  0.5647  1.1720
 2709TIP3   OH229617   4.214   6.158  16.402  0.3146  0.6917 -0.1497
 2709TIP3    H129618   4.238   6.236  16.351  0.6970 -0.0238 -1.0773
 2709TIP3    H229619   4.155   6.109  16.345  0.2019  0.2201  0.3657
 2710TIP3   OH229620   3.781   3.600  12.939 -0.7280  0.2442  0.3197
 2710TIP3    H129621   3.746   3.686  12.961 -1.5440  0.0146 -0.0459
 2710TIP3    H229622   3.876   3.613  12.936 -0.7850  0.9317  1.0885
 2711TIP3   OH229623   2.790   4.364  12.943  0.1196 -0.3089 -0.3802
 2711TIP3    H129624   2.711   4.396  12.898  1.7612  0.7474 -2.7049
 2711TIP3    H229625   2.851   4.344  12.872  2.3013 -0.1381  1.3576
 2712TIP3   OH229626   5.738   4.208  11.977  0.0095  0.9373  0.0474
 2712TIP3    H129627   5.685   4.270  11.929 -0.2553  1.4446  0.9606
 2712TIP3    H229628   5.688   4.190  12.057 -1.5669 -2.9872 -1.5572
 2713TIP3   OH229629   1.933   6.799   2.571 -0.0704 -0.2681  0.2164
 2713TIP3    H129630   1.987   6.866   2.530 -0.0031 -1.1318 -1.1797
 2713TIP3    H229631   1.888   6.845   2.642  1.4712  0.7703  0.5641
 2714TIP3   OH229632   3.030   0.354   2.866  0.2136  0.1918  0.2444
 2714TIP3    H129633   3.018   0.277   2.811  0.3832  0.0732  0.3728
 2714TIP3    H229634   3.015   0.428   2.807 -0.4045  0.0597  0.2248
 2715TIP3   OH229635   3.716   3.171  10.902 -0.2198 -0.8460  0.3205
 2715TIP3    H129636   3.657   3.241  10.929 -1.2918 -1.9267  0.8884
 2715TIP3    H229637   3.669   3.090  10.925  2.1658 -1.7576  2.3899
 2716TIP3   OH229638   3.226   0.556  10.837  0.5039  0.4604 -0.6818
 2716TIP3    H129639   3.251   0.480  10.890  0.8792  3.0296  3.2375
 2716TIP3    H229640   3.133   0.543  10.821  0.5955 -0.9307 -0.2629
 2717TIP3   OH229641   0.535   4.110   1.285  0.5633  0.3754 -0.5254
 2717TIP3    H129642   0.530   4.084   1.377  2.6708  1.2207 -0.1239
 2717TIP3    H229643   0.508   4.033   1.236 -0.6423 -0.0658  0.7917
 2718TIP3   OH229644   5.072   4.654  17.243 -0.5932  0.0573  0.5649
 2718TIP3    H129645   5.138   4.618  17.184  0.3898 -1.6889  2.6214
 2718TIP3    H229646   5.081   4.749  17.234  0.6445 -0.1632 -0.8377
 2719TIP3   OH229647   2.452   3.519  15.187  0.5318 -0.1088 -0.2356
 2719TIP3    H129648   2.417   3.502  15.274  1.0723 -2.2651 -0.3804
 2719TIP3    H229649   2.376   3.545  15.134  0.1556  0.8919  0.7569
 2720TIP3   OH229650   0.430   6.517   2.650 -0.1559  0.5749 -0.2697
 2720TIP3    H129651   0.523   6.495   2.650 -0.9156 -3.4960  1.2845
 2720TIP3    H229652   0.395   6.471   2.574 -1.4685 -1.7589  1.6249
 2721TIP3   OH229653   1.951   3.271  13.130  0.0833 -0.0567  0.5257
 2721TIP3    H129654   1.951   3.192  13.185  0.4602 -0.0624  0.5178
 2721TIP3    H229655   2.028   3.262  13.074 -0.5714 -0.2869 -0.3511
 2722TIP3   OH229656   2.800   4.065   0.520  0.5701  0.8281  0.1211
 2722TIP3    H129657   2.891   4.097   0.517  0.2932  1.9276  1.9569
 2722TIP3    H229658   2.806   3.974   0.493  1.9109  1.4081 -1.7867
 2723TIP3   OH229659   2.081   5.538  12.843 -0.2842  0.3659 -0.3727
 2723TIP3    H129660   2.091   5.458  12.791  1.4460 -0.4699  1.1262
 2723TIP3    H229661   2.047   5.603  12.782  0.2404 -0.9669 -2.1459
 2724TIP3   OH229662   0.817   5.084  10.763 -0.1810  0.1720 -0.0305
 2724TIP3    H129663   0.793   4.994  10.782 -0.7329  0.1337 -0.8936
 2724TIP3    H229664   0.875   5.078  10.687 -2.0209  0.7017 -1.5230
 2725TIP3   OH229665   2.344   4.853  15.857  0.7033  0.6069 -0.4079
 2725TIP3    H129666   2.278   4.908  15.814  0.4715 -0.5253 -1.5737
 2725TIP3    H229667   2.354   4.891  15.944  0.2925  2.2675 -1.0412
 2726TIP3   OH229668   6.015   1.997  16.273  0.3875  0.8362  0.4521
 2726TIP3    H129669   6.052   1.922  16.226 -0.0127  0.1925  1.1448
 2726TIP3    H229670   6.043   1.986  16.363 -2.2593 -0.2651  1.2449
 2727TIP3   OH229671   2.340   1.381  16.584  0.1567 -0.7399  0.3905
 2727TIP3    H129672   2.310   1.373  16.493  2.7293  1.2795 -0.7841
 2727TIP3    H229673   2.356   1.291  16.612  0.2227 -1.3750 -1.5185
 2728TIP3   OH229674   2.738   6.645  16.045  0.2863 -0.5307  0.8919
 2728TIP3    H129675   2.784   6.724  16.016  1.5034 -0.9028  1.7581
 2728TIP3    H229676   2.654   6.678  16.079  0.3021  0.2582  0.2092
 2729TIP3   OH229677   0.679   0.102   2.049 -0.4523  0.0487 -0.2078
 2729TIP3    H129678   0.616   0.173   2.038 -0.9526 -0.6071 -1.8663
 2729TIP3    H229679   0.626   0.027   2.078  0.1386  0.4249  2.0174
 2730TIP3   OH229680   6.384   2.776  13.774  0.1587 -0.4943 -1.0233
 2730TIP3    H129681   6.319   2.779  13.844 -0.8338  0.1217 -1.9339
 2730TIP3    H229682   6.435   2.697  13.792 -1.2788 -1.3789 -0.6349
 2731TIP3   OH229683   3.545   2.523  11.602  0.2809  0.0832 -0.0064
 2731TIP3    H129684   3.639   2.514  11.587  0.5257  1.8012  0.3441
 2731TIP3    H229685   3.505   2.468  11.534  1.5124  0.2941 -0.9454
 2732TIP3   OH229686   0.717   3.078  10.680  0.3023 -0.5044  0.2944
 2732TIP3    H129687   0.795   3.122  10.645 -1.3956  3.3406  0.8436
 2732TIP3    H229688   0.745   3.044  10.765  1.9033 -1.2365 -0.4790
 2733TIP3   OH229689   5.200   3.487  11.362 -0.0537 -0.1288  0.1370
 2733TIP3    H129690   5.200   3.462  11.270  0.4992  0.6155 -0.0734
 2733TIP3    H229691   5.138   3.426  11.404  1.0254 -1.6405 -0.3985
 2734TIP3   OH229692   4.199   1.073  15.898 -0.7222 -0.3513  0.3170
 2734TIP3    H129693   4.107   1.101  15.906 -0.4141  1.0378 -0.5359
 2734TIP3    H229694   4.195   0.998  15.839 -1.2665  0.1443 -0.3039
 2735TIP3   OH229695   0.229   4.060  16.021  0.1726 -0.5001  0.7767
 2735TIP3    H129696   0.148   4.110  16.029  0.4974  0.2469 -0.4029
 2735TIP3    H229697   0.212   3.996  15.952  0.5234 -0.4581  0.6481
 2736TIP3   OH229698   1.180   6.585   0.915  0.1006  0.4442  0.3329
 2736TIP3    H129699   1.149   6.582   1.005 -1.1459  0.8138 -0.0666
 2736TIP3    H229700   1.124   6.524   0.868  0.5857  0.4264 -0.2335
 2737TIP3   OH229701   3.150   1.626   3.661 -0.0197 -0.2212 -0.1266
 2737TIP3    H129702   3.080   1.607   3.598 -0.2018  0.9943 -0.3263
 2737TIP3    H229703   3.231   1.615   3.611 -0.1402  0.0630 -0.3907
 2738TIP3   OH229704   0.888   5.168   0.659 -0.0983 -0.0295  0.2723
 2738TIP3    H129705   0.936   5.084   0.659 -1.2959 -0.7351 -0.0085
 2738TIP3    H229706   0.892   5.198   0.568  0.9783  0.6277  0.5136
 2739TIP3   OH229707   3.216   1.859   3.198  0.6043 -0.0305  0.6887
 2739TIP3    H129708   3.289   1.860   3.136 -0.0864 -0.1516 -0.1613
 2739TIP3    H229709   3.257   1.859   3.284  1.6554 -1.8672  0.2509
 2740TIP3   OH229710   3.824   3.002  12.941 -0.2514 -0.3049 -0.3744
 2740TIP3    H129711   3.755   3.019  13.005  0.4208  0.2268  0.2214
 2740TIP3    H229712   3.802   3.058  12.866  0.2777  0.9456  0.3709
 2741TIP3   OH229713   1.028   5.752  15.582  0.3117 -1.1749  0.8548
 2741TIP3    H129714   1.022   5.847  15.589  2.6246 -0.9831  1.0736
 2741TIP3    H229715   1.027   5.721  15.672 -1.0707 -1.4465  0.7676
 2742TIP3   OH229716   6.711   3.576   3.290  0.6762 -0.2769 -0.3451
 2742TIP3    H129717   6.663   3.513   3.343  1.7759 -0.8618 -0.0088
 2742TIP3    H229718   6.786   3.527   3.257  1.3224  0.7409 -0.4228
 2743TIP3   OH229719   4.274   1.703   2.085  0.1938  0.3046 -0.4117
 2743TIP3    H129720   4.343   1.752   2.040 -0.0131  0.3454 -0.6855
 2743TIP3    H229721   4.197   1.760   2.080  0.5956  1.0938  1.5246
 2744TIP3   OH229722   0.460   1.423   4.375 -0.1558  0.7258  0.0568
 2744TIP3    H129723   0.513   1.494   4.338 -2.0830  1.5445 -1.2917
 2744TIP3    H229724   0.413   1.465   4.448 -0.2051  0.4566  0.1781
 2745TIP3   OH229725   2.076   0.967  15.976 -0.3827 -0.4254  0.7931
 2745TIP3    H129726   2.171   0.980  15.969 -0.3148 -0.5679  1.3703
 2745TIP3    H229727   2.058   0.889  15.924 -0.2742 -0.0444  0.1811
 2746TIP3   OH229728   2.069   5.523   2.617 -0.6375 -0.1576 -0.1077
 2746TIP3    H129729   2.128   5.511   2.542 -1.0069 -1.0217 -0.2685
 2746TIP3    H229730   2.127   5.540   2.690 -0.0863 -2.0819 -0.0416
 2747TIP3   OH229731   5.780   0.954  10.454  0.0688  0.0628 -0.1298
 2747TIP3    H129732   5.872   0.977  10.470  0.5598  0.1368 -2.6780
 2747TIP3    H229733   5.775   0.940  10.360 -3.0366  2.3471 -0.4594
 2748TIP3   OH229734   1.247   6.721   2.980  0.2857 -0.4477 -0.2969
 2748TIP3    H129735   1.273   6.787   2.915  1.0114 -1.1473 -0.7417
 2748TIP3    H229736   1.245   6.639   2.931  0.1655 -0.8820  0.4222
 2749TIP3   OH229737   1.272   6.385   3.673  0.1955 -0.2797 -0.1205
 2749TIP3    H129738   1.320   6.467   3.665  0.7702 -0.1821  3.1107
 2749TIP3    H229739   1.326   6.321   3.626  0.5839  0.8558 -1.2703
 2750TIP3   OH229740   6.274   3.391   1.279  0.2830 -0.3885  0.5209
 2750TIP3    H129741   6.183   3.412   1.258 -0.2996  1.1347  3.8554
 2750TIP3    H229742   6.275   3.296   1.288 -0.2191 -0.7444 -2.2270
 2751TIP3   OH229743   3.511   0.814   0.348 -0.4825 -0.3325  0.0506
 2751TIP3    H129744   3.475   0.733   0.385 -1.9901  0.5588  0.6274
 2751TIP3    H229745   3.435   0.868   0.329  0.4991  1.2241  0.3062
 2752TIP3   OH229746   0.719   3.443  16.327 -0.0331  0.3525 -0.4531
 2752TIP3    H129747   0.721   3.536  16.304 -0.5150 -0.0115 -2.0314
 2752TIP3    H229748   0.699   3.398  16.246 -1.0810 -1.0603  0.5413
 2753TIP3   OH229749   1.666   5.565  14.606 -0.4926  0.3062  0.3337
 2753TIP3    H129750   1.589   5.540  14.554 -1.8088 -0.3614  2.4991
 2753TIP3    H229751   1.703   5.481  14.636  2.1413  0.4878 -1.9676
 2754TIP3   OH229752   4.423   0.611  13.559  0.3843 -0.4934 -0.1640
 2754TIP3    H129753   4.496   0.646  13.611 -0.1433 -0.5313  0.6183
 2754TIP3    H229754   4.432   0.516  13.567  0.4666 -0.5029 -0.3748
 2755TIP3   OH229755   2.164   0.223  11.221  0.4643  0.3823  0.5373
 2755TIP3    H129756   2.223   0.154  11.252 -0.0638 -1.1866 -1.6318
 2755TIP3    H229757   2.118   0.253  11.299  1.5829 -0.8922  1.7468
 2756TIP3   OH229758   2.528   0.783   3.006  0.0629 -0.3904  0.1221
 2756TIP3    H129759   2.600   0.833   3.046  2.1204 -2.7399 -0.3951
 2756TIP3    H229760   2.460   0.781   3.073  1.1185  0.5309  1.2745
 2757TIP3   OH229761   1.798   5.810  13.131 -0.0903  0.3762  0.5269
 2757TIP3    H129762   1.707   5.812  13.102 -0.3524 -1.6156  1.0929
 2757TIP3    H229763   1.848   5.799  13.051 -0.3490  1.2144  0.2382
 2758TIP3   OH229764   3.127   5.640   1.407 -0.4335 -0.4016  0.6257
 2758TIP3    H129765   3.101   5.603   1.322 -1.2542 -0.2493  0.8027
 2758TIP3    H229766   3.200   5.698   1.386 -1.8949  1.1766 -0.2851
 2759TIP3   OH229767   5.478   2.122   0.420  0.3382  0.2545  0.6133
 2759TIP3    H129768   5.481   2.213   0.448  3.0521  0.0630  1.2595
 2759TIP3    H229769   5.389   2.109   0.387  0.1350  3.3529 -0.3154
 2760TIP3   OH229770   6.482   4.985   2.012  0.7026 -0.4425  0.1377
 2760TIP3    H129771   6.545   4.948   2.074  1.4498 -0.4502 -0.6217
 2760TIP3    H229772   6.526   5.062   1.975 -0.0199 -0.0177  0.1376
 2761TIP3   OH229773   0.017   1.057   6.610 -0.7380 -0.1530  0.4124
 2761TIP3    H129774   0.067   1.031   6.533 -0.4129 -0.3095  0.6718
 2761TIP3    H229775  -0.014   1.145   6.591 -1.3491 -0.4954 -0.2351
 2762TIP3   OH229776   6.215   5.002  14.076 -0.0578 -0.2820  0.0750
 2762TIP3    H129777   6.258   5.083  14.103 -0.6228  0.3308 -0.8379
 2762TIP3    H229778   6.266   4.933  14.118 -1.3130  0.6033  3.4103
 2763TIP3   OH229779   4.289   5.918   3.411  0.2458  0.2514 -0.0752
 2763TIP3    H129780   4.273   5.830   3.445 -0.4704  0.9562  1.5497
 2763TIP3    H229781   4.270   5.976   3.485  0.0954  1.8184 -1.2841
 2764TIP3   OH229782   6.033   3.148   4.898 -0.5626  0.8371  0.0878
 2764TIP3    H129783   6.058   3.136   4.806 -0.2627  0.2390  0.2380
 2764TIP3    H229784   5.984   3.230   4.900 -1.0032  0.6016 -0.6921
 2765TIP3   OH229785   0.006   5.440  16.742  0.1696  0.0826  0.6274
 2765TIP3    H129786   0.065   5.367  16.760 -0.1014  0.1150  1.6891
 2765TIP3    H229787  -0.073   5.399  16.707 -0.3238 -0.2331  2.0475
 2766TIP3   OH229788   4.227   1.066  14.977  0.3145  0.1759 -0.8762
 2766TIP3    H129789   4.321   1.048  14.972 -0.2189 -3.5190 -0.8320
 2766TIP3    H229790   4.211   1.081  15.071  0.9486  1.8900 -1.0110
 2767TIP3   OH229791   0.651   2.974   5.675  0.8971 -0.1205  0.2395
 2767TIP3    H129792   0.688   2.910   5.735  0.2355 -0.9112 -0.1790
 2767TIP3    H229793   0.585   2.925   5.625 -1.4587  1.4139  1.6326
 2768TIP3   OH229794   4.104   5.397  10.612 -0.7855  0.7959  0.0232
 2768TIP3    H129795   4.098   5.490  10.593 -0.6344  0.8175  0.0831
 2768TIP3    H229796   4.171   5.363  10.553 -1.0433  0.6700 -0.1987
 2769TIP3   OH229797   1.823   1.407  12.711 -0.3574 -0.0079 -0.5823
 2769TIP3    H129798   1.898   1.432  12.657  0.5894 -0.4960  0.4690
 2769TIP3    H229799   1.776   1.490  12.726 -0.0385  0.2984 -1.2518
 2770TIP3   OH229800   4.396   5.773  13.559 -0.1872 -0.5905  0.0834
 2770TIP3    H129801   4.322   5.758  13.618 -0.7864  0.0568 -0.4788
 2770TIP3    H229802   4.466   5.806  13.616 -0.5472 -0.5851  0.5240
 2771TIP3   OH229803   4.746   3.952   5.459  0.3260  0.9082 -0.6845
 2771TIP3    H129804   4.678   3.996   5.510 -1.7961 -3.3463  0.6857
 2771TIP3    H229805   4.805   3.916   5.525  0.9231  0.2240 -1.5789
 2772TIP3   OH229806   3.313   0.919  10.181  1.1263  0.3697 -0.3390
 2772TIP3    H129807   3.225   0.900  10.214  1.4042 -0.4580 -0.0506
 2772TIP3    H229808   3.306   1.007  10.144 -0.1694 -0.2216 -1.5727
 2773TIP3   OH229809   3.656   6.582  13.863 -0.1194 -0.3553  0.2725
 2773TIP3    H129810   3.680   6.675  13.855 -2.0231  0.2873  1.4140
 2773TIP3    H229811   3.740   6.536  13.862  0.9723  1.4951  1.1045
 2774TIP3   OH229812   4.138   1.030   3.515 -0.6825 -0.0522 -0.3069
 2774TIP3    H129813   4.094   1.016   3.599  1.2698 -0.1394  0.7501
 2774TIP3    H229814   4.152   1.124   3.510 -3.5710  0.4005 -2.0717
 2775TIP3   OH229815   5.157   1.120   6.249  0.2523  0.4665  0.2301
 2775TIP3    H129816   5.236   1.128   6.303  0.8612  3.7735 -0.8975
 2775TIP3    H229817   5.095   1.181   6.288 -0.4217  0.5686 -0.9516
 2776TIP3   OH229818   3.041   2.910   3.146  0.5479  1.1823  0.0198
 2776TIP3    H129819   2.975   2.977   3.162  0.3435  1.0475 -0.2571
 2776TIP3    H229820   2.992   2.835   3.111  0.7994  0.9578  0.1418
 2777TIP3   OH229821   3.515   2.007  16.329  0.5314  0.2398  0.0027
 2777TIP3    H129822   3.434   2.046  16.296  1.2027  1.5594 -0.1847
 2777TIP3    H229823   3.564   2.081  16.364  0.6877 -0.8423  2.2247
 2778TIP3   OH229824   5.722   5.112   3.956  0.4557 -0.4685 -0.3727
 2778TIP3    H129825   5.668   5.123   3.877 -0.2398 -2.0002 -0.1465
 2778TIP3    H229826   5.661   5.081   4.022  1.2717 -0.3337  0.4522
 2779TIP3   OH229827   0.195   3.381   5.832  0.6678  0.6428  0.6748
 2779TIP3    H129828   0.110   3.339   5.839  1.0057 -0.4762 -1.2488
 2779TIP3    H229829   0.250   3.335   5.896 -0.0132  1.0335  1.5632
 2780TIP3   OH229830   2.486   2.114  14.380  0.0473 -0.4433  0.2764
 2780TIP3    H129831   2.395   2.128  14.357  0.0481  0.9795  0.9931
 2780TIP3    H229832   2.511   2.034  14.334 -0.8430  0.5010 -1.9527
 2781TIP3   OH229833   4.662   4.704   2.591  0.1036 -0.1567  0.2945
 2781TIP3    H129834   4.751   4.686   2.561 -0.2676  1.6986 -2.1988
 2781TIP3    H229835   4.612   4.627   2.565  0.5158 -0.1384 -0.5721
 2782TIP3   OH229836   4.520   3.179   1.793  0.4193  0.7187  0.3220
 2782TIP3    H129837   4.532   3.270   1.765  2.3278  0.5106  0.3631
 2782TIP3    H229838   4.581   3.168   1.865 -0.6114 -0.3034  1.0734
 2783TIP3   OH229839   2.172   4.709  17.193 -0.0509 -0.3925  0.3103
 2783TIP3    H129840   2.258   4.712  17.151 -1.2040  2.0389 -2.2059
 2783TIP3    H229841   2.112   4.684  17.123 -1.8933  2.3625  0.7328
 2784TIP3   OH229842   3.686   1.204  17.070 -0.1483 -0.8119 -0.1836
 2784TIP3    H129843   3.685   1.251  17.153  0.5219  0.0905 -0.6765
 2784TIP3    H229844   3.778   1.182  17.056 -0.4413 -2.3095  0.0458
 2785TIP3   OH229845   3.155   2.682  17.185 -0.2702 -0.5398 -0.1441
 2785TIP3    H129846   3.211   2.706  17.259 -1.5629  0.0606  0.6848
 2785TIP3    H229847   3.155   2.760  17.129  0.0448 -0.6830 -0.3396
 2786TIP3   OH229848   1.710   1.206   5.415 -0.8150  0.1145  0.1925
 2786TIP3    H129849   1.654   1.154   5.357 -0.5682 -1.4980  1.3426
 2786TIP3    H229850   1.731   1.148   5.487  1.3076  1.1003  0.4465
 2787TIP3   OH229851   0.928   5.478   3.688  0.3924 -0.0973 -0.5998
 2787TIP3    H129852   0.891   5.395   3.718 -0.4206  0.2762 -0.5450
 2787TIP3    H229853   0.987   5.505   3.759 -0.8071  0.3161  0.2635
 2788TIP3   OH229854   1.612   4.107  15.498 -0.5154  0.0774 -0.5290
 2788TIP3    H129855   1.530   4.080  15.539 -2.0918  0.4458 -3.1678
 2788TIP3    H229856   1.593   4.194  15.462  1.7822  1.1572  0.6427
 2789TIP3   OH229857   3.990   5.126  12.882  0.0681 -0.7997 -0.0171
 2789TIP3    H129858   4.078   5.102  12.853  0.0789  0.6546 -1.3168
 2789TIP3    H229859   3.935   5.112  12.805 -0.1773  1.7155 -0.3871
 2790TIP3   OH229860   4.417   3.807   2.209  0.2607 -0.3261 -0.1409
 2790TIP3    H129861   4.440   3.867   2.281 -0.5027 -0.4168  0.1840
 2790TIP3    H229862   4.363   3.859   2.151 -2.8397 -1.4070  1.5655
 2791TIP3   OH229863   4.782   0.733  12.373  0.9693  0.1460  0.2188
 2791TIP3    H129864   4.790   0.695  12.286 -0.5234  0.3761 -0.0443
 2791TIP3    H229865   4.698   0.778  12.372  1.0995  0.4755  1.6620
 2792TIP3   OH229866   3.345   4.239   3.183  0.2707 -0.7941 -0.0157
 2792TIP3    H129867   3.389   4.198   3.257  3.1773  1.4263 -0.3316
 2792TIP3    H229868   3.336   4.170   3.118 -2.5737 -2.8675  2.3315
 2793TIP3   OH229869   1.055   2.242  16.339 -0.0305  0.1394  0.0092
 2793TIP3    H129870   1.056   2.292  16.257  0.8641 -1.2049 -0.8359
 2793TIP3    H229871   1.060   2.309  16.408  0.8171  1.2367 -1.0656
 2794TIP3   OH229872   4.536   1.508  10.532  0.3409 -0.2761 -0.1331
 2794TIP3    H129873   4.496   1.594  10.519 -1.0342 -0.5378  1.9399
 2794TIP3    H229874   4.543   1.472  10.444 -1.0478  1.1038 -0.8601
 2795TIP3   OH229875   0.646   2.738   5.069  0.3842 -0.0563 -0.3244
 2795TIP3    H129876   0.670   2.649   5.044 -0.2246  0.2544 -2.2262
 2795TIP3    H229877   0.727   2.788   5.056  0.1270  0.0639 -1.6175
 2796TIP3   OH229878   0.087   4.241   2.934  0.4381 -0.1442  0.3777
 2796TIP3    H129879   0.119   4.170   2.878 -1.8012  1.2007 -2.9533
 2796TIP3    H229880   0.003   4.209   2.966 -0.5299  0.8232 -1.0515
 2797TIP3   OH229881   5.163   5.392   1.118  0.1761  0.3617  0.0365
 2797TIP3    H129882   5.116   5.350   1.190 -0.9760 -1.1534 -1.5411
 2797TIP3    H229883   5.206   5.468   1.159 -3.6835  1.9590  1.5866
 2798TIP3   OH229884   6.292   3.939   0.245  0.5611  0.3477  0.4493
 2798TIP3    H129885   6.271   4.013   0.303 -1.9554 -0.2946  0.5085
 2798TIP3    H229886   6.321   3.870   0.305 -0.2114  0.2870  0.7692
 2799TIP3   OH229887   6.255   6.725   5.761  0.4039  0.2061 -0.3766
 2799TIP3    H129888   6.162   6.746   5.754  0.1216 -0.3364  1.3561
 2799TIP3    H229889   6.266   6.695   5.851  2.2996  0.4148 -0.5088
 2800TIP3   OH229890   0.223   2.376   4.514  1.3517  0.3420  0.2170
 2800TIP3    H129891   0.273   2.345   4.439  0.7586  2.1079 -0.9890
 2800TIP3    H229892   0.138   2.333   4.506  2.4496 -2.3836  2.0660
 2801TIP3   OH229893   0.512   0.081  13.654 -0.1444  0.2697 -0.6747
 2801TIP3    H129894   0.466  -0.002  13.666 -0.6360  0.5901 -0.3023
 2801TIP3    H229895   0.604   0.059  13.669 -0.3201 -0.1232 -0.1343
 2802TIP3   OH229896   5.210   6.377   0.018  0.2691 -0.2520 -0.3810
 2802TIP3    H129897   5.261   6.417  -0.053 -0.3144 -0.2403 -0.8030
 2802TIP3    H229898   5.264   6.305   0.049  0.9930  0.3840 -0.1346
 2803TIP3   OH229899   5.148   1.720  14.968  0.2327 -0.0317  0.2143
 2803TIP3    H129900   5.092   1.792  14.997 -0.0026  0.5939 -1.6328
 2803TIP3    H229901   5.155   1.662  15.044 -0.9242  1.1055  1.2304
 2804TIP3   OH229902   6.030   0.190   2.425 -0.5624  0.2936  0.4387
 2804TIP3    H129903   5.990   0.130   2.362 -1.7519  0.9469  0.5333
 2804TIP3    H229904   6.025   0.143   2.509 -2.2305  0.8051  0.6619
 2805TIP3   OH229905   5.676   1.811   2.621 -0.2062 -0.2932 -0.0958
 2805TIP3    H129906   5.628   1.828   2.702  0.3927  0.4942  0.1017
 2805TIP3    H229907   5.763   1.785   2.650  0.5131  1.5226 -0.4866
 2806TIP3   OH229908   1.376   4.489  11.515 -0.2809 -0.0147  0.2151
 2806TIP3    H129909   1.362   4.398  11.543 -0.8012  0.4709  1.6259
 2806TIP3    H229910   1.311   4.502  11.445  1.4674 -1.4459 -1.8322
 2807TIP3   OH229911   6.441   4.044   4.283 -0.3512 -0.0172 -0.9515
 2807TIP3    H129912   6.523   4.074   4.244 -0.3008  1.2404  0.0519
 2807TIP3    H229913   6.425   4.105   4.354 -0.9895 -1.5781  0.3199
 2808TIP3   OH229914   2.176   0.313  15.753 -0.0638 -0.0995  0.1147
 2808TIP3    H129915   2.185   0.387  15.814 -0.5417  0.0998 -0.0482
 2808TIP3    H229916   2.132   0.245  15.803  1.4387 -0.7406  0.6368
 2809TIP3   OH229917   6.276   6.409   5.859 -0.4273 -0.2132 -0.0235
 2809TIP3    H129918   6.322   6.471   5.915 -1.6664 -0.3135  1.1435
 2809TIP3    H229919   6.189   6.448   5.847 -1.2803 -1.7561  0.8468
 2810TIP3   OH229920   1.876   4.061  10.902 -0.0413  0.7300  0.1526
 2810TIP3    H129921   1.872   4.153  10.929 -0.0781  0.8335 -0.1883
 2810TIP3    H229922   1.965   4.034  10.921 -0.5906  0.2114  2.1948
 2811TIP3   OH229923   3.057   3.540  14.004  0.6633 -0.1042  0.2000
 2811TIP3    H129924   3.024   3.609  14.060  0.4751  0.9378 -1.1569
 2811TIP3    H229925   3.091   3.585  13.926  2.4927 -1.3568  0.1971
 2812TIP3   OH229926   6.483   1.430  11.325 -0.2919  0.1292  0.2662
 2812TIP3    H129927   6.472   1.514  11.281  1.9858  0.5296  0.3098
 2812TIP3    H229928   6.570   1.436  11.366 -0.7899 -1.6112  1.7031
 2813TIP3   OH229929   4.592   6.332   2.589 -0.4953 -0.1174 -0.3034
 2813TIP3    H129930   4.565   6.423   2.602  1.5065  0.1980  2.6845
 2813TIP3    H229931   4.515   6.280   2.612 -1.3156  0.7661 -0.9527
 2814TIP3   OH229932   6.440   1.756   5.407  0.1358 -0.1936 -0.0624
 2814TIP3    H129933   6.376   1.745   5.478  0.1232  0.7701  0.0886
 2814TIP3    H229934   6.524   1.763   5.452 -0.1147  2.9401  0.0980
 2815TIP3   OH229935   2.341   3.030   2.101  0.7262 -0.5447 -0.5704
 2815TIP3    H129936   2.350   3.108   2.155 -1.9944 -1.6926  1.7277
 2815TIP3    H229937   2.426   2.987   2.108  0.7472 -0.2257  2.2046
 2816TIP3   OH229938   3.344   5.210   2.231 -0.4424  0.0025 -0.4489
 2816TIP3    H129939   3.284   5.250   2.294 -1.6537 -0.9522 -0.9562
 2816TIP3    H229940   3.321   5.117   2.232  0.2773 -0.1966 -1.4756
 2817TIP3   OH229941   2.113   3.145  14.661  0.0061  0.3487  0.3760
 2817TIP3    H129942   2.118   3.079  14.731  0.7782 -0.0056  0.0047
 2817TIP3    H229943   2.063   3.101  14.591 -0.7138  0.6810  0.6727
 2818TIP3   OH229944   2.543   4.298  11.781 -0.0365  0.5406 -0.3752
 2818TIP3    H129945   2.603   4.326  11.712  1.0843 -0.8445  0.0043
 2818TIP3    H229946   2.597   4.295  11.860 -0.3920 -1.4470 -0.1653
 2819TIP3   OH229947   1.605   0.212   2.605  0.0753 -0.2599 -0.9094
 2819TIP3    H129948   1.554   0.291   2.623 -2.1435 -1.6152 -0.8118
 2819TIP3    H229949   1.651   0.193   2.687 -1.0977 -0.2368 -0.2224
 2820TIP3   OH229950   2.164   5.709  10.853  0.4964 -0.1266  1.0422
 2820TIP3    H129951   2.235   5.698  10.789 -0.3829 -0.3475  0.0755
 2820TIP3    H229952   2.087   5.729  10.800  0.2199  2.1999  2.1653
 2821TIP3   OH229953   3.007   1.313   2.339 -0.1256  0.1381 -0.5909
 2821TIP3    H129954   2.971   1.227   2.316  0.4077 -0.1553 -0.3476
 2821TIP3    H229955   3.101   1.297   2.350  0.1662  0.9882 -1.6991
 2822TIP3   OH229956   3.218   1.500   1.691  0.1800  0.1455 -0.4226
 2822TIP3    H129957   3.164   1.561   1.642 -0.9935 -0.0821  0.5352
 2822TIP3    H229958   3.191   1.511   1.782 -0.7293 -2.3835 -0.3056
 2823TIP3   OH229959   3.830   4.251   1.386  0.1628  0.0487 -0.1092
 2823TIP3    H129960   3.757   4.284   1.439  1.1362  2.5714 -0.2120
 2823TIP3    H229961   3.908   4.281   1.432  1.2720 -3.2526  0.4293
 2824TIP3   OH229962   0.507   0.581  16.451 -0.7354  0.1805  0.1018
 2824TIP3    H129963   0.559   0.657  16.479 -0.8328  0.3612 -0.2012
 2824TIP3    H229964   0.448   0.564  16.524 -1.2739  0.9065 -0.1466
 2825TIP3   OH229965   5.760   0.525  15.744  0.4144 -0.3873 -0.0538
 2825TIP3    H129966   5.778   0.545  15.836 -2.5724  0.1941  0.5022
 2825TIP3    H229967   5.842   0.546  15.699  0.8316  3.0836  1.9614
 2826TIP3   OH229968   0.022   4.723   5.667 -0.3108  0.1409  0.3467
 2826TIP3    H129969  -0.050   4.781   5.693 -0.6099 -0.8768  1.9201
 2826TIP3    H229970   0.080   4.721   5.743  0.7504 -0.0380 -0.4424
 2827TIP3   OH229971   2.476   0.640   0.729 -0.3372 -0.2403 -0.0183
 2827TIP3    H129972   2.382   0.623   0.735 -0.1918 -1.1512 -0.1677
 2827TIP3    H229973   2.491   0.715   0.787 -1.4751  1.2950 -1.6155
 2828TIP3   OH229974   4.621   0.775   3.060 -0.5648 -0.5588 -0.0217
 2828TIP3    H129975   4.551   0.826   3.018 -0.7762 -0.4038  0.5179
 2828TIP3    H229976   4.632   0.699   3.003 -0.6704 -0.2231 -0.5023
 2829TIP3   OH229977   5.511   0.323   1.695  0.1699 -0.2474  0.3472
 2829TIP3    H129978   5.584   0.368   1.738 -0.9968  1.9859  0.1482
 2829TIP3    H229979   5.499   0.370   1.613  1.0517 -3.1684 -1.5905
 2830TIP3   OH229980   3.348   1.989   6.437  0.1825 -0.5292 -0.6061
 2830TIP3    H129981   3.434   2.031   6.429  0.7285 -1.6622 -0.8025
 2830TIP3    H229982   3.367   1.902   6.471 -1.0524 -0.1861  1.0627
 2831TIP3   OH229983   5.320   5.231  13.714  0.3949  0.0818 -0.5595
 2831TIP3    H129984   5.278   5.299  13.767 -0.3047 -1.1419  0.4996
 2831TIP3    H229985   5.365   5.280  13.644 -2.5470  1.4962 -1.6294
 2832TIP3   OH229986   6.592   2.664   1.454  0.0043 -0.4225 -0.0318
 2832TIP3    H129987   6.628   2.585   1.495  0.2555 -0.1904  0.2011
 2832TIP3    H229988   6.557   2.715   1.528 -1.2396 -0.8496 -0.2871
 2833TIP3   OH229989   1.000   3.719   5.986  0.1446  0.6231 -0.0595
 2833TIP3    H129990   1.020   3.697   5.895  0.9374  0.9064  0.0354
 2833TIP3    H229991   0.926   3.780   5.980  0.0017  0.4081 -0.4986
 2834TIP3   OH229992   1.086   0.943  16.845 -0.2162  0.5173 -0.5159
 2834TIP3    H129993   1.046   1.019  16.888 -1.0457  0.6000 -1.3959
 2834TIP3    H229994   1.160   0.919  16.902 -0.2360  1.6803  0.0237
 2835TIP3   OH229995   2.736   0.183   5.235  0.1556  0.5222 -0.1781
 2835TIP3    H129996   2.757   0.276   5.245  1.7782  0.3329 -1.4937
 2835TIP3    H229997   2.660   0.181   5.178 -0.1480  1.0384  0.1978
 2836TIP3   OH229998   5.105   5.741  15.999 -0.1592 -0.5294  0.4551
 2836TIP3    H129999   5.047   5.710  15.929 -0.7808  1.6793 -0.0913
 2836TIP3    H230000   5.149   5.817  15.961  1.4472 -0.8350  1.6306
 2837TIP3   OH230001   2.293   5.765   1.909  0.4077 -0.0656  0.1468
 2837TIP3    H130002   2.258   5.708   1.978 -0.2687 -0.3818 -0.4481
 2837TIP3    H230003   2.380   5.789   1.940  0.8452 -1.6842  0.2642
 2838TIP3   OH230004   1.377   3.504   6.290  0.0075  0.0667  0.1664
 2838TIP3    H130005   1.426   3.464   6.362 -0.5933 -0.5454  0.2475
 2838TIP3    H230006   1.444   3.541   6.233  0.8237 -3.1228 -1.1820
 2839TIP3   OH230007   0.638   4.897   5.024  0.1061  0.0856  0.2241
 2839TIP3    H130008   0.724   4.905   4.982  0.3872  1.7917  1.0365
 2839TIP3    H230009   0.655   4.849   5.105  0.2449  0.2387  0.2840
 2840TIP3   OH230010   6.326   1.533  14.298  0.1815 -0.5575 -0.0291
 2840TIP3    H130011   6.290   1.517  14.385 -1.7585  0.7527 -0.5369
 2840TIP3    H230012   6.403   1.588  14.313 -0.9065  0.7963  0.8066
 2841TIP3   OH230013   3.074   0.869  15.824  0.7290 -0.5048  0.1774
 2841TIP3    H130014   3.029   0.806  15.767 -2.1347  1.7875 -0.3312
 2841TIP3    H230015   3.125   0.923  15.764 -0.0005  0.1120  0.0981
 2842TIP3   OH230016   4.328   6.073  16.901 -0.1849 -0.8577  0.2972
 2842TIP3    H130017   4.320   6.037  16.812 -0.7355 -1.6888  0.6654
 2842TIP3    H230018   4.406   6.128  16.898 -1.7519  1.4951 -1.4745
 2843TIP3   OH230019   6.706   2.081  10.439  0.2419  0.1439  0.2988
 2843TIP3    H130020   6.661   2.001  10.466  0.7980 -0.6582 -1.0537
 2843TIP3    H230021   6.796   2.054  10.422  0.4091  1.0256 -0.2850
 2844TIP3   OH230022   1.317   0.800   1.700 -0.2619  0.3874  0.1867
 2844TIP3    H130023   1.295   0.837   1.785 -0.5239  0.0319  0.2786
 2844TIP3    H230024   1.399   0.752   1.715 -0.8832 -0.5980  0.5085
 2845TIP3   OH230025   0.333   4.953  13.130 -0.6209 -0.2715  0.7182
 2845TIP3    H130026   0.317   5.046  13.117  0.1061 -0.2782 -0.3891
 2845TIP3    H230027   0.415   4.949  13.179 -0.2108 -0.3272  0.0414
 2846TIP3   OH230028   3.752   5.934   4.637 -0.3822  0.3903  0.2172
 2846TIP3    H130029   3.769   5.972   4.551 -0.4755 -0.2001 -0.0643
 2846TIP3    H230030   3.733   5.842   4.620  0.6418  0.0202  0.9723
 2847TIP3   OH230031   4.416   5.106   4.521  0.1685  0.4212 -0.8566
 2847TIP3    H130032   4.433   5.101   4.615 -1.4844  2.2085 -0.4009
 2847TIP3    H230033   4.396   5.015   4.496  2.2590 -0.3806  0.1028
 2848TIP3   OH230034   0.268   3.280  13.537 -0.1950 -0.3784 -0.2408
 2848TIP3    H130035   0.244   3.359  13.487 -2.0381 -1.5099 -1.2634
 2848TIP3    H230036   0.205   3.278  13.609  1.4910  0.4146  1.3437
 2849TIP3   OH230037   4.348   1.295  14.684  0.0674  0.1488 -0.2937
 2849TIP3    H130038   4.394   1.250  14.755 -0.8121 -0.4053 -0.0673
 2849TIP3    H230039   4.383   1.255  14.604 -0.1088 -0.3616 -0.1192
 2850TIP3   OH230040   1.714   6.509   1.796 -0.0301 -0.2446  0.5623
 2850TIP3    H130041   1.702   6.445   1.726 -0.5814  0.1752  0.2601
 2850TIP3    H230042   1.692   6.593   1.756  1.6109  0.2828  0.6784
 2851TIP3   OH230043   2.635   1.401   0.729 -0.7334 -0.0238 -0.2432
 2851TIP3    H130044   2.573   1.329   0.720 -1.3002  0.1192  1.8852
 2851TIP3    H230045   2.697   1.389   0.657 -0.7254 -2.7230  0.1106
 2852TIP3   OH230046   2.813   3.750  16.689  0.5165 -0.8712  0.0484
 2852TIP3    H130047   2.761   3.722  16.764 -2.5357 -0.0281 -1.5844
 2852TIP3    H230048   2.860   3.827  16.720 -0.8825 -0.3748  1.0787
 2853TIP3   OH230049   3.761   2.978   2.650 -0.1900  0.1919 -0.2460
 2853TIP3    H130050   3.843   3.026   2.642 -0.0048  0.0977  0.9175
 2853TIP3    H230051   3.788   2.886   2.658 -0.1271  0.4018  3.4961
 2854TIP3   OH230052   0.883   1.589   4.040  0.4070 -0.4885 -0.6681
 2854TIP3    H130053   0.849   1.541   3.966 -0.8834 -0.7954  0.1021
 2854TIP3    H230054   0.811   1.646   4.068 -0.2129 -2.4114  2.0825
 2855TIP3   OH230055   2.843   0.550  17.088 -0.1176 -0.0887 -0.1295
 2855TIP3    H130056   2.874   0.508  17.169  0.1354  1.6525  0.7083
 2855TIP3    H230057   2.920   0.594  17.053 -0.8791  1.6660  0.3026
 2856TIP3   OH230058   2.825   1.549  15.525 -0.4592  0.6351 -0.4026
 2856TIP3    H130059   2.821   1.600  15.605 -0.7606  1.6540 -1.0428
 2856TIP3    H230060   2.771   1.598  15.463  0.9972  0.7048 -1.6751
 2857TIP3   OH230061   2.534   1.484   3.418 -0.2613 -0.1796 -0.0315
 2857TIP3    H130062   2.594   1.558   3.431 -1.6946  1.5897 -2.6219
 2857TIP3    H230063   2.522   1.448   3.506  2.6557  0.8914  0.9352
 2858TIP3   OH230064   6.763   2.044   0.644  0.0408 -0.5330 -0.0721
 2858TIP3    H130065   6.714   2.108   0.592  1.9965  0.5090 -0.7429
 2858TIP3    H230066   6.696   1.996   0.692 -1.6413  0.5729 -1.1950
 2859TIP3   OH230067   2.258   6.012   5.174 -0.1860 -0.2579  0.6338
 2859TIP3    H130068   2.331   6.052   5.126 -1.1335  0.6237 -0.1213
 2859TIP3    H230069   2.227   5.943   5.116  0.2734 -0.8762  1.1185
 2860TIP3   OH230070   4.018   0.673   0.097 -0.1756 -0.0839 -0.3994
 2860TIP3    H130071   4.103   0.674   0.054 -0.8716 -0.0168 -1.8290
 2860TIP3    H230072   3.963   0.730   0.044 -0.9334  0.4629  0.9219
 2861TIP3   OH230073   1.888   6.213  13.759 -0.0210  0.1010  0.3420
 2861TIP3    H130074   1.981   6.216  13.737  0.3175  0.7143  1.7598
 2861TIP3    H230075   1.849   6.159  13.690  1.5241 -0.8947  0.1932
 2862TIP3   OH230076   5.024   2.842  13.619  0.3633 -0.4456  0.3937
 2862TIP3    H130077   4.989   2.784  13.551 -0.0852  2.2093 -1.8042
 2862TIP3    H230078   4.950   2.899  13.641  1.5620  1.2239  0.2374
 2863TIP3   OH230079   1.162   1.098   5.721  0.0306 -0.3380 -0.3630
 2863TIP3    H130080   1.157   1.175   5.778 -0.5540  0.4267 -1.3964
 2863TIP3    H230081   1.113   1.030   5.767  0.6773 -0.1539  0.6335
 2864TIP3   OH230082   6.410   2.015  13.578  0.0942 -0.2393 -0.0271
 2864TIP3    H130083   6.493   1.974  13.551  1.6510  1.8260  1.3345
 2864TIP3    H230084   6.392   2.079  13.509 -2.5716 -3.2199 -2.3890
 2865TIP3   OH230085   0.038   2.117  12.806  0.3131 -0.4753 -0.2004
 2865TIP3    H130086   0.092   2.134  12.729 -1.2629  2.0759 -0.8632
 2865TIP3    H230087   0.079   2.168  12.876  1.0112 -1.7673  0.3609
 2866TIP3   OH230088   0.095   6.418   3.422  0.1494  0.6281 -0.3900
 2866TIP3    H130089   0.025   6.401   3.358  0.5871 -0.4325 -0.6053
 2866TIP3    H230090   0.174   6.426   3.369  0.4126  0.4153 -0.0285
 2867TIP3   OH230091   1.427   3.516   4.780  0.2319 -0.1619  0.2647
 2867TIP3    H130092   1.345   3.538   4.825  0.1573  0.1664 -0.0352
 2867TIP3    H230093   1.488   3.584   4.808  1.0594 -1.6197  2.2655
 2868TIP3   OH230094   4.958   5.680  16.481  0.0524 -0.4780  0.2014
 2868TIP3    H130095   4.987   5.751  16.539 -0.7478  0.1574 -0.1694
 2868TIP3    H230096   5.021   5.681  16.409 -0.9938  1.0833 -0.7425
 2869TIP3   OH230097   1.157   5.609   6.058 -0.2841  0.3647  0.2754
 2869TIP3    H130098   1.158   5.572   5.969 -2.2488  0.0503  0.3358
 2869TIP3    H230099   1.093   5.556   6.105  1.0678  0.2245  2.0536
 2870TIP3   OH230100   4.626   3.713   3.069 -0.6091  0.0193  0.5477
 2870TIP3    H130101   4.717   3.684   3.072 -0.4933  0.3845  0.5943
 2870TIP3    H230102   4.582   3.646   3.016 -0.5478 -0.7730  1.4763
 2871TIP3   OH230103   3.584   1.181  12.703  0.3775 -0.2331 -0.0083
 2871TIP3    H130104   3.567   1.136  12.620  2.0295 -0.6464 -0.1703
 2871TIP3    H230105   3.626   1.263  12.676  0.2125 -0.0160  0.3964
 2872TIP3   OH230106   5.620   2.426   0.740  0.6588 -0.3021  0.2704
 2872TIP3    H130107   5.651   2.338   0.717 -2.2381 -1.8405  1.7205
 2872TIP3    H230108   5.574   2.456   0.661  1.8999  0.1211 -0.3307
 2873TIP3   OH230109   5.767   3.199  12.946  0.1290  0.8111 -0.0558
 2873TIP3    H130110   5.706   3.212  12.874  0.8418  1.6301 -0.5414
 2873TIP3    H230111   5.775   3.286  12.986  0.0030  0.4415  0.8081
 2874TIP3   OH230112   4.035   0.826  13.739 -0.0794  0.3498  0.0147
 2874TIP3    H130113   4.003   0.910  13.773 -1.0698 -1.0579  2.8547
 2874TIP3    H230114   4.100   0.797  13.803  0.5936 -0.8631 -1.1574
 2875TIP3   OH230115   3.232   2.468  17.034  0.1729 -0.1336  0.1457
 2875TIP3    H130116   3.196   2.403  17.093  0.9995 -0.7127  0.0194
 2875TIP3    H230117   3.215   2.552  17.077  0.9506 -0.5581  1.2944
 2876TIP3   OH230118   5.213   4.533   2.402  0.5311  0.4407  0.0089
 2876TIP3    H130119   5.239   4.597   2.336  1.1514  0.0506 -0.1241
 2876TIP3    H230120   5.270   4.550   2.477  1.2324 -0.4591 -0.3084
 2877TIP3   OH230121   5.797   2.112  16.192  0.2228  0.0190  0.3927
 2877TIP3    H130122   5.888   2.082  16.201 -0.4192 -2.3076 -0.1532
 2877TIP3    H230123   5.745   2.036  16.218 -1.5834  1.3403  0.7610
 2878TIP3   OH230124   1.424   1.956   1.561  0.4098  0.5103 -0.0293
 2878TIP3    H130125   1.337   1.919   1.574  1.5178 -2.4002 -0.1685
 2878TIP3    H230126   1.409   2.050   1.550 -2.6936  0.0902 -0.2076
 2879TIP3   OH230127   0.419   0.620  14.180 -0.2271  0.3370  0.1329
 2879TIP3    H130128   0.421   0.693  14.242 -1.5785  0.6307 -0.1505
 2879TIP3    H230129   0.447   0.544  14.232 -2.2204  0.4002  1.3774
 2880TIP3   OH230130   2.024   1.812   1.902  1.0339 -0.0307 -0.6126
 2880TIP3    H130131   1.992   1.821   1.992  0.9176 -1.3840 -0.4962
 2880TIP3    H230132   1.986   1.730   1.871  2.3331 -0.3675 -1.3666
 2881TIP3   OH230133   5.418   1.481  12.259  0.5649 -0.0749  0.0484
 2881TIP3    H130134   5.353   1.422  12.296  0.5711  0.7291  1.3834
 2881TIP3    H230135   5.368   1.556  12.228  0.7926  0.3303  0.6428
 2882TIP3   OH230136   6.695   2.450   5.684 -0.0163  0.9427 -0.2247
 2882TIP3    H130137   6.772   2.446   5.740  1.3537  4.6036 -1.5058
 2882TIP3    H230138   6.726   2.423   5.598 -1.1974 -1.1464 -0.0670
 2883TIP3   OH230139   3.250   4.667  17.076  0.4774  0.0855 -0.1437
 2883TIP3    H130140   3.155   4.678  17.083  0.2899 -1.0376 -0.7488
 2883TIP3    H230141   3.277   4.733  17.014 -0.0163 -0.0427 -0.5068
 2884TIP3   OH230142   5.969   4.602  11.791 -0.2498  0.1818 -0.0718
 2884TIP3    H130143   6.020   4.681  11.809 -1.0179  0.6844 -0.0810
 2884TIP3    H230144   5.917   4.589  11.870 -2.0404  1.1682 -1.0386
 2885TIP3   OH230145   3.278   5.217   1.009  0.3495  0.7465 -0.3997
 2885TIP3    H130146   3.368   5.209   0.978  0.3613  1.4800 -0.5600
 2885TIP3    H230147   3.247   5.301   0.975  0.1213  1.2387  0.9482
 2886TIP3   OH230148   1.056   3.426   2.247  0.2655  0.1788  0.3184
 2886TIP3    H130149   1.132   3.423   2.305 -0.3762 -0.4554  1.1569
 2886TIP3    H230150   1.089   3.396   2.162  1.2445  1.2271  0.3048
 2887TIP3   OH230151   0.705   3.459   0.939  0.1416  0.1664  0.4148
 2887TIP3    H130152   0.656   3.393   0.889  0.8654 -0.0366 -0.0386
 2887TIP3    H230153   0.746   3.409   1.010  2.1161 -0.2217 -0.9234
 2888TIP3   OH230154   3.384   6.168   2.215 -0.3338  0.6767  0.0245
 2888TIP3    H130155   3.414   6.252   2.181  0.0799  1.0693  1.3190
 2888TIP3    H230156   3.444   6.104   2.178  2.1763  1.4204  2.4352
 2889TIP3   OH230157   5.401   1.610   4.154  0.5363 -0.1500  0.4207
 2889TIP3    H130158   5.487   1.650   4.167  0.7224 -0.2031 -0.5910
 2889TIP3    H230159   5.418   1.535   4.098 -0.0128 -0.8515  1.1798
 2890TIP3   OH230160   0.987   5.012  11.897 -0.2544  0.2696  0.3536
 2890TIP3    H130161   0.936   5.092  11.888 -0.1326  0.3814  0.6305
 2890TIP3    H230162   0.978   4.989  11.989 -0.5196 -0.1930  0.2110
 2891TIP3   OH230163   3.380   0.451  15.464  0.3746 -0.0620  0.1281
 2891TIP3    H130164   3.303   0.442  15.407  0.5890  0.3370 -0.2313
 2891TIP3    H230165   3.423   0.366  15.459 -0.4632 -0.5611  0.9636
 2892TIP3   OH230166   5.551   1.699   3.903  0.0431 -0.0030  0.3176
 2892TIP3    H130167   5.632   1.661   3.867 -0.4337 -0.6485 -0.1043
 2892TIP3    H230168   5.581   1.762   3.968  0.8906 -1.0311  0.9717
 2893TIP3   OH230169   0.218   5.938  16.135  0.3993  0.1374 -0.2510
 2893TIP3    H130170   0.156   5.980  16.075  1.6456  0.3721 -1.4320
 2893TIP3    H230171   0.301   5.937  16.086  1.3026 -0.2472  1.2360
 2894TIP3   OH230172   1.196   6.691   1.307  0.1271 -0.1086  0.6211
 2894TIP3    H130173   1.234   6.754   1.246  3.0260  1.2855  3.5431
 2894TIP3    H230174   1.140   6.743   1.364  0.1397 -0.7295  1.2189
 2895TIP3   OH230175   4.153   1.838  14.765 -0.1394  0.4071  0.2286
 2895TIP3    H130176   4.226   1.794  14.721  0.0711  0.6153  0.3660
 2895TIP3    H230177   4.084   1.840  14.699 -0.7103 -1.5000  0.7045
 2896TIP3   OH230178   2.329   1.626  14.280 -0.0248  0.2148  0.5404
 2896TIP3    H130179   2.344   1.541  14.322 -0.7960 -0.2552 -0.1038
 2896TIP3    H230180   2.378   1.622  14.198  0.9739  0.8946  1.0822
 2897TIP3   OH230181   6.402   0.953   5.652 -0.3783 -0.2600 -0.7178
 2897TIP3    H130182   6.381   0.969   5.560  1.4631 -1.3474 -1.3733
 2897TIP3    H230183   6.342   1.010   5.700 -0.7008  1.0962 -2.6142
 2898TIP3   OH230184   0.466   5.769   5.467 -0.1465  0.0521  0.2876
 2898TIP3    H130185   0.445   5.819   5.546 -0.2012 -0.7374  0.7868
 2898TIP3    H230186   0.383   5.728   5.443 -0.1873  0.4813 -0.3315
 2899TIP3   OH230187   2.961   5.662   0.490  0.4811 -0.1990 -0.1505
 2899TIP3    H130188   2.920   5.697   0.569  0.2334  1.6441 -1.0463
 2899TIP3    H230189   3.054   5.664   0.509  0.3676 -1.3802  0.6913
 2900TIP3   OH230190   5.470   6.786   3.790 -0.4651 -0.1304 -0.2765
 2900TIP3    H130191   5.427   6.787   3.704 -1.1048  1.0896  0.0264
 2900TIP3    H230192   5.562   6.800   3.770 -0.7961  1.7039 -0.7238
 2901TIP3   OH230193   4.279   6.164  11.669 -0.4795  0.1658 -0.1614
 2901TIP3    H130194   4.365   6.206  11.673  0.0256 -0.2965 -3.4112
 2901TIP3    H230195   4.298   6.071  11.679 -1.1026  0.2628  2.6655
 2902TIP3   OH230196   1.863   1.958   6.370  0.1832  0.2909 -0.0458
 2902TIP3    H130197   1.828   1.875   6.337 -0.3542  0.3209  0.4338
 2902TIP3    H230198   1.875   1.943   6.464  0.6239  0.5696 -0.0566
 2903TIP3   OH230199   3.201   5.301   0.449  0.1163  0.6085 -0.2749
 2903TIP3    H130200   3.118   5.259   0.471 -0.8631  2.4120 -0.2877
 2903TIP3    H230201   3.225   5.264   0.364  0.3671 -1.3587  0.5941
 2904TIP3   OH230202   5.573   3.234   0.220  0.1265 -0.1015 -0.2179
 2904TIP3    H130203   5.524   3.309   0.254 -1.0042 -1.4621  1.3817
 2904TIP3    H230204   5.510   3.162   0.223  1.2383 -1.1739 -1.4659
 2905TIP3   OH230205   1.054   3.523   0.771  0.0991  0.0262  0.3041
 2905TIP3    H130206   1.148   3.527   0.789 -0.3288  0.7939  2.6986
 2905TIP3    H230207   1.029   3.435   0.798  0.0908 -0.1436 -0.2412
 2906TIP3   OH230208   4.217   4.004   4.534  0.2923 -0.4980  0.0274
 2906TIP3    H130209   4.167   4.047   4.603  1.7481  2.0482 -0.3751
 2906TIP3    H230210   4.304   3.991   4.573  0.6712 -0.4941 -0.7987
 2907TIP3   OH230211   5.402   0.811   5.839  1.1582  0.5530 -0.1256
 2907TIP3    H130212   5.321   0.824   5.789  0.8006 -0.3591  0.2023
 2907TIP3    H230213   5.406   0.886   5.899  0.0714  0.1219  0.5022
 2908TIP3   OH230214   1.556   4.039   1.406 -0.1949  0.3444  0.1780
 2908TIP3    H130215   1.475   4.052   1.356 -0.6363 -0.3621  0.6913
 2908TIP3    H230216   1.625   4.076   1.350 -0.7368  0.0237 -0.7264
 2909TIP3   OH230217   0.976   1.253  13.671 -0.4460  0.3651 -0.0999
 2909TIP3    H130218   0.897   1.217  13.711 -1.1373  0.6043 -1.2140
 2909TIP3    H230219   1.017   1.179  13.627  0.7330 -0.0747  1.6145
 2910TIP3   OH230220   4.056   6.451  13.009  0.7461  0.1722  0.2920
 2910TIP3    H130221   4.143   6.418  13.033  0.9552  0.5089  0.0132
 2910TIP3    H230222   4.074   6.527  12.954  0.2728  1.1785  1.4991
 2911TIP3   OH230223   1.732   2.978   0.785 -0.0181  0.3284  0.1925
 2911TIP3    H130224   1.816   2.990   0.741 -0.3456  2.2390  0.0144
 2911TIP3    H230225   1.667   2.988   0.715 -0.4334 -1.1999  0.3155
 2912TIP3   OH230226   0.107   6.291  13.291 -0.2500 -0.5818  0.0509
 2912TIP3    H130227   0.131   6.252  13.375 -0.7147 -0.5656  0.1915
 2912TIP3    H230228   0.178   6.352  13.272 -0.7961  0.4425  1.1034
 2913TIP3   OH230229   3.937   2.452   0.566 -0.6488  0.5538 -0.0926
 2913TIP3    H130230   3.873   2.445   0.637  0.2921 -2.2285  0.6027
 2913TIP3    H230231   4.013   2.404   0.597  0.0003 -0.3151 -2.7627
 2914TIP3   OH230232   4.995   5.080  16.488  0.4985 -0.1406 -0.5215
 2914TIP3    H130233   4.925   5.129  16.445  0.3436 -0.2281 -0.3751
 2914TIP3    H230234   4.970   5.080  16.581  0.1034 -1.1247 -0.6115
 2915TIP3   OH230235   2.728   0.316  16.964  0.5481 -0.6457  0.7836
 2915TIP3    H130236   2.743   0.301  16.870 -3.8535  2.7614 -0.8299
 2915TIP3    H230237   2.771   0.400  16.982 -0.2849 -0.3063  1.2368
 2916TIP3   OH230238   5.797   6.351   0.134 -0.5347  0.7483 -0.9198
 2916TIP3    H130239   5.778   6.313   0.220 -1.3416  2.3737 -0.3179
 2916TIP3    H230240   5.817   6.277   0.078 -1.2277 -0.4603  0.3759
 2917TIP3   OH230241   1.780   3.720  14.843  0.5556 -0.1523  1.0146
 2917TIP3    H130242   1.841   3.683  14.907  1.3193  1.4778  1.2736
 2917TIP3    H230243   1.695   3.722  14.888  0.6309 -0.9754  1.2034
 2918TIP3   OH230244   0.803   4.663  12.238  0.0689 -0.4955 -0.4054
 2918TIP3    H130245   0.774   4.656  12.147 -2.1670 -2.2569  0.3324
 2918TIP3    H230246   0.731   4.706  12.284  0.8512 -0.2746  0.6754
 2919TIP3   OH230247   6.405   6.641   5.069  0.8235 -1.0222  0.0464
 2919TIP3    H130248   6.398   6.711   5.003  3.9857 -0.3066  0.3442
 2919TIP3    H230249   6.363   6.679   5.147  0.3719 -0.4167 -0.4743
 2920TIP3   OH230250   5.212   6.014  16.305 -1.0073  0.1991  0.7779
 2920TIP3    H130251   5.299   6.000  16.267 -0.8445  1.4425  0.6393
 2920TIP3    H230252   5.179   5.926  16.323  1.1168 -0.2891  2.7737
 2921TIP3   OH230253   6.715   1.317  16.477  0.1354 -0.1207 -0.4524
 2921TIP3    H130254   6.651   1.388  16.479  1.9843  1.6155  0.1940
 2921TIP3    H230255   6.789   1.350  16.529  1.0420 -2.5497 -0.0751
 2922TIP3   OH230256   5.059   0.905  15.188 -0.0134  0.0425  0.3500
 2922TIP3    H130257   5.106   0.877  15.109  0.2645 -0.9531  0.8586
 2922TIP3    H230258   5.029   0.824  15.229 -0.3894  0.5606  1.1313
 2923TIP3   OH230259   5.812   2.750  12.495 -0.3678 -0.2088  0.1645
 2923TIP3    H130260   5.783   2.820  12.554 -1.8082  0.3119 -1.1246
 2923TIP3    H230261   5.901   2.729  12.526 -0.0674  1.8623  0.8663
 2924TIP3   OH230262   4.607   4.935  15.300 -0.1439  0.4444  0.3934
 2924TIP3    H130263   4.543   4.916  15.231 -0.5411 -0.2029  0.9179
 2924TIP3    H230264   4.607   5.030  15.308 -2.0122  0.4254  1.2409
 2925TIP3   OH230265   2.226   2.881  11.470  0.2594 -0.4644  0.3433
 2925TIP3    H130266   2.242   2.836  11.552 -0.4006 -0.2136  0.6105
 2925TIP3    H230267   2.140   2.922  11.480  0.8520  0.8893  0.1314
 2926TIP3   OH230268   3.780   0.054  10.828  0.1417 -0.5490 -0.1424
 2926TIP3    H130269   3.715   0.106  10.783  0.3768  0.4835  0.6793
 2926TIP3    H230270   3.857   0.111  10.833  0.2013 -0.7324  1.3164
 2927TIP3   OH230271   2.297   4.785   6.385  0.1515  0.0001  0.2544
 2927TIP3    H130272   2.325   4.699   6.416 -1.9528 -0.9239 -0.2176
 2927TIP3    H230273   2.298   4.840   6.463  0.5429 -0.7269  0.7724
 2928TIP3   OH230274   4.171   4.738   2.790  0.3453 -0.3975 -0.8116
 2928TIP3    H130275   4.243   4.679   2.811 -0.3256 -0.7936  0.4455
 2928TIP3    H230276   4.098   4.709   2.844 -0.2899  0.9955 -0.8544
 2929TIP3   OH230277   5.215   2.469  10.478 -0.1615  0.3597 -0.2156
 2929TIP3    H130278   5.168   2.422  10.409  1.0788 -0.6323 -0.4167
 2929TIP3    H230279   5.169   2.552  10.486 -3.4207 -1.3812  1.2088
 2930TIP3   OH230280   4.369   1.198   3.753  0.2670  0.4374  0.5506
 2930TIP3    H130281   4.366   1.104   3.737  3.9987  0.2514  0.1755
 2930TIP3    H230282   4.380   1.237   3.666 -0.6309  1.2339  0.7642
 2931TIP3   OH230283   3.816   5.729   4.011  0.0306  0.4949  0.1263
 2931TIP3    H130284   3.889   5.691   3.961 -0.2942 -0.5001  0.3838
 2931TIP3    H230285   3.741   5.725   3.951 -0.0225  0.6560  0.1818
 2932TIP3   OH230286   5.452   0.014   1.316 -0.7384 -0.1272 -0.1726
 2932TIP3    H130287   5.406  -0.053   1.266 -1.3379 -0.5075  0.8570
 2932TIP3    H230288   5.488  -0.033   1.392 -0.6259  0.5865  0.2265
 2933TIP3   OH230289   2.310   3.937  11.503  0.4334 -0.3025  0.1673
 2933TIP3    H130290   2.350   4.012  11.459 -0.9361  1.9553  2.4560
 2933TIP3    H230291   2.340   3.945  11.594 -2.3562 -0.5330  1.1938
 2934TIP3   OH230292   3.958   6.233   5.026 -0.1628 -0.9027 -0.4103
 2934TIP3    H130293   4.018   6.158   5.020 -0.0814 -1.1304  2.1126
 2934TIP3    H230294   3.962   6.259   5.118 -0.5214  1.9681 -1.1096
 2935TIP3   OH230295   2.894   1.371  16.983 -0.4365 -0.0526  0.0198
 2935TIP3    H130296   2.910   1.313  16.909 -1.8626 -0.0907 -0.2760
 2935TIP3    H230297   2.975   1.421  16.991  0.7091 -1.8334  0.0880
 2936TIP3   OH230298   0.390   2.967  12.144  0.9302 -0.8311  0.0057
 2936TIP3    H130299   0.372   3.037  12.207  0.0847 -0.3200 -0.7795
 2936TIP3    H230300   0.304   2.930  12.125  0.9896 -0.0428 -1.9230
 2937TIP3   OH230301   5.705   1.581  10.861 -0.5615  0.6023 -0.5601
 2937TIP3    H130302   5.682   1.570  10.769 -1.9290 -1.3983 -0.0498
 2937TIP3    H230303   5.800   1.596  10.861 -0.3383 -0.5767 -2.2083
 2938TIP3   OH230304   6.317   4.395  16.497 -0.4990 -0.2854 -0.2087
 2938TIP3    H130305   6.299   4.316  16.446 -1.2994 -0.8144  0.8534
 2938TIP3    H230306   6.393   4.435  16.454 -0.1814 -1.5397 -0.8583
 2939TIP3   OH230307   4.573   4.175  11.774  0.0469  0.2123  0.0198
 2939TIP3    H130308   4.637   4.105  11.781 -1.1956 -1.0060 -0.4001
 2939TIP3    H230309   4.567   4.193  11.680  0.3408  0.8986  0.1201
 2940TIP3   OH230310   4.291   3.752   1.835 -0.5828  0.0687 -0.0898
 2940TIP3    H130311   4.287   3.838   1.878  0.9680 -1.2406  2.9207
 2940TIP3    H230312   4.384   3.731   1.831 -0.9982 -2.5741  1.7313
 2941TIP3   OH230313   4.714   5.484   4.688 -0.0205 -0.6207 -0.4146
 2941TIP3    H130314   4.793   5.430   4.687  0.7919  0.3363  2.0737
 2941TIP3    H230315   4.744   5.568   4.724 -1.8183  0.4641 -1.3243
 2942TIP3   OH230316   2.846   1.858   5.546  0.4987 -0.2533 -0.0535
 2942TIP3    H130317   2.847   1.763   5.555  1.9744 -0.3766 -1.1424
 2942TIP3    H230318   2.939   1.882   5.536  0.1710  1.3257  0.4469
 2943TIP3   OH230319   2.689   5.604  11.727  0.0834 -0.3070  0.7985
 2943TIP3    H130320   2.694   5.645  11.640  1.4657 -2.5185 -0.2459
 2943TIP3    H230321   2.667   5.676  11.786  0.9514  1.6261 -1.1102
 2944TIP3   OH230322   0.859   3.021  16.168  0.0947  0.4338  0.1670
 2944TIP3    H130323   0.804   3.095  16.193 -1.4092 -0.5588 -0.0783
 2944TIP3    H230324   0.826   2.948  16.221  0.2039 -0.5123 -1.0395
 2945TIP3   OH230325   4.845   4.070   4.976  0.3442  0.5227  0.7232
 2945TIP3    H130326   4.751   4.069   4.993  0.0768  1.0912 -0.5924
 2945TIP3    H230327   4.886   4.062   5.062 -0.8964 -1.3340  1.1945
 2946TIP3   OH230328   6.792   0.208  11.743 -0.2232  0.2451  0.2790
 2946TIP3    H130329   6.701   0.183  11.758 -0.1158  0.2734  1.0447
 2946TIP3    H230330   6.804   0.202  11.648 -1.2223  0.9764  0.0957
 2947TIP3   OH230331   4.536   6.352  17.018 -0.1443  0.4440 -0.5986
 2947TIP3    H130332   4.545   6.414  17.091  0.7634  0.3740 -0.6411
 2947TIP3    H230333   4.579   6.395  16.944  1.6633 -0.7465 -0.3025
 2948TIP3   OH230334   5.670   2.710   0.584 -0.7186 -0.3757  0.4122
 2948TIP3    H130335   5.727   2.727   0.660  1.2519 -0.6705 -0.9090
 2948TIP3    H230336   5.660   2.796   0.543  1.2575 -0.6959 -0.9275
 2949TIP3   OH230337   5.244   4.695  13.349  0.1862 -0.2676 -0.2975
 2949TIP3    H130338   5.291   4.775  13.371  0.5424 -0.5032 -0.2005
 2949TIP3    H230339   5.153   4.724  13.336  0.6285  0.4267 -2.0284
 2950TIP3   OH230340   6.140   6.110  11.289 -0.2665 -0.5776 -0.0936
 2950TIP3    H130341   6.099   6.052  11.226 -1.3733 -0.5425  0.5582
 2950TIP3    H230342   6.114   6.198  11.261  0.8654 -0.4261 -0.7054
 2951TIP3   OH230343   5.373   3.692   2.743  0.1063 -0.4780 -0.4706
 2951TIP3    H130344   5.381   3.672   2.649 -1.3778 -0.1627 -0.6801
 2951TIP3    H230345   5.360   3.606   2.784  1.9593 -0.7601 -0.3721
 2952TIP3   OH230346   0.702   5.291  10.629  0.0783 -0.2712 -0.2671
 2952TIP3    H130347   0.766   5.361  10.639  0.9582 -0.7413 -2.0298
 2952TIP3    H230348   0.727   5.225  10.694  0.0336  0.4771  0.5182
 2953TIP3   OH230349   0.294   3.759   0.779  0.5654  0.3410 -0.3330
 2953TIP3    H130350   0.200   3.762   0.766  0.5056  1.1559  0.2013
 2953TIP3    H230351   0.323   3.849   0.764  1.0633  0.3946  0.7977
 2954TIP3   OH230352   5.700   4.377   0.220 -0.2565  0.0569 -0.5006
 2954TIP3    H130353   5.629   4.424   0.265 -0.9751 -0.4593 -1.0691
 2954TIP3    H230354   5.658   4.338   0.143  0.6556 -0.2393 -0.8647
 2955TIP3   OH230355   3.253   1.157   4.846  0.0122 -0.1141 -0.0376
 2955TIP3    H130356   3.170   1.113   4.866  1.3510 -2.8937 -0.0316
 2955TIP3    H230357   3.296   1.099   4.783  1.9069  1.2978 -0.1235
 2956TIP3   OH230358   1.162   1.546  15.463 -0.2069  0.3027  0.3177
 2956TIP3    H130359   1.151   1.576  15.553 -1.2529  1.9534 -0.3229
 2956TIP3    H230360   1.245   1.584  15.435  0.0923 -0.1671  0.5441
 2957TIP3   OH230361   4.992   5.692  17.186  0.5684 -0.4256  0.1965
 2957TIP3    H130362   5.042   5.621  17.227  1.3749  0.3876  0.6436
 2957TIP3    H230363   5.036   5.772  17.214  0.6497  0.2099 -1.6160
 2958TIP3   OH230364   0.683   1.036   4.166 -0.2139  0.3868  0.9585
 2958TIP3    H130365   0.592   1.037   4.137  0.0399  1.6442  0.1552
 2958TIP3    H230366   0.689   1.110   4.226 -0.4350 -1.4643  3.4354
 2959TIP3   OH230367   6.086   4.230  11.407  0.0064 -0.7690  0.1188
 2959TIP3    H130368   6.115   4.201  11.320 -0.5977 -0.5647 -0.1552
 2959TIP3    H230369   5.992   4.242  11.398  0.2993  2.1268 -0.0558
 2960TIP3   OH230370   4.928   3.681  14.645  0.7552  0.0980 -0.1061
 2960TIP3    H130371   4.860   3.701  14.709  0.4945  0.3194 -0.4479
 2960TIP3    H230372   4.885   3.623  14.581  1.0695 -0.2912  0.0274
 2961TIP3   OH230373   0.335   1.745  14.395 -0.3938  0.4464 -0.0622
 2961TIP3    H130374   0.262   1.799  14.366 -1.2160 -0.8021 -0.3790
 2961TIP3    H230375   0.356   1.690  14.320  2.0027  1.8774 -0.5673
 2962TIP3   OH230376   4.184   3.904  11.365 -0.0872  0.6582 -0.4572
 2962TIP3    H130377   4.125   3.899  11.441 -2.2683  0.7752 -2.0573
 2962TIP3    H230378   4.246   3.833  11.379 -0.8263  0.2631  1.1263
 2963TIP3   OH230379   0.083   5.212  14.923 -0.2347 -0.3361 -0.2870
 2963TIP3    H130380   0.158   5.271  14.933  1.3546 -2.1510 -0.7872
 2963TIP3    H230381   0.040   5.212  15.008  0.1271  0.9884 -0.0857
 2964TIP3   OH230382   6.524   3.029   0.250 -1.0464  0.1169  0.5367
 2964TIP3    H130383   6.435   2.996   0.240 -1.0910  0.4259 -0.1501
 2964TIP3    H230384   6.534   3.094   0.180  0.3433 -1.2499 -0.6233
 2965TIP3   OH230385   5.911   2.652  16.055 -0.1975  0.1380  0.0650
 2965TIP3    H130386   5.883   2.577  16.108  0.8212  0.2949  0.8540
 2965TIP3    H230387   5.915   2.618  15.966  0.5371 -0.8349  0.4545
 2966TIP3   OH230388   5.190   5.768  10.972 -0.1007 -0.5801 -0.1676
 2966TIP3    H130389   5.148   5.842  11.015  0.4023  0.1175 -0.8549
 2966TIP3    H230390   5.186   5.697  11.037 -1.1723 -0.1564  0.2492
 2967TIP3   OH230391   0.994   5.700  16.692  0.6503 -0.2681  0.0532
 2967TIP3    H130392   0.995   5.607  16.670  0.2410 -0.4633  0.8426
 2967TIP3    H230393   0.913   5.733  16.653  0.0026 -0.5809  1.1183
 2968TIP3   OH230394   4.945   4.357  14.002 -0.2363 -0.4177 -0.2740
 2968TIP3    H130395   5.035   4.363  13.970  0.0995 -1.2171  0.4702
 2968TIP3    H230396   4.891   4.361  13.923  0.5003 -1.0154 -0.8275
 2969TIP3   OH230397   0.083   3.328  14.995 -0.6511  0.0902 -0.2647
 2969TIP3    H130398   0.071   3.400  15.056  0.6152  2.0360 -2.1536
 2969TIP3    H230399  -0.004   3.313  14.958 -1.1699 -0.2534  1.0530
 2970TIP3   OH230400   0.935   4.490   4.040 -0.0460 -0.0309 -0.0096
 2970TIP3    H130401   0.932   4.485   3.944  1.0892 -0.2866 -0.0340
 2970TIP3    H230402   0.949   4.583   4.058  0.5484 -0.0949 -0.1201
 2971TIP3   OH230403   2.193   1.748  11.109  0.2909  0.7766 -0.5671
 2971TIP3    H130404   2.118   1.808  11.108  1.2127  1.9576 -0.3486
 2971TIP3    H230405   2.270   1.805  11.112  1.2072 -0.4164 -0.6385
 2972TIP3   OH230406   6.232   6.096   0.777  0.5065  0.3617 -0.7112
 2972TIP3    H130407   6.314   6.087   0.729  0.3693  1.3316 -1.1523
 2972TIP3    H230408   6.210   6.189   0.769 -0.6348  0.1137 -0.6111
 2973TIP3   OH230409   2.332   3.727   3.764  0.0825 -0.3697  0.4848
 2973TIP3    H130410   2.252   3.675   3.753 -0.1692  0.1474 -0.2100
 2973TIP3    H230411   2.385   3.706   3.687  0.0507  0.2761  0.2856
 2974TIP3   OH230412   3.252   4.008  14.100 -0.1624  0.3230  0.0901
 2974TIP3    H130413   3.263   3.933  14.042  1.4188  0.0467  0.7147
 2974TIP3    H230414   3.182   4.059  14.059  1.3763  0.5363 -2.4943
 2975TIP3   OH230415   0.777   5.514   1.569  0.3322 -0.1290 -1.0037
 2975TIP3    H130416   0.696   5.543   1.527  1.5038  0.7751 -2.7166
 2975TIP3    H230417   0.842   5.514   1.499  1.5045 -2.3141 -0.0211
 2976TIP3   OH230418   4.229   1.364   1.882  0.4869  0.0057 -0.3329
 2976TIP3    H130419   4.286   1.290   1.865  1.6145  0.9157 -0.6632
 2976TIP3    H230420   4.171   1.367   1.806 -0.7384 -1.5413  0.4861
 2977TIP3   OH230421   4.078   5.133  11.703 -0.0248  0.6347 -0.3398
 2977TIP3    H130422   4.090   5.091  11.618  0.3000 -1.2184  0.5806
 2977TIP3    H230423   4.163   5.127  11.745 -0.0328  2.0502 -0.0688
 2978TIP3   OH230424   6.483   1.987   2.825  0.1807  0.2977  0.1130
 2978TIP3    H130425   6.545   2.056   2.846 -1.2942  2.0614 -0.9944
 2978TIP3    H230426   6.438   1.969   2.907  1.6907 -0.6088  0.7974
 2979TIP3   OH230427   5.125   6.242   1.791  0.2806 -0.5061 -0.4990
 2979TIP3    H130428   5.143   6.166   1.735 -1.1618 -0.5259 -0.9592
 2979TIP3    H230429   5.121   6.206   1.880  0.7703 -0.7689 -0.5797
 2980TIP3   OH230430   2.551   4.688  10.828 -0.0357  0.2216  0.2485
 2980TIP3    H130431   2.628   4.670  10.773 -1.0496 -0.4788 -1.0095
 2980TIP3    H230432   2.573   4.649  10.913 -0.6508 -4.1229 -1.3128
 2981TIP3   OH230433   4.052   1.219   1.270  0.1706 -0.5543 -0.2030
 2981TIP3    H130434   4.007   1.279   1.330 -0.1222  0.1296 -1.0864
 2981TIP3    H230435   3.996   1.217   1.192  0.4394 -1.5901 -0.3849
 2982TIP3   OH230436   3.344   2.703  15.727  0.4326  0.0653 -0.3406
 2982TIP3    H130437   3.322   2.653  15.649  2.3108  0.1147 -0.9671
 2982TIP3    H230438   3.363   2.636  15.793 -0.9367  0.0220  0.0297
 2983TIP3   OH230439   0.115   0.609   0.961  0.3965 -0.4170  0.1307
 2983TIP3    H130440   0.079   0.528   0.923 -0.9906 -0.0091  0.5171
 2983TIP3    H230441   0.194   0.626   0.910 -0.8210 -0.4852 -1.8836
 2984TIP3   OH230442   2.970   1.983   2.530 -0.1357 -0.4404 -0.5814
 2984TIP3    H130443   2.897   2.035   2.563 -0.2960 -0.3014 -1.1515
 2984TIP3    H230444   3.037   1.991   2.597 -0.6045 -0.4834 -0.0987
 2985TIP3   OH230445   2.368   1.390   2.848  0.1293 -0.2227  0.5219
 2985TIP3    H130446   2.383   1.419   2.938 -1.4354  0.7350  0.5081
 2985TIP3    H230447   2.363   1.294   2.854  0.6473 -0.2058  1.3459
 2986TIP3   OH230448   0.058   4.352   6.003 -0.5840  0.0710  0.4750
 2986TIP3    H130449   0.131   4.315   6.053  0.7809 -0.7723 -1.9647
 2986TIP3    H230450   0.023   4.420   6.059  1.7378  0.1410  1.9957
 2987TIP3   OH230451   4.846   5.672   1.169  0.0630 -0.1753 -0.3704
 2987TIP3    H130452   4.773   5.713   1.215  0.0359 -2.1390  1.4451
 2987TIP3    H230453   4.913   5.741   1.165 -1.0673  0.9745 -0.1181
 2988TIP3   OH230454   5.822   1.845   3.996 -0.0090 -0.2396 -0.2059
 2988TIP3    H130455   5.837   1.777   3.930  1.0566 -1.0518  0.8267
 2988TIP3    H230456   5.909   1.872   4.023 -0.4281  0.3996  0.5438
 2989TIP3   OH230457   2.325   2.849  13.515 -0.1251 -0.2752 -0.2605
 2989TIP3    H130458   2.338   2.854  13.420 -1.9033  0.7525 -0.4882
 2989TIP3    H230459   2.230   2.852  13.526 -0.2808 -4.3219  1.3607
 2990TIP3   OH230460   2.787   1.476   4.156 -0.2074 -0.0972 -0.1263
 2990TIP3    H130461   2.743   1.541   4.101 -1.0412  0.0991  0.7482
 2990TIP3    H230462   2.737   1.476   4.238  0.7124 -0.7372  0.4520
 2991TIP3   OH230463   3.304   2.944   5.588  0.5806  0.5160  0.4452
 2991TIP3    H130464   3.293   2.874   5.652 -1.9484 -0.1450 -0.5749
 2991TIP3    H230465   3.343   2.901   5.512 -0.4716  0.3042  0.0124
 2992TIP3   OH230466   2.056   6.366  16.856 -0.0484 -0.0067  0.5433
 2992TIP3    H130467   2.086   6.276  16.847 -0.2435 -0.0956  0.7593
 2992TIP3    H230468   2.039   6.376  16.950 -1.0051 -0.0633  0.3842
 2993TIP3   OH230469   1.787   1.760  15.769  0.5510 -0.2348 -0.2004
 2993TIP3    H130470   1.728   1.732  15.840 -0.0324  1.0869 -0.1368
 2993TIP3    H230471   1.869   1.781  15.814  1.0443 -1.8621 -0.2619
 2994TIP3   OH230472   5.464   6.736   0.666 -0.4792 -0.3005 -0.0402
 2994TIP3    H130473   5.554   6.719   0.637 -0.3824  0.1875 -0.0381
 2994TIP3    H230474   5.411   6.729   0.587 -0.5581 -1.3918  0.0940
 2995TIP3   OH230475   5.864   3.323   3.948 -0.0427  0.3497 -0.1529
 2995TIP3    H130476   5.951   3.361   3.937 -0.0006  0.5448  0.7720
 2995TIP3    H230477   5.870   3.236   3.909 -0.1564  1.2688 -2.3842
 2996TIP3   OH230478   2.456   0.910  14.095 -0.4113 -0.2463 -0.6016
 2996TIP3    H130479   2.446   0.825  14.053 -2.7520 -0.0481 -0.5460
 2996TIP3    H230480   2.502   0.891  14.177 -2.3327 -1.7608  0.2005
 2997TIP3   OH230481   4.624   5.293  17.260  0.2496 -0.1326  0.4726
 2997TIP3    H130482   4.660   5.219  17.210  0.3570  1.2242 -1.5476
 2997TIP3    H230483   4.532   5.270  17.273  0.2305 -0.5344 -0.3099
 2998TIP3   OH230484   5.003   5.522  11.879  0.1688  0.0523  0.0413
 2998TIP3    H130485   5.065   5.506  11.808  0.0121 -1.4508  0.2030
 2998TIP3    H230486   4.926   5.471  11.855 -1.2124  2.1829 -0.3504
 2999TIP3   OH230487   2.749   4.951  13.109  0.2321 -0.3844 -0.1873
 2999TIP3    H130488   2.703   4.882  13.061 -1.0443  1.1102 -1.2298
 2999TIP3    H230489   2.722   5.032  13.066  0.6081  0.8829  1.8231
 3000TIP3   OH230490   6.216   3.052  11.338 -0.7642  0.0950  0.4182
 3000TIP3    H130491   6.303   3.012  11.335 -1.3204 -1.1664  0.1090
 3000TIP3    H230492   6.231   3.140  11.373  0.7922  0.4033 -0.9196
 3001TIP3   OH230493   5.783   0.195  17.196 -0.1254 -0.0371 -0.0837
 3001TIP3    H130494   5.840   0.255  17.147 -0.0439 -1.1009 -1.3349
 3001TIP3    H230495   5.841   0.124  17.223 -0.2934  0.2498  1.1183
 3002TIP3   OH230496   2.481   2.511  16.742  0.0931 -0.6365  0.0314
 3002TIP3    H130497   2.532   2.461  16.678  0.7603  0.9781 -0.7446
 3002TIP3    H230498   2.489   2.461  16.823 -0.6553 -2.6628 -1.0697
 3003TIP3   OH230499   5.495   2.121  11.691  0.0967  0.0313  0.3540
 3003TIP3    H130500   5.400   2.122  11.702  0.0353 -1.3831  0.1898
 3003TIP3    H230501   5.509   2.077  11.608  0.8978  0.2866  0.3481
 3004TIP3   OH230502   6.143   2.759   0.889 -0.6089  0.0276  0.0627
 3004TIP3    H130503   6.142   2.701   0.812  0.3076 -0.5089  0.4323
 3004TIP3    H230504   6.236   2.771   0.907 -0.8010 -0.7737  1.7728
 3005TIP3   OH230505   1.343   3.225   5.633  0.2435 -0.6032 -0.0126
 3005TIP3    H130506   1.356   3.264   5.546  0.4777 -0.7007 -0.0229
 3005TIP3    H230507   1.330   3.132   5.615 -0.5445 -0.4970 -0.0057
 3006TIP3   OH230508   0.922   1.221  15.090 -0.3675 -0.1082  0.0105
 3006TIP3    H130509   0.975   1.156  15.136  0.0279 -0.2125 -0.5967
 3006TIP3    H230510   0.948   1.304  15.129  0.4291 -0.1300 -0.4504
 3007TIP3   OH230511   4.892   2.891   0.404  0.0817 -0.4624 -0.1828
 3007TIP3    H130512   4.952   2.818   0.411  1.4709  0.6298 -0.2674
 3007TIP3    H230513   4.825   2.874   0.470 -0.1799 -2.2857 -0.8797
 3008TIP3   OH230514   3.396   4.147   2.456 -0.1915  0.4893 -0.5560
 3008TIP3    H130515   3.472   4.089   2.444 -0.0632  0.4315  0.4335
 3008TIP3    H230516   3.321   4.087   2.459 -0.1797  0.4704 -0.6273
 3009TIP3   OH230517   3.887   3.039  15.802 -0.2425  0.2530 -0.4491
 3009TIP3    H130518   3.876   3.021  15.709  0.4316 -1.3079 -0.2547
 3009TIP3    H230519   3.904   2.953  15.842  2.1353  1.1579  0.7180
 3010TIP3   OH230520   4.728   0.318   5.303  0.5184  0.0279  0.1354
 3010TIP3    H130521   4.793   0.348   5.240 -0.3538  0.9066 -0.3738
 3010TIP3    H230522   4.777   0.305   5.385  1.9996 -2.7184 -1.0561
 3011TIP3   OH230523   6.727   6.015  11.628 -0.1870 -0.2859 -0.1175
 3011TIP3    H130524   6.655   6.003  11.690 -1.0914 -0.5403 -1.1938
 3011TIP3    H230525   6.806   6.006  11.682 -0.9208  1.6870  1.4153
 3012TIP3   OH230526   3.880   0.977  16.025  0.4707  0.0326 -0.3900
 3012TIP3    H130527   3.847   1.003  15.939 -0.7736 -0.4242 -0.0668
 3012TIP3    H230528   3.883   0.882  16.023 -2.4083 -0.2026  1.0088
 3013TIP3   OH230529   1.281   1.239   3.590  0.4334 -0.0247 -0.0596
 3013TIP3    H130530   1.222   1.314   3.584 -0.3152 -0.6900 -1.4047
 3013TIP3    H230531   1.331   1.241   3.508  0.0795 -1.2487 -0.3213
 3014TIP3   OH230532   1.367   3.664   6.813  0.1378  0.0113 -0.7538
 3014TIP3    H130533   1.432   3.686   6.745  0.0676  0.4366 -0.6846
 3014TIP3    H230534   1.374   3.569   6.823  1.4048  0.1629 -0.0833
 3015TIP3   OH230535   5.087   1.292  15.551  0.0875 -0.1869 -0.6768
 3015TIP3    H130536   5.064   1.293  15.644  2.5263 -0.4339 -0.0052
 3015TIP3    H230537   5.115   1.202  15.534  0.4806  0.0680 -1.4270
 3016TIP3   OH230538   4.275   5.670  15.629 -0.0230 -0.2563  0.1414
 3016TIP3    H130539   4.270   5.754  15.584 -0.7212  0.7378  1.9729
 3016TIP3    H230540   4.368   5.647  15.624  0.1692  0.5760 -0.4685
 3017TIP3   OH230541   3.653   5.408  12.480  0.0088 -0.4777  0.2778
 3017TIP3    H130542   3.608   5.373  12.557 -0.3190  0.8978  0.7475
 3017TIP3    H230543   3.635   5.502  12.483  1.0612 -0.2178 -0.7735
 3018TIP3   OH230544   1.131   5.391   0.019  0.0742 -0.1091 -0.1276
 3018TIP3    H130545   1.160   5.359  -0.067 -0.0668 -1.8893  0.4418
 3018TIP3    H230546   1.210   5.424   0.061  0.2595  0.1534 -0.6715
 3019TIP3   OH230547   2.140   6.782   5.926 -0.0873  0.5078 -0.1207
 3019TIP3    H130548   2.230   6.811   5.940  0.3843 -0.0267 -1.8258
 3019TIP3    H230549   2.147   6.707   5.868 -1.6325  0.2781 -0.0631
 3020TIP3   OH230550   1.112   5.661   2.322  0.3580 -0.3902 -0.5541
 3020TIP3    H130551   1.140   5.702   2.240  0.8695 -0.6488 -0.5125
 3020TIP3    H230552   1.038   5.714   2.351  0.3587 -0.1195 -1.0308
 3021TIP3   OH230553   3.728   2.368  14.538 -0.8421  0.3608  0.3949
 3021TIP3    H130554   3.654   2.410  14.580 -0.4527  0.7107  0.7399
 3021TIP3    H230555   3.693   2.285  14.505 -1.0524 -0.1273  1.7923
 3022TIP3   OH230556   5.847   0.867  16.774 -0.4985 -0.4398 -0.0887
 3022TIP3    H130557   5.931   0.827  16.797 -0.7665 -1.2947 -0.5808
 3022TIP3    H230558   5.867   0.922  16.698 -0.0657  0.6466  0.7848
 3023TIP3   OH230559   1.852   3.447   0.515  0.1369  0.2621 -0.4757
 3023TIP3    H130560   1.900   3.530   0.513  0.5318  0.0281 -2.3084
 3023TIP3    H230561   1.814   3.444   0.603  2.3625  1.0813  0.5883
 3024TIP3   OH230562   3.345   0.376   4.004 -0.7240  0.0040  0.0670
 3024TIP3    H130563   3.439   0.360   3.994 -0.3730  1.7315  0.2696
 3024TIP3    H230564   3.307   0.350   3.920  0.1835  0.8581 -0.6347
 3025TIP3   OH230565   5.103   5.650  14.147  0.1713  0.4089 -0.2101
 3025TIP3    H130566   5.116   5.722  14.085 -0.5575  0.5158 -0.2495
 3025TIP3    H230567   5.101   5.692  14.233  1.0441  0.2768 -0.1198
 3026TIP3   OH230568   0.996   2.335  13.705 -0.4021  0.2718  0.1757
 3026TIP3    H130569   0.976   2.242  13.721 -1.1056  0.7912  2.6977
 3026TIP3    H230570   0.917   2.370  13.664 -1.1094  0.2732  1.5115
 3027TIP3   OH230571   4.766   0.553   3.763 -0.7011  0.1038  0.9190
 3027TIP3    H130572   4.685   0.585   3.721 -1.4995 -1.7370  0.9459
 3027TIP3    H230573   4.836   0.594   3.713 -1.6410  1.4460  0.6361
 3028TIP3   OH230574   4.207   5.037  16.893 -0.3508  0.1723  0.1798
 3028TIP3    H130575   4.299   5.051  16.914 -0.4001  0.2105  0.3724
 3028TIP3    H230576   4.208   4.978  16.817 -0.1397  1.2415 -0.6765
 3029TIP3   OH230577   5.954   5.613  16.149  0.0355  0.4105  0.3491
 3029TIP3    H130578   5.983   5.541  16.205  0.3872  0.2313 -0.0528
 3029TIP3    H230579   5.914   5.676  16.209  2.9671  1.5767  1.2599
 3030TIP3   OH230580   1.234   5.625   5.150  0.2792 -0.1035  0.3889
 3030TIP3    H130581   1.186   5.614   5.068 -0.0915 -0.1805  0.6155
 3030TIP3    H230582   1.201   5.707   5.186  1.9467  1.0466 -0.5494
 3031TIP3   OH230583   1.228   6.815   5.877 -0.0157  0.0465  0.1126
 3031TIP3    H130584   1.211   6.758   5.801 -0.7468  0.1751  0.1773
 3031TIP3    H230585   1.164   6.788   5.942 -1.3723  1.8999 -0.3637
 3032TIP3   OH230586   6.783   1.296  13.949 -0.4083  0.3038  0.0890
 3032TIP3    H130587   6.806   1.214  13.992  1.0972  0.5536 -0.2059
 3032TIP3    H230588   6.757   1.354  14.020 -0.4296 -0.0917  0.4043
 3033TIP3   OH230589   3.283   2.694  13.143 -0.1472 -0.1393  0.1475
 3033TIP3    H130590   3.345   2.738  13.085 -1.0940  1.0377 -0.0221
 3033TIP3    H230591   3.213   2.758  13.155 -2.5631 -2.2079 -1.6393
 3034TIP3   OH230592   4.741   6.627  14.554 -0.1960  0.3102  0.1846
 3034TIP3    H130593   4.761   6.628  14.648  2.3266  2.1002 -0.2973
 3034TIP3    H230594   4.682   6.702  14.542 -1.7882 -0.8201  0.4893
 3035TIP3   OH230595   5.978   2.499  13.096 -0.0391 -0.4442  0.1904
 3035TIP3    H130596   5.994   2.459  13.181  0.3665 -0.4416  0.1201
 3035TIP3    H230597   5.898   2.458  13.063 -1.4387  1.0862  1.5039
 3036TIP3   OH230598   4.473   4.133   2.725 -0.4580  0.1668 -0.4787
 3036TIP3    H130599   4.484   4.038   2.724  0.8450  0.3010 -0.3031
 3036TIP3    H230600   4.449   4.154   2.815 -2.2588 -0.1243 -0.8522
 3037TIP3   OH230601   4.223   4.577   5.532  0.3735  0.9434  0.5436
 3037TIP3    H130602   4.130   4.555   5.529  0.9309 -1.7864  0.5316
 3037TIP3    H230603   4.226   4.672   5.521 -2.2315  0.8354 -3.1808
 3038TIP3   OH230604   6.284   6.459   3.966  0.0719  0.0998 -0.1584
 3038TIP3    H130605   6.256   6.448   3.876 -0.6803  0.3646  0.0355
 3038TIP3    H230606   6.231   6.397   4.016 -1.0429  1.4015  0.3602
 3039TIP3   OH230607   4.345   3.243   4.387  0.2500  0.1313  0.5425
 3039TIP3    H130608   4.434   3.270   4.411 -0.2158  1.2659  1.0441
 3039TIP3    H230609   4.311   3.317   4.337  0.1970 -1.0292 -1.2128
 3040TIP3   OH230610   6.149   0.372  16.545 -0.5209  0.3634 -0.7949
 3040TIP3    H130611   6.190   0.366  16.459  0.7729 -1.2933 -0.1199
 3040TIP3    H230612   6.098   0.291  16.553 -0.6084  0.4859 -0.0038
 3041TIP3   OH230613   4.623   2.477  13.349  0.1245  0.1400 -0.1228
 3041TIP3    H130614   4.641   2.461  13.257  0.0272 -0.6764 -0.0058
 3041TIP3    H230615   4.709   2.497  13.387  0.4653 -1.3420 -0.0419
 3042TIP3   OH230616   2.042   0.367  14.725  0.5709 -0.5510 -0.3710
 3042TIP3    H130617   1.955   0.404  14.741  1.4119  0.3640  2.6830
 3042TIP3    H230618   2.086   0.434  14.671 -0.1991 -0.4743 -0.9330
 3043TIP3   OH230619   6.732   5.240   0.195  0.2474  0.0592 -0.1822
 3043TIP3    H130620   6.683   5.318   0.168  0.3045  0.9216  2.0052
 3043TIP3    H230621   6.680   5.167   0.162  0.5277  0.9494 -2.8720
 3044TIP3   OH230622   6.029   3.330   5.925  0.1278 -0.1586 -0.1746
 3044TIP3    H130623   5.938   3.332   5.955  0.7078  0.9143  1.6854
 3044TIP3    H230624   6.044   3.417   5.888 -0.3706 -1.2395 -3.2294
 3045TIP3   OH230625   4.817   5.910  11.433  0.2490  0.1123 -0.1294
 3045TIP3    H130626   4.893   5.964  11.458  0.7733 -0.8925  0.5120
 3045TIP3    H230627   4.846   5.865  11.353  1.0148 -1.5710  1.0353
 3046TIP3   OH230628   0.105   4.050  15.188  0.5411 -0.0852 -0.8302
 3046TIP3    H130629   0.059   4.113  15.133 -0.3248 -0.4180 -0.5014
 3046TIP3    H230630   0.091   3.965  15.146  0.3044 -0.2745 -0.3786
 3047TIP3   OH230631   2.767   6.710   4.653  0.5048  0.0881 -0.7456
 3047TIP3    H130632   2.842   6.770   4.651 -1.4787  2.7689  0.0058
 3047TIP3    H230633   2.773   6.666   4.738  0.9422  0.6364 -0.4887
 3048TIP3   OH230634   5.434   1.735  13.997  0.1355  0.6117 -0.0832
 3048TIP3    H130635   5.529   1.749  14.003  0.3870 -0.3121 -1.4993
 3048TIP3    H230636   5.422   1.681  13.919 -1.3453 -1.2242  1.2939
 3049TIP3   OH230637   1.231   2.498   1.621  0.2904 -0.0668  0.4258
 3049TIP3    H130638   1.204   2.406   1.631  2.6463 -0.8622  0.2442
 3049TIP3    H230639   1.149   2.547   1.616 -1.1147 -2.3949 -1.7630
 3050TIP3   OH230640   6.005   2.650  14.380  0.3744 -0.2702 -0.0069
 3050TIP3    H130641   6.091   2.665  14.341 -0.0905 -1.8760 -1.7658
 3050TIP3    H230642   5.980   2.736  14.417  0.7508  1.5063 -3.4962
 3051TIP3   OH230643   0.499   5.351   5.522  0.4079  0.0197  0.0268
 3051TIP3    H130644   0.419   5.300   5.534  0.2746 -0.0118 -0.9439
 3051TIP3    H230645   0.496   5.380   5.431  2.1693 -1.1376 -0.4400
 3052TIP3   OH230646   4.640   0.718   2.105 -0.3805  0.2265 -0.8109
 3052TIP3    H130647   4.567   0.671   2.064 -1.0553  1.1173 -0.6780
 3052TIP3    H230648   4.615   0.724   2.197  0.7756 -1.1145 -0.3851
 3053TIP3   OH230649   3.418   5.091   3.227 -0.5515 -0.4478 -0.3295
 3053TIP3    H130650   3.359   5.099   3.151  1.4036 -2.3221 -2.1797
 3053TIP3    H230651   3.380   5.020   3.279 -2.0462  1.0141  0.6929
 3054TIP3   OH230652   0.631   0.754  13.601 -0.3159  0.2978  0.2267
 3054TIP3    H130653   0.596   0.839  13.628 -0.0844  0.1515  0.9926
 3054TIP3    H230654   0.553   0.699  13.592 -0.7092  1.1346 -2.4096
 3055TIP3   OH230655   4.978   0.563   4.112  0.3956 -0.5168  0.0223
 3055TIP3    H130656   4.909   0.626   4.094  0.0743 -0.7590  0.3842
 3055TIP3    H230657   4.956   0.487   4.058  1.3846  0.0728 -1.2624
 3056TIP3   OH230658   5.014   3.702  16.413  0.1763 -0.2494 -0.3212
 3056TIP3    H130659   5.085   3.642  16.435 -0.1250 -0.3762  0.3225
 3056TIP3    H230660   5.013   3.766  16.483  0.6879  0.7066 -1.1591
 3057TIP3   OH230661   4.499   1.914   2.568  0.0181  0.2485  0.3739
 3057TIP3    H130662   4.415   1.910   2.522 -0.2886 -0.5661  0.9883
 3057TIP3    H230663   4.486   1.979   2.637  0.2064  0.8295 -0.1238
 3058TIP3   OH230664   1.714   1.071  16.627 -0.0623  0.2401 -0.4024
 3058TIP3    H130665   1.676   1.127  16.559 -0.7298 -0.3954 -0.5741
 3058TIP3    H230666   1.738   1.132  16.698  0.8568  0.9343 -1.2861
 3059TIP3   OH230667   3.221   3.450   1.203  0.5333  0.4387  0.1078
 3059TIP3    H130668   3.169   3.509   1.258  0.0278 -0.6723  0.8592
 3059TIP3    H230669   3.242   3.502   1.126  0.7606  1.8473  1.0860
 3060TIP3   OH230670   2.803   6.688  12.307 -0.1623  0.1287  0.4768
 3060TIP3    H130671   2.831   6.612  12.358 -0.4176  0.8818  1.7942
 3060TIP3    H230672   2.714   6.705  12.337 -0.8263 -0.1980 -1.2139
 3061TIP3   OH230673   1.606   1.380   4.881 -0.4805 -0.1228 -0.1725
 3061TIP3    H130674   1.579   1.294   4.846 -1.4058 -0.6563  1.6969
 3061TIP3    H230675   1.702   1.380   4.874 -0.4740 -1.2824 -0.2963
 3062TIP3   OH230676   3.247   0.010   0.908  0.0278  0.1477  0.0115
 3062TIP3    H130677   3.208   0.081   0.857  3.1775  1.9134 -0.1895
 3062TIP3    H230678   3.282  -0.050   0.842 -1.4953 -0.9936  0.1887
 3063TIP3   OH230679   2.594   5.872  14.749  0.2276 -0.1496  0.4626
 3063TIP3    H130680   2.632   5.819  14.678 -0.6561  0.7658 -0.7344
 3063TIP3    H230681   2.663   5.877  14.814  1.2977 -0.5282 -0.5966
 3064TIP3   OH230682   1.213   6.792  15.699  0.1145 -0.5161 -0.4075
 3064TIP3    H130683   1.191   6.767  15.609 -1.2174 -1.0248  0.0537
 3064TIP3    H230684   1.133   6.830  15.734  0.9829  0.9001  0.1725
 3065TIP3   OH230685   4.292   5.852  16.472  0.0848 -0.2237  1.0399
 3065TIP3    H130686   4.356   5.921  16.455 -0.2035 -0.3962 -0.9267
 3065TIP3    H230687   4.337   5.792  16.533  2.0686 -0.6623 -0.7498
 3066TIP3   OH230688   1.480   1.629  13.034 -0.2535  0.1939 -0.1730
 3066TIP3    H130689   1.411   1.572  13.000  0.0415 -0.5179  0.4032
 3066TIP3    H230690   1.477   1.617  13.129  0.1656  0.7369 -0.0835
 3067TIP3   OH230691   5.475   1.947  13.311  0.0095 -0.3964  0.1727
 3067TIP3    H130692   5.412   1.876  13.301  0.5237 -0.7687 -0.4536
 3067TIP3    H230693   5.538   1.915  13.375  0.6319 -0.7971 -0.6208
 3068TIP3   OH230694   5.112   4.328   0.881 -0.0576  0.1816 -0.4358
 3068TIP3    H130695   5.169   4.356   0.953  0.0616 -1.5239  0.1770
 3068TIP3    H230696   5.160   4.256   0.839 -0.5713  0.5074 -1.6251
 3069TIP3   OH230697   3.972   3.189   3.487 -0.1054  0.9500  0.1764
 3069TIP3    H130698   4.066   3.188   3.470 -0.3662  0.5487 -1.4107
 3069TIP3    H230699   3.959   3.125   3.556  0.4450 -1.3857 -1.7617
 3070TIP3   OH230700   6.063   0.361   1.453 -0.4528  0.2932  0.0969
 3070TIP3    H130701   6.158   0.361   1.464 -0.5973 -1.5021  1.6777
 3070TIP3    H230702   6.047   0.432   1.390  2.0932 -0.7680 -1.9265
 3071TIP3   OH230703   5.138   0.697   1.260 -0.3813 -0.2912  0.3795
 3071TIP3    H130704   5.197   0.640   1.211  2.0151  0.4497  2.1908
 3071TIP3    H230705   5.100   0.640   1.327 -0.3824 -0.4010  0.2852
 3072TIP3   OH230706   5.277   1.201  14.851  0.1992 -0.3690  0.1420
 3072TIP3    H130707   5.258   1.293  14.868 -1.6246 -0.6902  0.0762
 3072TIP3    H230708   5.363   1.201  14.810  1.9280  0.9650  3.4449
 3073TIP3   OH230709   1.781   5.154  14.393  0.0183 -0.0003  0.0398
 3073TIP3    H130710   1.723   5.099  14.340 -0.1770 -0.1917  0.4425
 3073TIP3    H230711   1.864   5.107  14.393 -0.4546 -0.9327  1.3303
 3074TIP3   OH230712   4.534   0.794   3.892  0.1265  0.5079 -0.5749
 3074TIP3    H130713   4.555   0.852   3.819  2.0276  0.2577 -0.2770
 3074TIP3    H230714   4.547   0.706   3.858 -0.2884  0.3340 -0.3028
 3075TIP3   OH230715   6.397   1.994   0.424 -0.5581  0.2737 -0.1142
 3075TIP3    H130716   6.304   1.974   0.431 -1.0215  2.4194  0.5374
 3075TIP3    H230717   6.427   1.944   0.348 -2.3829 -0.0036 -0.6854
 3076TIP3   OH230718   3.106   6.156  12.581 -0.5554  0.8140  0.0578
 3076TIP3    H130719   3.103   6.068  12.619 -1.5520  1.0909  0.6603
 3076TIP3    H230720   3.069   6.213  12.649  0.8694  1.8414  0.0151
 3077TIP3   OH230721   0.072   1.903  16.987  0.3245 -0.2246 -0.0973
 3077TIP3    H130722   0.104   1.957  16.915  2.2227 -1.1145  0.0082
 3077TIP3    H230723   0.118   1.936  17.064  0.5042 -1.1042  0.1867
 3078TIP3   OH230724   2.612   1.547  14.647  0.2208 -0.1473 -0.5608
 3078TIP3    H130725   2.567   1.485  14.590 -0.3018  1.8566 -2.4573
 3078TIP3    H230726   2.544   1.609  14.675  1.1082  0.8782 -0.5885
 3079TIP3   OH230727   3.199   4.996   1.524  0.4875  0.2781  0.4250
 3079TIP3    H130728   3.120   4.944   1.539  0.9509 -1.2032 -1.7981
 3079TIP3    H230729   3.192   5.023   1.432  2.1067  0.9545  0.4674
 3080TIP3   OH230730   5.418   0.098  12.627 -0.0058  0.5176  0.4455
 3080TIP3    H130731   5.476   0.028  12.659 -2.1718 -0.7364  1.9204
 3080TIP3    H230732   5.442   0.108  12.535 -0.8595 -3.6875 -0.4629
 3081TIP3   OH230733   5.082   3.419  14.282  0.2349 -0.1991  0.3405
 3081TIP3    H130734   5.096   3.513  14.274 -0.9177  0.0062  0.5961
 3081TIP3    H230735   5.031   3.395  14.205  1.0215 -0.7316 -0.0247
 3082TIP3   OH230736   3.784   6.627   3.308  1.0125 -0.2395  0.1003
 3082TIP3    H130737   3.690   6.631   3.292  1.2467  0.5761 -1.2111
 3082TIP3    H230738   3.792   6.614   3.403 -0.4127 -0.9235  0.1400
 3083TIP3   OH230739   3.130   4.742   0.916  0.1980 -0.0575  0.6428
 3083TIP3    H130740   3.171   4.803   0.978  0.8242 -0.1030  0.2850
 3083TIP3    H230741   3.039   4.736   0.945 -0.0461  1.5604  0.3101
 3084TIP3   OH230742   2.518   0.370  16.245  0.1282  0.1537 -0.1365
 3084TIP3    H130743   2.490   0.421  16.321  0.7173 -0.9415  0.8574
 3084TIP3    H230744   2.585   0.311  16.279  0.1807 -0.5907 -1.4423
 3085TIP3   OH230745   5.763   2.964  12.656 -0.5123 -0.4609 -0.1288
 3085TIP3    H130746   5.718   3.042  12.623  1.9394  0.3370 -1.8303
 3085TIP3    H230747   5.837   2.997  12.705 -0.3666 -1.7459  0.5541
 3086TIP3   OH230748   0.351   5.015   2.550 -0.4909  0.2403 -0.0622
 3086TIP3    H130749   0.426   5.071   2.569 -0.8851  0.4162  1.1205
 3086TIP3    H230750   0.311   5.000   2.636  0.0385 -2.5043 -0.2129
 3087TIP3   OH230751   3.602   4.394  15.153  0.1663  0.5501 -0.0333
 3087TIP3    H130752   3.582   4.313  15.107  0.8740 -1.1043  2.3848
 3087TIP3    H230753   3.690   4.417  15.124 -0.6923  1.5849 -2.1062
 3088TIP3   OH230754   1.813   6.383   1.482  0.0162  0.1680  0.2880
 3088TIP3    H130755   1.763   6.377   1.401  1.5504 -1.9373 -0.6251
 3088TIP3    H230756   1.856   6.468   1.478 -1.9814  1.2144  0.2125
 3089TIP3   OH230757   2.275   1.534  13.139  0.0855  0.2542  0.3392
 3089TIP3    H130758   2.335   1.519  13.212  1.6858  2.6960 -0.3594
 3089TIP3    H230759   2.240   1.621  13.154 -1.0497  0.0363 -0.8233
 3090TIP3   OH230760   4.149   2.623   0.784  0.4260  0.0739 -0.3036
 3090TIP3    H130761   4.189   2.587   0.863 -1.6848 -0.5142  0.5690
 3090TIP3    H230762   4.150   2.550   0.721 -0.8891 -0.5497  0.3556
 3091TIP3   OH230763   5.341   6.086   1.472 -0.4400  0.2252  0.2812
 3091TIP3    H130764   5.357   6.165   1.421  0.3632 -0.9615 -1.3643
 3091TIP3    H230765   5.415   6.029   1.453 -2.3251 -2.0188 -0.7595
 3092TIP3   OH230766   0.680   1.688  11.934  0.7591  0.1246  0.2395
 3092TIP3    H130767   0.752   1.655  11.881 -0.1938 -0.0934 -0.9675
 3092TIP3    H230768   0.703   1.664  12.024  1.9685 -0.3150 -0.1752
 3093TIP3   OH230769   0.461   1.910   6.045 -0.0585  0.6613 -0.0926
 3093TIP3    H130770   0.545   1.956   6.046 -0.6267  1.7473 -0.5500
 3093TIP3    H230771   0.426   1.922   6.133  0.4753 -0.1926  0.2363
 3094TIP3   OH230772   5.057   2.729   4.119  0.1295  0.2089  0.1978
 3094TIP3    H130773   5.070   2.818   4.087 -4.4825  1.0113 -0.1798
 3094TIP3    H230774   5.028   2.680   4.042 -4.1272  0.3747  1.4125
 3095TIP3   OH230775   5.315   6.073  12.181  0.1324  0.4362  0.1382
 3095TIP3    H130776   5.374   5.998  12.175  0.3561  0.3521  2.4821
 3095TIP3    H230777   5.294   6.095  12.090  0.2608 -2.2845 -0.6176
 3096TIP3   OH230778   1.298   2.709   5.355  0.3452  0.3240  0.5994
 3096TIP3    H130779   1.374   2.738   5.304 -0.1881  0.5811 -0.0651
 3096TIP3    H230780   1.326   2.718   5.447 -0.2678  4.5237  0.5783
 3097TIP3   OH230781   2.761   5.977  11.630 -0.4629 -0.1331 -0.0239
 3097TIP3    H130782   2.773   5.883  11.616 -0.5139 -0.2493  0.6592
 3097TIP3    H230783   2.771   6.016  11.543 -2.8126 -1.0043 -0.7745
 3098TIP3   OH230784   1.178   0.717  13.828 -0.2034  0.2713 -0.5035
 3098TIP3    H130785   1.225   0.755  13.902 -0.0255 -0.2695 -0.3340
 3098TIP3    H230786   1.240   0.654  13.791 -0.4377  0.2534 -0.8692
 3099TIP3   OH230787   2.243   4.795   3.191 -0.1414  0.0928 -0.1769
 3099TIP3    H130788   2.307   4.750   3.247  1.2281  0.7066 -1.1946
 3099TIP3    H230789   2.234   4.737   3.115  0.6516  0.8911 -0.8982
 3100TIP3   OH230790   4.537   0.338  12.651 -0.3845 -0.2376  0.2136
 3100TIP3    H130791   4.510   0.261  12.699 -0.4749 -0.2835  0.0903
 3100TIP3    H230792   4.455   0.381  12.626 -0.3289  0.0968  0.6004
 3101TIP3   OH230793   3.817   0.966   3.028  0.1852  0.5315  0.5524
 3101TIP3    H130794   3.871   1.043   3.008 -0.5785  0.9714  0.1177
 3101TIP3    H230795   3.757   0.996   3.097 -2.0485  1.2633 -1.5584
 3102TIP3   OH230796   2.405   2.357   6.724 -0.0674  0.2799  0.5345
 3102TIP3    H130797   2.418   2.298   6.798 -0.0247  0.0486  0.3467
 3102TIP3    H230798   2.474   2.334   6.662 -0.7197 -0.2533 -0.0253
 3103TIP3   OH230799   1.124   4.441  15.923 -0.0203 -0.0741 -0.3752
 3103TIP3    H130800   1.212   4.434  15.960  0.8302 -0.8772 -2.3799
 3103TIP3    H230801   1.132   4.509  15.856 -0.4062 -1.3999 -1.8265
 3104TIP3   OH230802   0.739   0.718  15.295 -0.0042  0.3391  0.0717
 3104TIP3    H130803   0.714   0.627  15.304 -0.3206  0.2065 -1.8222
 3104TIP3    H230804   0.793   0.736  15.373  0.0651 -1.4439  0.4681
 3105TIP3   OH230805   6.097   0.099  13.861  0.2687  0.3657  0.0057
 3105TIP3    H130806   6.091   0.013  13.820  1.4009  0.3534 -0.1435
 3105TIP3    H230807   6.115   0.081  13.953  1.1667  0.4449 -0.1484
 3106TIP3   OH230808   0.312   1.775   3.249  0.0501  0.1192  0.2816
 3106TIP3    H130809   0.240   1.834   3.268 -0.2842  0.4518 -1.7625
 3106TIP3    H230810   0.309   1.710   3.319 -3.0490 -0.6267 -0.3900
 3107TIP3   OH230811   5.867   4.220   4.647  0.3961  0.2876  0.0398
 3107TIP3    H130812   5.931   4.221   4.576 -1.2956 -0.4279 -1.5643
 3107TIP3    H230813   5.841   4.311   4.657 -0.2792  0.2450 -1.1684
 3108TIP3   OH230814   0.728   1.031  15.636  0.5475  0.3014  0.0894
 3108TIP3    H130815   0.703   1.112  15.680  0.2567 -1.2268  2.9630
 3108TIP3    H230816   0.695   1.041  15.547 -0.4857  2.8497  0.6702
 3109TIP3   OH230817   5.391   5.062   5.915  0.2406 -0.6003  0.1948
 3109TIP3    H130818   5.302   5.089   5.891 -0.1446 -0.3367  1.7928
 3109TIP3    H230819   5.422   5.130   5.974  1.0949 -1.2360  0.5077
 3110TIP3   OH230820   0.966   2.659  14.396  0.1180 -0.0235 -0.0782
 3110TIP3    H130821   0.993   2.658  14.304 -0.9946  1.2223 -0.4490
 3110TIP3    H230822   0.879   2.618  14.396 -1.5945  3.3027 -0.2444
 3111TIP3   OH230823   1.847   3.696   0.255  0.3709  0.2398  0.0173
 3111TIP3    H130824   1.943   3.695   0.254  0.3980  0.3607 -2.0261
 3111TIP3    H230825   1.825   3.746   0.334  1.9361 -0.8336  1.2040
 3112TIP3   OH230826   5.575   4.871   4.938  0.2870 -0.0468  0.3736
 3112TIP3    H130827   5.647   4.908   4.886  0.4050  0.0135  0.5769
 3112TIP3    H230828   5.562   4.933   5.009 -1.5667  1.1808 -0.9544
 3113TIP3   OH230829   1.224   3.360  15.592  0.0848  0.1202 -0.0203
 3113TIP3    H130830   1.289   3.399  15.534 -1.4685  2.9457 -0.0056
 3113TIP3    H230831   1.244   3.394  15.679  0.2598 -1.2890  0.5299
 3114TIP3   OH230832   3.571   0.629  10.459  0.4167  0.2715 -0.6926
 3114TIP3    H130833   3.543   0.560  10.399 -0.4527 -0.4516  0.4956
 3114TIP3    H230834   3.495   0.645  10.515  1.4595  0.2305  0.8202
 3115TIP3   OH230835   4.009   0.049   4.187  0.6696 -0.6754  0.0207
 3115TIP3    H130836   4.017  -0.025   4.247  0.5245 -0.5806  0.1549
 3115TIP3    H230837   3.932   0.097   4.217 -0.5141 -1.6257 -1.3081
 3116TIP3   OH230838   0.363   3.158  12.374  0.2452  0.3391 -0.2545
 3116TIP3    H130839   0.413   3.231  12.412 -2.4500  1.6200  1.1553
 3116TIP3    H230840   0.423   3.084  12.376  2.2356  1.8777  0.7987
 3117TIP3   OH230841   5.428   6.596  14.534 -0.2277 -0.2326 -0.1829
 3117TIP3    H130842   5.338   6.623  14.514 -0.7219 -1.3576  0.4497
 3117TIP3    H230843   5.435   6.509  14.496 -0.2552 -1.2291  1.9746
 3118TIP3   OH230844   1.245   5.162  15.644  0.3492  0.1170 -0.1319
 3118TIP3    H130845   1.262   5.233  15.582  1.0161 -0.2239 -0.3590
 3118TIP3    H230846   1.151   5.146  15.639  0.1629  1.0955  0.0506
 3119TIP3   OH230847   6.137   1.565  10.355  0.1694 -0.0534 -0.1612
 3119TIP3    H130848   6.202   1.630  10.381  0.9212  0.0127 -2.0119
 3119TIP3    H230849   6.068   1.615  10.312 -0.1237 -0.3219 -0.0118
 3120TIP3   OH230850   4.772   6.407  12.874  0.3374 -0.1034 -0.4500
 3120TIP3    H130851   4.723   6.460  12.938 -1.6531  0.4853 -2.3366
 3120TIP3    H230852   4.859   6.446  12.872  0.1188  0.5493  1.0897
 3121TIP3   OH230853   6.692   3.921  10.899 -0.9711  0.5526 -0.2127
 3121TIP3    H130854   6.611   3.882  10.931 -1.2467 -1.4978 -3.0446
 3121TIP3    H230855   6.663   3.985  10.834 -0.3380  0.3880 -0.6647
 3122TIP3   OH230856   4.663   0.741  16.835  0.3234  0.1741  0.8247
 3122TIP3    H130857   4.586   0.700  16.797 -0.2254  0.5988  1.4573
 3122TIP3    H230858   4.720   0.760  16.760 -0.9544  1.4432  0.1279
 3123TIP3   OH230859   1.830   1.012  15.742 -0.1391 -0.2638 -0.1605
 3123TIP3    H130860   1.900   0.955  15.710  0.3294  1.0452 -1.6190
 3123TIP3    H230861   1.751   0.977  15.700  0.1218  0.0570 -0.9369
 3124TIP3   OH230862   2.156   3.330   0.024  0.3259 -0.2286 -0.5826
 3124TIP3    H130863   2.069   3.365   0.043  0.6574 -0.1433  0.9117
 3124TIP3    H230864   2.167   3.259   0.087  1.2007 -0.4846 -1.0136
 3125TIP3   OH230865   0.604   1.760  14.509  0.0352 -0.2697 -0.5403
 3125TIP3    H130866   0.528   1.741  14.454 -0.3561  0.2953 -0.2082
 3125TIP3    H230867   0.579   1.727  14.595 -1.1451  2.6085  0.3605
 3126TIP3   OH230868   2.972   5.809   1.780 -0.8347 -0.2760  0.0653
 3126TIP3    H130869   2.915   5.739   1.813 -2.5012  0.7523 -0.5181
 3126TIP3    H230870   2.943   5.888   1.825  1.1820  0.0616  0.8920
 3127TIP3   OH230871   0.538   6.710  16.916 -0.1188  0.0381 -0.1867
 3127TIP3    H130872   0.509   6.728  17.006 -0.9319  0.5409 -0.5440
 3127TIP3    H230873   0.612   6.649  16.927 -0.9698 -0.8705  0.7723
 3128TIP3   OH230874   5.279   3.760  12.740  0.3385 -0.1218 -0.3019
 3128TIP3    H130875   5.289   3.811  12.660  0.5886 -0.4272 -0.4650
 3128TIP3    H230876   5.197   3.713  12.729  0.1907  0.1168 -0.2223
 3129TIP3   OH230877   5.756   6.034   0.244 -0.4536 -0.0647 -0.2981
 3129TIP3    H130878   5.666   6.009   0.268 -1.7312  1.6465 -2.8284
 3129TIP3    H230879   5.774   6.112   0.296 -0.2798 -0.5731  0.4253
 3130TIP3   OH230880   2.771   3.745   5.056 -0.5278 -0.3028  0.0846
 3130TIP3    H130881   2.762   3.801   5.133 -1.4102  0.6548 -0.6817
 3130TIP3    H230882   2.855   3.701   5.068  0.1873  1.1744  0.7279
 3131TIP3   OH230883   3.486   4.025   1.112 -0.1667  0.1166 -0.2051
 3131TIP3    H130884   3.481   4.112   1.151 -0.4977  0.2076 -0.4406
 3131TIP3    H230885   3.411   3.978   1.148 -0.0759 -0.0203 -0.1942
 3132TIP3   OH230886   5.539   0.129  11.123  0.1628  0.3873 -0.0830
 3132TIP3    H130887   5.468   0.082  11.166  1.0701 -0.5574  0.4505
 3132TIP3    H230888   5.585   0.062  11.071  0.6484  0.9710 -0.4211
 3133TIP3   OH230889   0.811   2.885  12.411  0.0620  0.0310 -0.0575
 3133TIP3    H130890   0.765   2.802  12.420  0.9932 -0.6095 -0.9547
 3133TIP3    H230891   0.757   2.948  12.460 -1.7467 -0.6640 -1.0611
 3134TIP3   OH230892   5.420   1.393  16.466 -0.0583  0.0323  0.2240
 3134TIP3    H130893   5.395   1.312  16.511  0.2989 -0.0220  0.3304
 3134TIP3    H230894   5.404   1.374  16.373 -0.9501  0.2021  0.3331
 3135TIP3   OH230895   3.089   0.804   0.554  0.5929 -0.3413 -0.7049
 3135TIP3    H130896   3.095   0.888   0.509 -0.1838  0.4997  0.7042
 3135TIP3    H230897   3.049   0.824   0.638 -0.5601 -2.2802 -0.7272
 3136TIP3   OH230898   1.267   5.942   5.460  0.6688 -0.1548  0.2330
 3136TIP3    H130899   1.252   5.921   5.552  0.8959  0.1634  0.3450
 3136TIP3    H230900   1.293   6.034   5.461  1.7104 -0.4400 -0.0469
 3137TIP3   OH230901   4.109   0.207  15.073 -0.0026  0.7901  0.0164
 3137TIP3    H130902   4.084   0.172  14.988 -2.5610  1.7194  0.2913
 3137TIP3    H230903   4.096   0.302  15.065  0.9699  1.0407  1.0644
 3138TIP3   OH230904   1.396   0.007  12.753  0.4378 -0.2319 -0.4540
 3138TIP3    H130905   1.404   0.098  12.782  0.0895  0.2451 -1.7972
 3138TIP3    H230906   1.381   0.013  12.659  1.3014 -1.7266 -0.7098
 3139TIP3   OH230907   5.386   2.460   5.496 -0.5114  0.1940 -0.4004
 3139TIP3    H130908   5.454   2.418   5.549 -0.0641 -0.2856 -1.3282
 3139TIP3    H230909   5.409   2.553   5.496  0.4304 -0.0201 -1.0845
 3140TIP3   OH230910   0.495   3.372  12.146  0.5603  0.3837  0.4141
 3140TIP3    H130911   0.466   3.350  12.234  1.7381  2.1987  1.3068
 3140TIP3    H230912   0.590   3.367  12.149  0.6060 -0.5527 -1.0875
 3141TIP3   OH230913   3.438   6.239   1.773  0.9938 -0.3739  0.2623
 3141TIP3    H130914   3.360   6.194   1.802  1.2260 -0.3541  0.9266
 3141TIP3    H230915   3.437   6.230   1.677 -0.8399  1.2994  0.0689
 3142TIP3   OH230916   5.512   3.290   4.447  0.1720  0.2250  0.4270
 3142TIP3    H130917   5.537   3.236   4.371  1.2206  0.3196  0.6927
 3142TIP3    H230918   5.418   3.304   4.436  0.6876  2.3843 -2.2549
 3143TIP3   OH230919   6.052   3.830   5.533  0.1544 -0.2380  0.1645
 3143TIP3    H130920   6.143   3.839   5.560  0.6256 -0.8193 -1.1384
 3143TIP3    H230921   6.010   3.911   5.563  1.0216 -0.0932  1.0375
 3144TIP3   OH230922   3.369   0.364   1.864  0.0925 -0.0137  0.4105
 3144TIP3    H130923   3.451   0.413   1.855 -0.2643  0.4996 -0.0963
 3144TIP3    H230924   3.381   0.313   1.944  0.1145  1.6326  1.5084
 3145TIP3   OH230925   1.090   5.699  11.769  0.2480  0.2418  0.4138
 3145TIP3    H130926   1.057   5.675  11.682  1.2576  1.6298 -0.3851
 3145TIP3    H230927   1.043   5.640  11.829  0.2594 -1.4324 -1.1315
 3146TIP3   OH230928   3.463   3.160  13.743 -0.7022 -0.1204  0.1266
 3146TIP3    H130929   3.398   3.143  13.811 -1.3943 -0.9275 -0.7137
 3146TIP3    H230930   3.537   3.104  13.765 -1.2174 -0.9345 -0.1748
 3147TIP3   OH230931   3.786   1.249  14.876 -0.0323  0.3542 -0.0176
 3147TIP3    H130932   3.782   1.203  14.960 -0.7360 -1.0580 -0.7915
 3147TIP3    H230933   3.879   1.271  14.865 -0.0720  1.5037  1.5869
 3148TIP3   OH230934   4.826   5.893   0.738  1.1477 -0.0081 -0.0506
 3148TIP3    H130935   4.732   5.882   0.724  1.2143 -1.9347  0.6755
 3148TIP3    H230936   4.833   5.930   0.826  1.0413  3.0266 -1.1976
 3149TIP3   OH230937   4.751   4.284   3.801 -0.1975  0.1342  0.2302
 3149TIP3    H130938   4.782   4.364   3.844  0.0842  0.0672  0.1582
 3149TIP3    H230939   4.676   4.256   3.853  0.1266  0.0665  0.6725
 3150TIP3   OH230940   5.988   2.097  13.024 -0.0423  0.5081 -0.3143
 3150TIP3    H130941   5.967   2.070  13.114 -1.4510  0.3663 -0.6505
 3150TIP3    H230942   6.057   2.037  12.997 -0.2469 -0.0563  0.3691
 3151TIP3   OH230943   5.956   6.529  12.471 -0.4327 -0.1990  0.3885
 3151TIP3    H130944   6.002   6.609  12.443  0.3558 -0.4623  0.8999
 3151TIP3    H230945   5.864   6.550  12.458 -0.3811  1.5131  2.2369
 3152TIP3   OH230946   3.274   4.948  15.040 -0.5306 -0.2364 -0.2970
 3152TIP3    H130947   3.334   4.882  15.005 -0.4181  0.4819 -1.5670
 3152TIP3    H230948   3.213   4.964  14.968 -0.4846  1.0883 -0.0652
 3153TIP3   OH230949   0.780   3.860   3.717  0.1117 -0.1496 -0.4623
 3153TIP3    H130950   0.839   3.881   3.790  0.8175 -1.2136 -0.6991
 3153TIP3    H230951   0.698   3.835   3.759  0.6353 -1.1454  0.0236
 3154TIP3   OH230952   1.186   4.220   3.006 -0.5031 -0.2984  0.4391
 3154TIP3    H130953   1.269   4.187   2.971 -0.3076  1.4967 -0.9621
 3154TIP3    H230954   1.212   4.289   3.067 -0.9522  0.1346  0.1475
 3155TIP3   OH230955   6.106   4.766   2.828 -0.6811 -0.5242 -0.0328
 3155TIP3    H130956   6.114   4.845   2.776 -0.5134 -2.1811 -2.7440
 3155TIP3    H230957   6.014   4.741   2.820 -0.5847 -0.9696  0.2082
 3156TIP3   OH230958   3.118   3.271   5.306  0.1373 -0.4737 -0.7999
 3156TIP3    H130959   3.089   3.180   5.308  1.5751 -0.9523 -0.1899
 3156TIP3    H230960   3.046   3.320   5.345 -1.2643 -1.1403 -2.4223
 3157TIP3   OH230961   3.623   2.207  13.043  0.4804  0.3594 -0.5097
 3157TIP3    H130962   3.623   2.288  13.093  1.9674 -0.2819  0.6133
 3157TIP3    H230963   3.691   2.219  12.977  0.6960  0.0439 -0.3505
 3158TIP3   OH230964   6.169   4.082  12.571  0.6690  0.0042  0.0091
 3158TIP3    H130965   6.256   4.116  12.551  0.5495 -0.3984 -1.2777
 3158TIP3    H230966   6.109   4.154  12.549  0.4456 -0.8209 -2.3583
 3159TIP3   OH230967   0.095   0.441   2.391  0.5974  0.7887  0.3406
 3159TIP3    H130968   0.169   0.488   2.352  1.4427 -1.6188 -1.1977
 3159TIP3    H230969   0.135   0.380   2.452 -0.0071 -0.9661 -0.9451
 3160TIP3   OH230970   5.468   3.304  17.047  0.2196  0.0445 -0.3606
 3160TIP3    H130971   5.462   3.235  17.113  0.9238 -1.1127 -1.4595
 3160TIP3    H230972   5.398   3.365  17.070  0.8185  0.0135  1.8038
 3161TIP3   OH230973   3.922   2.477   5.587 -0.6958  0.3142  0.0130
 3161TIP3    H130974   3.970   2.560   5.579 -0.1526  0.2197  1.8088
 3161TIP3    H230975   3.830   2.502   5.583 -0.5906  1.2752  2.2529
 3162TIP3   OH230976   2.117   3.173  12.741  0.0454  0.0524  0.1585
 3162TIP3    H130977   2.172   3.243  12.706 -0.5562 -0.8872 -3.0183
 3162TIP3    H230978   2.028   3.206  12.732 -0.2430 -1.0398 -1.3678
 3163TIP3   OH230979   3.888   5.003   2.693  0.4857  0.1918 -0.5308
 3163TIP3    H130980   3.896   4.975   2.784 -2.5548  1.1583  0.1554
 3163TIP3    H230981   3.872   4.922   2.644  0.8516 -0.1880 -0.0370
 3164TIP3   OH230982   6.216   0.626   2.460 -0.5201 -0.1588  0.2374
 3164TIP3    H130983   6.291   0.661   2.411 -2.6079 -0.0961 -3.2629
 3164TIP3    H230984   6.196   0.694   2.524  1.4283  0.5117  0.2090
 3165TIP3   OH230985   0.546   0.437  13.787  0.2079  0.1008 -0.6235
 3165TIP3    H130986   0.525   0.528  13.809  0.6931  0.8149 -2.8355
 3165TIP3    H230987   0.470   0.387  13.816 -1.6123  1.6899 -2.3489
 3166TIP3   OH230988   5.539   4.422   5.539  0.3361 -0.6799 -0.5148
 3166TIP3    H130989   5.462   4.384   5.580 -0.6878 -0.8103 -2.4690
 3166TIP3    H230990   5.521   4.516   5.535  1.1422 -0.4456  0.7259
 3167TIP3   OH230991   2.790   4.751   4.988  0.1788 -0.8132  0.6592
 3167TIP3    H130992   2.795   4.822   4.925 -0.8024 -2.4771 -1.4002
 3167TIP3    H230993   2.699   4.752   5.018  0.1451 -1.2314  0.5743
 3168TIP3   OH230994   6.371   0.362  15.736 -0.2054  0.5526  0.7460
 3168TIP3    H130995   6.428   0.434  15.710  1.2955 -0.5900  0.7350
 3168TIP3    H230996   6.320   0.342  15.657  0.0892  0.9450  0.4535
 3169TIP3   OH230997   0.212   0.205  14.830 -0.7521 -0.2795  0.2484
 3169TIP3    H130998   0.246   0.238  14.747  0.0546 -0.9799  0.2806
 3169TIP3    H230999   0.238   0.271  14.895 -2.9806  1.2062 -0.2766
 3170TIP3   OH231000   3.445   4.327   5.340 -0.2695 -0.2266 -0.3310
 3170TIP3    H131001   3.453   4.312   5.435  0.2096  0.0791 -0.3185
 3170TIP3    H231002   3.359   4.293   5.318 -0.4760 -0.1120  0.2593
 3171TIP3   OH231003   2.023   4.041   3.858  0.0683  0.1839 -0.2638
 3171TIP3    H131004   2.106   4.040   3.811  0.3877 -0.9542  0.2914
 3171TIP3    H231005   2.047   4.050   3.950 -0.3697 -0.9640 -0.0212
 3172TIP3   OH231006   1.458   2.860   1.207  0.3243 -0.4806  0.0897
 3172TIP3    H131007   1.503   2.780   1.234  1.9055  0.1771 -0.4558
 3172TIP3    H231008   1.428   2.841   1.118  0.8287 -0.4361 -0.0955
 3173TIP3   OH231009   5.916   1.854   0.613  0.2422 -0.2256  0.3114
 3173TIP3    H131010   5.883   1.775   0.570  0.5980 -0.6993  0.8992
 3173TIP3    H231011   5.926   1.829   0.705 -2.0163  1.2118  1.0526
 3174TIP3   OH231012   3.733   6.502  16.834  0.9001  0.4599  0.4065
 3174TIP3    H131013   3.687   6.548  16.764 -1.0266  0.6262  1.6927
 3174TIP3    H231014   3.721   6.557  16.912 -0.7185 -1.6665  1.7937
 3175TIP3   OH231015   3.910   5.353  13.997 -0.5904 -0.2714 -0.6146
 3175TIP3    H131016   3.968   5.415  14.041  0.0834 -0.0966 -1.7057
 3175TIP3    H231017   3.968   5.299  13.944 -1.5540  1.7018 -3.9580
 3176TIP3   OH231018   5.343   0.264   2.280 -0.5775  0.3345 -0.2738
 3176TIP3    H131019   5.360   0.178   2.318  0.8563  0.1495 -1.2393
 3176TIP3    H231020   5.249   0.266   2.264 -0.4304 -1.6378 -1.6270
 3177TIP3   OH231021   2.141   4.193   0.726 -0.0217  0.3589  0.0916
 3177TIP3    H131022   2.157   4.239   0.808  0.2100  0.1334  0.1739
 3177TIP3    H231023   2.064   4.236   0.689  0.3839  1.0243  0.0076
 3178TIP3   OH231024   0.110   2.864   0.261 -0.0655 -0.2835 -0.1017
 3178TIP3    H131025   0.038   2.893   0.317  1.8671  1.9059  1.4181
 3178TIP3    H231026   0.085   2.894   0.173 -1.0860  0.3033  0.3647
 3179TIP3   OH231027   5.248   5.108  11.396  0.1560  0.4869  0.0008
 3179TIP3    H131028   5.292   5.023  11.405 -1.0276 -0.2768 -1.1478
 3179TIP3    H231029   5.285   5.146  11.317  0.5947  1.0164  0.4475
 3180TIP3   OH231030   2.779   6.278  15.815 -0.3326 -0.2754 -0.1975
 3180TIP3    H131031   2.826   6.341  15.869  1.3229 -2.5382  1.1605
 3180TIP3    H231032   2.708   6.329  15.775  0.3826  2.2115  1.4730
 3181TIP3   OH231033   0.449   1.438  11.107 -0.2084 -0.4750  0.0157
 3181TIP3    H131034   0.458   1.364  11.047 -0.3740 -0.1320 -0.4380
 3181TIP3    H231035   0.452   1.515  11.050 -1.9131 -0.1882  0.2610
 3182TIP3   OH231036   3.875   6.368   2.770  0.9359 -0.5148 -0.6668
 3182TIP3    H131037   3.827   6.335   2.846 -2.1364  1.3670 -1.6007
 3182TIP3    H231038   3.825   6.337   2.695  1.5985  0.9274 -1.7426
 3183TIP3   OH231039   2.226   1.902  15.793  0.1883  0.1160 -0.2568
 3183TIP3    H131040   2.284   1.844  15.744  1.4168 -0.1476  1.4269
 3183TIP3    H231041   2.157   1.844  15.827 -2.4253  0.7107 -3.9265
 3184TIP3   OH231042   0.099   4.149  11.229 -0.3467  0.6316  0.1976
 3184TIP3    H131043   0.184   4.180  11.258 -0.3684 -0.3152  1.3037
 3184TIP3    H231044   0.113   4.059  11.200 -0.4968  1.2533 -2.0088
 3185TIP3   OH231045   3.955   6.076  15.708  0.0904  0.3168  0.2405
 3185TIP3    H131046   4.050   6.071  15.722  0.3783 -0.7625 -1.7856
 3185TIP3    H231047   3.936   6.005  15.647 -1.7496  1.6363 -0.7998
 3186TIP3   OH231048   6.181   5.460  15.976  0.5194  0.2186 -0.4902
 3186TIP3    H131049   6.162   5.551  16.001  1.7886 -0.0174  1.5776
 3186TIP3    H231050   6.095   5.421  15.962 -0.0846  1.4882 -0.5104
 3187TIP3   OH231051   3.750   3.644  16.484  0.3957  0.3178 -0.4134
 3187TIP3    H131052   3.812   3.716  16.484 -0.2253  0.8628  0.5574
 3187TIP3    H231053   3.685   3.668  16.417 -0.2748  1.0789  0.4966
 3188TIP3   OH231054   3.009   3.517   4.028 -0.6607  0.6937  0.0529
 3188TIP3    H131055   3.054   3.540   4.109  2.6679 -1.9844 -0.8405
 3188TIP3    H231056   3.078   3.489   3.968 -3.3362 -1.6970 -2.2190
 3189TIP3   OH231057   5.191   3.893   0.445  0.6871 -0.3409  0.6412
 3189TIP3    H131058   5.154   3.945   0.374  0.4702  0.5048  1.3439
 3189TIP3    H231059   5.125   3.827   0.464  0.5979 -0.3516  0.2920
 3190TIP3   OH231060   0.029   5.836  14.531  0.3817 -0.6041 -0.2010
 3190TIP3    H131061  -0.038   5.785  14.487  1.5536 -0.8245 -1.7941
 3190TIP3    H231062   0.089   5.771  14.568 -0.1343 -0.4051  1.0523
 3191TIP3   OH231063   4.775   5.672   2.309  0.0472  0.0564 -0.3197
 3191TIP3    H131064   4.784   5.749   2.366 -0.6979 -0.2656  0.2533
 3191TIP3    H231065   4.692   5.687   2.263 -1.7380 -1.8150  2.0578
 3192TIP3   OH231066   2.322   4.116   2.788 -0.1223  0.5048  0.2717
 3192TIP3    H131067   2.227   4.101   2.793 -0.2732  0.9890 -0.7809
 3192TIP3    H231068   2.355   4.091   2.874 -0.5311 -4.3839 -0.6726
 3193TIP3   OH231069   3.543   5.520  15.662  0.1651  0.2491  0.2203
 3193TIP3    H131070   3.588   5.544  15.581 -1.1867 -0.2668 -0.7098
 3193TIP3    H231071   3.610   5.528  15.730  1.7276 -0.7009 -1.1401
 3194TIP3   OH231072   5.574   6.694  12.716  1.0596 -0.3868 -0.8883
 3194TIP3    H131073   5.624   6.698  12.798 -1.1516  1.5155  0.5321
 3194TIP3    H231074   5.551   6.602  12.706  3.2452 -1.0139 -0.6523
 3195TIP3   OH231075   4.327   6.493   5.168  0.1464 -0.2437 -0.5580
 3195TIP3    H131076   4.384   6.551   5.118 -1.2949  0.9988 -0.8407
 3195TIP3    H231077   4.240   6.505   5.130 -0.9137  0.3299  1.8400
 3196TIP3   OH231078   2.080   6.070   4.277  0.0881 -0.0275 -0.1763
 3196TIP3    H131079   1.993   6.049   4.311  0.3773 -0.3336  0.3945
 3196TIP3    H231080   2.079   6.040   4.186 -0.3848 -0.0752 -0.1571
 3197TIP3   OH231081   1.254   4.215   1.565  0.0865  0.4093  0.2368
 3197TIP3    H131082   1.241   4.270   1.488 -1.0293 -1.2712 -0.8704
 3197TIP3    H231083   1.347   4.222   1.585  0.3170  1.2117 -1.0184
 3198TIP3   OH231084   6.141   0.576  14.666  0.7117 -0.6487  0.6450
 3198TIP3    H131085   6.113   0.665  14.644  0.1861 -0.3651  2.3798
 3198TIP3    H231086   6.120   0.525  14.588  1.6549  0.8432 -0.6649
 3199TIP3   OH231087   1.029   5.757   0.067 -0.0623 -1.0902  0.8359
 3199TIP3    H131088   1.035   5.834   0.124 -0.7434  0.8422 -1.5191
 3199TIP3    H231089   1.120   5.742   0.039  0.1013 -1.2711  1.4500
 3200TIP3   OH231090   4.773   0.660  11.811  0.1595 -0.7981  0.1498
 3200TIP3    H131091   4.776   0.734  11.750  0.3700 -1.5459 -0.7702
 3200TIP3    H231092   4.680   0.637  11.816  0.0967 -0.4809  0.4200
 3201TIP3   OH231093   5.315   5.394  13.249  0.1615 -0.2608  0.4164
 3201TIP3    H131094   5.315   5.483  13.284 -0.5509  0.2568 -0.8601
 3201TIP3    H231095   5.406   5.365  13.256  0.8827  1.4237 -1.2697
 3202TIP3   OH231096   5.289   1.394  11.961 -0.0670 -0.2021 -0.3337
 3202TIP3    H131097   5.250   1.322  12.012  2.0153 -1.2960 -0.1843
 3202TIP3    H231098   5.278   1.471  12.016 -0.5870 -0.7756  0.3884
 3203TIP3   OH231099   6.092   2.093  13.586  0.0160 -0.1164 -1.0651
 3203TIP3    H131100   6.002   2.061  13.595 -0.3579  1.3950  1.6109
 3203TIP3    H231101   6.110   2.087  13.492 -2.6187 -1.1079 -1.5895
 3204TIP3   OH231102   3.893   3.541  14.351 -0.4300  0.0156  0.9502
 3204TIP3    H131103   3.817   3.491  14.322 -0.4805 -0.1391  1.3428
 3204TIP3    H231104   3.862   3.588  14.428  0.0067 -0.4279  1.4050
 3205TIP3   OH231105   3.169   6.102  14.673  0.1013  0.1206 -0.1475
 3205TIP3    H131106   3.246   6.158  14.674 -0.5037  1.0068  1.5183
 3205TIP3    H231107   3.203   6.013  14.661  1.2289  0.6335 -0.8719
 3206TIP3   OH231108   6.073   2.735  11.707 -0.3355 -0.5640 -0.2881
 3206TIP3    H131109   6.036   2.650  11.732  0.8031 -0.6631  1.2494
 3206TIP3    H231110   6.021   2.763  11.632 -2.2088 -1.5616  0.5729
 3207TIP3   OH231111   1.123   6.157   4.719  0.8322  0.5256 -0.1552
 3207TIP3    H131112   1.027   6.158   4.712  0.8467  0.0080 -0.5055
 3207TIP3    H231113   1.141   6.185   4.809  0.2071 -2.6183  1.0768
 3208TIP3   OH231114   2.572   3.041   6.730 -0.3265  0.5777  0.2457
 3208TIP3    H131115   2.570   2.947   6.715 -2.1947  0.6601 -0.1756
 3208TIP3    H231116   2.488   3.073   6.698  0.8795  2.6330 -1.0464
 3209TIP3   OH231117   3.652   0.386  14.491 -0.3499 -0.4309 -0.4701
 3209TIP3    H131118   3.743   0.416  14.484 -0.0986 -0.5638  1.6788
 3209TIP3    H231119   3.657   0.291  14.479 -0.0835 -0.5305  0.3649
 3210TIP3   OH231120   0.084   2.634   6.041  0.1298 -0.6021  0.1691
 3210TIP3    H131121   0.178   2.614   6.040 -0.0239 -1.3337 -1.2693
 3210TIP3    H231122   0.078   2.723   6.007  0.2021 -1.1807 -1.4495
 3211TIP3   OH231123   0.841   2.066  15.687 -0.5367  0.2927 -0.0936
 3211TIP3    H131124   0.747   2.049  15.681 -0.8298  1.7048  0.1328
 3211TIP3    H231125   0.881   1.999  15.632 -1.3849 -2.5744  2.4973
 3212TIP3   OH231126   2.039   6.254  15.541 -0.1330 -0.7211  1.2525
 3212TIP3    H131127   2.034   6.178  15.600  0.3289  0.0223  2.2680
 3212TIP3    H231128   2.132   6.275  15.537  0.0720 -1.7367 -1.0619
 3213TIP3   OH231129   6.437   4.025  12.218  0.4743  0.3572  0.0868
 3213TIP3    H131130   6.405   3.947  12.172  1.8072  0.3683 -0.9305
 3213TIP3    H231131   6.511   3.993  12.270  0.6401  0.8384  0.1436
 3214TIP3   OH231132   1.427   3.892   1.613 -0.3582 -0.3695  0.7179
 3214TIP3    H131133   1.453   3.969   1.664  0.0904  1.3105 -1.8369
 3214TIP3    H231134   1.468   3.905   1.527 -0.6190 -3.2890  0.0407
 3215TIP3   OH231135   4.990   0.621   0.226 -0.3827  0.6370  0.4249
 3215TIP3    H131136   5.018   0.603   0.316 -1.7122  1.9162  1.1324
 3215TIP3    H231137   5.047   0.692   0.197 -0.2721  0.5487  0.4248
 3216TIP3   OH231138   5.166   2.478   0.688  0.0739 -0.0747  0.5711
 3216TIP3    H131139   5.172   2.565   0.727 -0.9781 -0.0081  0.6184
 3216TIP3    H231140   5.256   2.453   0.670  0.3602  1.1990  0.1737
 3217TIP3   OH231141   4.900   6.117  11.126  0.1390 -0.6212  0.6862
 3217TIP3    H131142   4.903   6.041  11.069  1.1033 -0.4939  0.5500
 3217TIP3    H231143   4.971   6.103  11.189 -0.5584 -0.4955  1.5191
 3218TIP3   OH231144   4.613   4.535  11.701  0.1595  0.1390 -0.7651
 3218TIP3    H131145   4.555   4.491  11.763  0.3722 -0.8308 -1.2511
 3218TIP3    H231146   4.635   4.469  11.636  1.2061  0.7043 -1.0108
 3219TIP3   OH231147   1.873   0.406  11.711  0.1969  0.2633 -0.3760
 3219TIP3    H131148   1.794   0.411  11.765  1.2452 -1.5190  1.4893
 3219TIP3    H231149   1.891   0.497  11.686 -0.6239  1.1582  1.9584
 3220TIP3   OH231150   6.399   0.044  13.806  0.1231  0.7423 -0.6828
 3220TIP3    H131151   6.478   0.097  13.809  0.1733  0.6273  0.2002
 3220TIP3    H231152   6.376   0.029  13.897 -0.9050  0.7435 -0.9250
 3221TIP3   OH231153   4.322   3.327  15.510  0.0736  0.2562 -0.1435
 3221TIP3    H131154   4.412   3.297  15.516 -0.3108 -0.9966 -0.3626
 3221TIP3    H231155   4.328   3.411  15.464  1.1146  0.1307 -0.2650
 3222TIP3   OH231156   0.282   0.917  16.061  0.2664  0.5160 -0.0155
 3222TIP3    H131157   0.361   0.958  16.096  0.1137 -0.1141  1.1013
 3222TIP3    H231158   0.314   0.855  15.996  0.5936  1.2577 -0.5750
 3223TIP3   OH231159   6.495   5.533  15.255  0.3182  0.4652 -0.2004
 3223TIP3    H131160   6.485   5.450  15.301 -1.5897  0.0557 -1.2270
 3223TIP3    H231161   6.527   5.594  15.321 -1.1058 -0.3900  1.3587
 3224TIP3   OH231162   0.088   6.512  12.779 -0.0337 -0.6034  0.2115
 3224TIP3    H131163   0.032   6.546  12.849  0.5491 -0.3563  0.5704
 3224TIP3    H231164   0.125   6.432  12.815  0.4644 -0.3422  0.2841
 3225TIP3   OH231165   2.255   4.632   1.244  0.1525  0.2098  0.0346
 3225TIP3    H131166   2.224   4.702   1.302  1.6690  1.3691 -0.4742
 3225TIP3    H231167   2.349   4.626   1.262  0.2617 -0.8687 -0.8058
 3226TIP3   OH231168   1.398   5.810  15.860 -0.9656  0.1867  0.2741
 3226TIP3    H131169   1.343   5.740  15.823  1.9362 -1.5054 -1.1534
 3226TIP3    H231170   1.441   5.849  15.784  1.0441  0.3016  1.4085
 3227TIP3   OH231171   1.715   2.204   3.736  0.0792 -0.1518 -0.2095
 3227TIP3    H131172   1.776   2.231   3.668  0.0857 -1.8204 -0.9058
 3227TIP3    H231173   1.759   2.131   3.781 -1.2982 -1.2813 -0.6192
 3228TIP3   OH231174   2.682   0.571  14.740 -0.4949 -0.0571 -0.3206
 3228TIP3    H131175   2.736   0.616  14.675  0.0856 -1.8204 -1.1115
 3228TIP3    H231176   2.648   0.642  14.796  1.0326  1.2675 -0.9946
 3229TIP3   OH231177   3.916   1.740  16.802 -0.4781 -0.4691  0.7346
 3229TIP3    H131178   3.828   1.705  16.812 -0.5132 -0.0908  1.9336
 3229TIP3    H231179   3.924   1.759  16.709 -2.8570  2.5129  0.9962
 3230TIP3   OH231180   3.816   6.807   3.958 -0.0601  0.2321  0.1158
 3230TIP3    H131181   3.893   6.779   4.007 -0.0439  0.8145  0.4292
 3230TIP3    H231182   3.849   6.828   3.871  0.1972  0.8028  0.3470
 3231TIP3   OH231183   3.314   4.806  13.246  0.0407 -0.0634  0.3485
 3231TIP3    H131184   3.240   4.854  13.282  0.0446 -0.2471  0.6025
 3231TIP3    H231185   3.388   4.831  13.301 -0.0608 -0.7620  0.8080
 3232TIP3   OH231186   3.524   2.109   0.335  0.7056  0.0350 -0.3055
 3232TIP3    H131187   3.486   2.189   0.372 -0.3773  0.2952 -1.8928
 3232TIP3    H231188   3.459   2.041   0.354  1.7521 -0.5816  1.2937
 3233TIP3   OH231189   5.139   0.468   5.350 -1.2013  0.3484 -0.1106
 3233TIP3    H131190   5.122   0.507   5.436 -1.8577  0.0670 -0.1052
 3233TIP3    H231191   5.092   0.524   5.289  0.8454  1.6876 -0.5236
 3234TIP3   OH231192   6.345   2.668  12.788  0.0457  0.3667 -0.1013
 3234TIP3    H131193   6.293   2.630  12.859 -1.6771  1.1697 -0.8567
 3234TIP3    H231194   6.367   2.593  12.732  2.3865 -0.4593  1.7579
 3235TIP3   OH231195   6.680   5.771   3.986 -0.2195 -0.0373  0.2255
 3235TIP3    H131196   6.768   5.795   3.954 -0.2908 -0.0237  0.0364
 3235TIP3    H231197   6.680   5.675   3.983  0.5785 -0.1588  2.3559
 3236TIP3   OH231198   4.552   1.377   3.182 -0.1107  0.5043  0.0655
 3236TIP3    H131199   4.540   1.393   3.276  0.1948  0.6381  0.0849
 3236TIP3    H231200   4.645   1.394   3.167  0.1833 -0.9804  0.0303
 3237TIP3   OH231201   3.959   1.127   4.226  0.2625  0.2167  0.2334
 3237TIP3    H131202   3.954   1.222   4.215 -1.6969  0.3616  1.8699
 3237TIP3    H231203   3.959   1.113   4.320  0.3041 -1.4364  0.0250
 3238TIP3   OH231204   6.100   6.299  12.529 -0.2400 -0.4840  0.0016
 3238TIP3    H131205   6.042   6.373  12.515 -0.7249 -1.0738 -1.3516
 3238TIP3    H231206   6.084   6.272  12.619 -2.1949 -0.7143 -0.3663
 3239TIP3   OH231207   4.644   0.719   4.691  0.2510 -0.2792  0.6377
 3239TIP3    H131208   4.584   0.645   4.679  0.7826 -0.4660 -1.2836
 3239TIP3    H231209   4.698   0.695   4.766  1.1373 -2.4131 -0.5715
 3240TIP3   OH231210   4.296   4.226   0.794  0.4014 -0.8777 -0.1722
 3240TIP3    H131211   4.220   4.191   0.842  0.9590 -0.1166  1.3174
 3240TIP3    H231212   4.275   4.210   0.702 -1.8151 -0.2372  0.1632
 3241TIP3   OH231213   3.609   2.089  14.186 -0.3844  0.1563 -0.1813
 3241TIP3    H131214   3.614   1.996  14.163 -1.3472  0.1031 -0.2088
 3241TIP3    H231215   3.700   2.116  14.194 -0.0698 -1.3042  1.9056
 3242TIP3   OH231216   5.477   6.751  12.137  0.0607  0.0548 -0.4231
 3242TIP3    H131217   5.395   6.723  12.097 -0.8369  0.0455  1.3309
 3242TIP3    H231218   5.545   6.717  12.079 -1.1311 -1.2866 -1.0883
 3243TIP3   OH231219   3.010   0.824   2.702 -0.0552  0.0004  0.2507
 3243TIP3    H131220   3.038   0.760   2.767 -0.0757 -0.7541 -0.4795
 3243TIP3    H231221   2.927   0.791   2.669  0.7107 -0.4921 -1.3126
 3244TIP3   OH231222   3.631   3.085   3.560 -0.3282 -0.0398 -0.4937
 3244TIP3    H131223   3.552   3.133   3.535 -0.0612  1.0872  0.7163
 3244TIP3    H231224   3.695   3.153   3.579  0.1435 -0.8660  1.0459
 3245TIP3   OH231225   5.427   6.121   1.777  0.2531 -0.7738 -0.4757
 3245TIP3    H131226   5.385   6.190   1.725 -0.0277 -0.3043  0.3634
 3245TIP3    H231227   5.516   6.154   1.793  0.7273 -1.4304 -1.6064
 3246TIP3   OH231228   5.642   5.420  13.759 -0.0676  0.0465 -0.3409
 3246TIP3    H131229   5.674   5.496  13.710  1.9311  0.1961  1.0601
 3246TIP3    H231230   5.613   5.358  13.692  1.8984  0.5023 -1.6986
 3247TIP3   OH231231   6.075   0.243  14.508 -0.5832  0.3476  0.5629
 3247TIP3    H131232   6.078   0.250  14.604  0.6690  3.2419  0.4263
 3247TIP3    H231233   6.045   0.329  14.479  1.4481  0.4172 -1.6912
 3248TIP3   OH231234   1.766   3.379   6.358 -0.6918  0.3480  0.3405
 3248TIP3    H131235   1.844   3.421   6.322 -1.1550  2.2444  1.4316
 3248TIP3    H231236   1.765   3.292   6.318  1.4331  0.6295 -0.4356
 3249TIP3   OH231237   1.703   5.219  10.948 -0.4827  0.2314  0.3231
 3249TIP3    H131238   1.723   5.157  10.878  0.6647  0.5103  0.3811
 3249TIP3    H231239   1.683   5.301  10.902 -0.0386  0.3335  0.3132
 3250TIP3   OH231240   0.801   5.069   0.990 -1.1408 -0.5580  0.4909
 3250TIP3    H131241   0.831   5.093   0.903 -0.2072 -1.6486  0.4813
 3250TIP3    H231242   0.706   5.060   0.982 -1.0274 -0.9656 -0.4966
 3251TIP3   OH231243   1.299   6.084   3.456 -0.1651 -0.1674  0.4627
 3251TIP3    H131244   1.233   6.081   3.526 -0.6092  0.8184  0.0908
 3251TIP3    H231245   1.381   6.065   3.501 -0.5144 -0.0497  1.1693
 3252TIP3   OH231246   6.769   3.467   2.356 -0.3280  0.0360 -0.1338
 3252TIP3    H131247   6.849   3.504   2.317  0.5097 -0.3836  1.1130
 3252TIP3    H231248   6.732   3.413   2.287  0.6965 -0.0850 -0.6195
 3253TIP3   OH231249   5.355   1.692   3.105  0.7045 -0.0895  0.0430
 3253TIP3    H131250   5.413   1.747   3.052  1.0394 -0.1508  0.3408
 3253TIP3    H231251   5.364   1.604   3.068  1.0244 -0.1543  0.2666
 3254TIP3   OH231252   2.421   2.052   5.001  0.0217  0.0064  0.1369
 3254TIP3    H131253   2.407   2.038   5.094 -1.8633  1.3465  0.1031
 3254TIP3    H231254   2.484   2.124   4.996  0.5247 -0.4111  0.3477
 3255TIP3   OH231255   0.574   3.598   1.141  0.1470 -0.0073 -0.6327
 3255TIP3    H131256   0.525   3.520   1.166  1.1490 -0.3609  0.2846
 3255TIP3    H231257   0.633   3.569   1.072 -0.6214  0.3296 -1.4552
 3256TIP3   OH231258   2.656   1.142   2.445  0.2425 -0.4112  0.2449
 3256TIP3    H131259   2.681   1.197   2.519 -3.4782  1.0477  0.6556
 3256TIP3    H231260   2.664   1.199   2.369 -1.6314  0.1154  0.3974
 3257TIP3   OH231261   2.110   3.286  15.950 -0.8895 -0.4627 -0.2647
 3257TIP3    H131262   2.023   3.260  15.980  0.0308 -3.2462  0.2836
 3257TIP3    H231263   2.162   3.206  15.953  2.3025  1.4607  1.4513
 3258TIP3   OH231264   1.161   1.511  10.581  0.3182  0.2610 -0.3822
 3258TIP3    H131265   1.138   1.599  10.552  0.6247  0.4917  0.0719
 3258TIP3    H231266   1.083   1.480  10.628  0.1117  0.1837 -0.7692
 3259TIP3   OH231267   3.739   0.217  11.235  0.1940  0.2524  0.1464
 3259TIP3    H131268   3.698   0.223  11.321  0.3692  2.3585  0.1282
 3259TIP3    H231269   3.708   0.294  11.188  1.1166 -0.1833 -1.2268
 3260TIP3   OH231270   2.353   6.627   1.649 -0.2638 -0.5219  0.3011
 3260TIP3    H131271   2.361   6.535   1.673 -2.4428 -0.6644  0.6129
 3260TIP3    H231272   2.302   6.627   1.568 -0.5356  0.4198  0.4600
 3261TIP3   OH231273   1.015   3.198   0.560  0.4582  0.1577 -0.5342
 3261TIP3    H131274   1.043   3.123   0.507  0.3634  0.3839 -0.9101
 3261TIP3    H231275   0.937   3.166   0.606  0.9617 -0.2749  0.0434
 3262TIP3   OH231276   2.563   1.149   5.664  0.5926  0.1701 -0.2335
 3262TIP3    H131277   2.656   1.165   5.649  0.3224  0.9171 -1.2209
 3262TIP3    H231278   2.528   1.233   5.692  0.1138  0.0251 -0.3795
 3263TIP3   OH231279   3.699   2.745  15.862 -0.1280  0.4588 -0.2067
 3263TIP3    H131280   3.628   2.701  15.909  1.4901  0.0261  1.9916
 3263TIP3    H231281   3.663   2.830  15.838 -1.4746  0.1615  0.6427
 3264TIP3   OH231282   0.531   4.249   0.911  0.5132  0.0307 -0.3254
 3264TIP3    H131283   0.548   4.331   0.864  1.4085 -0.6896 -1.2963
 3264TIP3    H231284   0.613   4.201   0.905 -0.0985 -1.0780 -0.0112
 3265TIP3   OH231285   4.618   4.512   4.751  0.5986 -0.3986  0.2769
 3265TIP3    H131286   4.573   4.567   4.686  1.0128  0.7111  0.9026
 3265TIP3    H231287   4.548   4.483   4.810  0.3725 -0.5690 -0.0724
 3266TIP3   OH231288   1.026   3.760   3.288 -0.5095 -0.0947  0.1434
 3266TIP3    H131289   1.084   3.686   3.304 -2.3127 -1.7426 -0.4396
 3266TIP3    H231290   0.944   3.735   3.332 -1.2268  1.4850 -0.2228
 3267TIP3   OH231291   2.643   3.566   2.945 -0.0397  0.5436  0.7267
 3267TIP3    H131292   2.559   3.549   2.987  0.5589  0.5005  1.9367
 3267TIP3    H231293   2.705   3.572   3.017  1.3471 -1.3120 -0.2123
 3268TIP3   OH231294   6.196   4.905  14.458 -0.1219 -0.0031  0.4467
 3268TIP3    H131295   6.251   4.983  14.460  0.8348 -0.6637  1.2874
 3268TIP3    H231296   6.118   4.931  14.409  1.3488  0.6768 -1.6480
 3269TIP3   OH231297   6.444   6.166  13.051 -0.3621 -0.0507 -0.4821
 3269TIP3    H131298   6.425   6.211  13.134 -1.3969  1.2017 -1.3474
 3269TIP3    H231299   6.416   6.076  13.065 -0.3952  0.1110  0.5725
 3270TIP3   OH231300   6.129   1.971  14.097 -0.4195 -0.3414  0.0405
 3270TIP3    H131301   6.155   1.917  14.022 -0.0470  1.3305 -1.0926
 3270TIP3    H231302   6.056   1.922  14.137 -0.0342 -1.7208 -0.8456
 3271TIP3   OH231303   5.065   2.640  16.197  0.2768 -0.0714 -0.0786
 3271TIP3    H131304   4.993   2.657  16.258  0.4166 -1.4751  0.5233
 3271TIP3    H231305   5.129   2.591  16.250  1.0247 -0.0868 -0.9821
 3272TIP3   OH231306   3.259   1.727   4.719  0.2020 -0.7340 -0.0160
 3272TIP3    H131307   3.265   1.728   4.815 -1.1491 -0.6539  0.0920
 3272TIP3    H231308   3.344   1.697   4.690  0.2903 -1.8221  1.2582
 3273TIP3   OH231309   5.456   3.279   6.204  0.4458  0.1776  0.7591
 3273TIP3    H131310   5.494   3.210   6.149  0.7450  1.3540 -0.5535
 3273TIP3    H231311   5.462   3.358   6.151 -1.3991  0.9251  1.5717
 3274TIP3   OH231312   6.201   1.590  12.135  0.2836 -0.3543 -0.0066
 3274TIP3    H131313   6.247   1.587  12.219 -0.3093 -0.5153  0.3215
 3274TIP3    H231314   6.174   1.499  12.120  2.3070 -0.7614 -1.4800
 3275TIP3   OH231315   3.106   1.582  14.481  0.0096 -0.1467 -0.3869
 3275TIP3    H131316   3.019   1.590  14.519  0.7754  1.5314  1.2070
 3275TIP3    H231317   3.151   1.517  14.536  0.2249  0.1311 -0.2292
 3276TIP3   OH231318   6.193   1.424   5.178 -0.2655  0.1428 -0.1615
 3276TIP3    H131319   6.160   1.362   5.244 -0.8889  1.4284  0.7801
 3276TIP3    H231320   6.278   1.451   5.212 -0.2422  0.2280 -0.2887
 3277TIP3   OH231321   4.627   2.102   0.992 -0.1091 -0.1770 -0.0824
 3277TIP3    H131322   4.668   2.129   0.910 -2.7594  0.3168 -1.3209
 3277TIP3    H231323   4.656   2.011   1.004  0.1815 -0.3201 -1.6509
 3278TIP3   OH231324   1.553   6.736  15.962  0.5733 -0.8347 -0.0808
 3278TIP3    H131325   1.565   6.645  15.991  2.3200 -0.7886 -0.5398
 3278TIP3    H231326   1.588   6.737  15.873  0.3833  0.2572 -0.1532
 3279TIP3   OH231327   0.351   4.195   0.720  0.1535 -0.3072  0.5540
 3279TIP3    H131328   0.274   4.197   0.777  0.4698 -0.2858  0.9876
 3279TIP3    H231329   0.425   4.196   0.780  0.5611  2.2008  0.1351
 3280TIP3   OH231330   0.973   5.343   4.702 -0.2759  0.2817 -0.4577
 3280TIP3    H131331   1.043   5.406   4.689  2.7987 -2.5824  0.6690
 3280TIP3    H231332   1.006   5.262   4.662 -3.4385 -1.0114 -0.7884
 3281TIP3   OH231333   3.065   3.675  12.561 -0.1812 -0.2327 -0.6197
 3281TIP3    H131334   3.153   3.652  12.530  0.4668  0.1989  0.8061
 3281TIP3    H231335   3.016   3.696  12.482  1.0584 -0.2972 -1.4251
 3282TIP3   OH231336   1.760   6.499  14.171  0.1932  0.2679 -0.3934
 3282TIP3    H131337   1.707   6.484  14.249 -0.0567  0.0505 -0.6010
 3282TIP3    H231338   1.770   6.412  14.132  1.6165  0.1327  0.2226
 3283TIP3   OH231339   6.242   5.154  13.196 -0.4272  0.4254 -0.1460
 3283TIP3    H131340   6.294   5.092  13.144 -0.1541  0.9590 -0.5224
 3283TIP3    H231341   6.235   5.232  13.141 -1.3449  0.4892  0.0449
 3284TIP3   OH231342   5.974   3.574   5.479 -0.2747 -0.2666 -0.1492
 3284TIP3    H131343   5.996   3.667   5.489  0.5739 -0.1707 -2.4255
 3284TIP3    H231344   5.889   3.565   5.523 -0.4915  1.6286 -0.0806
 3285TIP3   OH231345   2.017   0.654  16.437  0.5692 -0.4722 -0.0613
 3285TIP3    H131346   1.968   0.720  16.486  1.4521 -0.1965  0.4808
 3285TIP3    H231347   2.040   0.698  16.355 -1.0030 -0.9702 -0.8030
 3286TIP3   OH231348   5.803   1.577   3.842 -0.3471 -0.6460  0.0697
 3286TIP3    H131349   5.877   1.570   3.782  0.3689 -2.4453  1.0685
 3286TIP3    H231350   5.736   1.520   3.804 -0.3163 -0.8780  0.3509
 3287TIP3   OH231351   2.875   4.266   1.488 -0.4782 -0.0882 -0.2551
 3287TIP3    H131352   2.897   4.175   1.466 -0.1698  0.4858 -2.5148
 3287TIP3    H231353   2.797   4.285   1.436  0.3769  1.4092 -1.0659
 3288TIP3   OH231354   3.393   2.487  10.810 -0.1025 -0.4347 -0.3000
 3288TIP3    H131355   3.373   2.396  10.787 -0.4198 -0.3366 -0.4255
 3288TIP3    H231356   3.487   2.488  10.826  0.0833 -0.5892 -1.2669
 3289TIP3   OH231357   5.920   2.037   1.680 -0.6206 -0.1248  0.1670
 3289TIP3    H131358   5.909   1.986   1.600 -1.1253  0.4999 -0.1668
 3289TIP3    H231359   6.015   2.039   1.695 -0.5806 -1.0407  0.1187
 3290TIP3   OH231360   1.886   2.575   4.547 -0.5076 -0.4438  0.1306
 3290TIP3    H131361   1.950   2.579   4.475 -0.0509 -0.2501  0.5385
 3290TIP3    H231362   1.813   2.525   4.512 -0.7736  0.5951 -0.8351
 3291TIP3   OH231363   0.072   1.885  14.098  0.4182  0.0116 -0.3804
 3291TIP3    H131364  -0.000   1.946  14.108  0.6591  0.6162 -2.0343
 3291TIP3    H231365   0.151   1.940  14.100  0.6693 -0.2959 -1.2532
 3292TIP3   OH231366   1.732   6.240   1.684  0.3288  0.4035 -0.1798
 3292TIP3    H131367   1.764   6.276   1.601  1.4833  0.4181  0.2645
 3292TIP3    H231368   1.799   6.177   1.710 -0.4305 -0.2054  0.3419
 3293TIP3   OH231369   6.089   0.017  15.978 -0.4348 -0.4186  0.2910
 3293TIP3    H131370   6.168   0.054  15.940  0.6355 -3.5688 -0.8652
 3293TIP3    H231371   6.063  -0.053  15.917 -2.6063 -1.1810  1.9505
 3294TIP3   OH231372   6.746   2.021  17.238 -0.6709 -0.2494  0.2098
 3294TIP3    H131373   6.685   2.067  17.180 -0.1612  0.0304 -0.1144
 3294TIP3    H231374   6.718   1.929  17.234 -1.5785 -0.0052  0.7195
 3295TIP3   OH231375   1.362   6.180   5.390 -0.6785  0.0760 -0.0962
 3295TIP3    H131376   1.338   6.235   5.315  0.7660  0.9640  0.0641
 3295TIP3    H231377   1.371   6.241   5.463 -1.7380 -0.7371  0.7606
 3296TIP3   OH231378   6.048   5.040  12.079  0.6943 -0.3840  0.5048
 3296TIP3    H131379   6.116   5.054  12.145  1.6159 -0.9172 -0.3102
 3296TIP3    H231380   6.044   4.945  12.067  0.3751 -0.3097 -0.0360
 3297TIP3   OH231381   0.366   6.135   2.698  0.1668 -0.0774 -0.2815
 3297TIP3    H131382   0.293   6.165   2.752 -0.1376  0.5308 -1.0179
 3297TIP3    H231383   0.427   6.096   2.761 -0.2223  0.5189  0.4922
 3298TIP3   OH231384   2.344   1.081   3.101 -0.1113  0.0428 -0.1319
 3298TIP3    H131385   2.394   1.153   3.140  1.6574 -0.9731 -0.4320
 3298TIP3    H231386   2.347   1.097   3.007 -0.2348 -0.1173 -0.1642
 3299TIP3   OH231387   1.369   5.246  14.589  0.0238 -0.1990 -0.7484
 3299TIP3    H131388   1.455   5.278  14.617 -0.7907  1.6745 -0.2280
 3299TIP3    H231389   1.389   5.170  14.535  2.0173  0.2390 -0.7326
 3300TIP3   OH231390   1.511   0.975  11.882 -0.4229 -0.5256 -0.1660
 3300TIP3    H131391   1.533   1.068  11.884  0.3049 -0.6738 -0.6427
 3300TIP3    H231392   1.444   0.967  11.815  1.2744 -0.6699 -1.9093
 3301TIP3   OH231393   2.305   4.354   5.030  0.2609  0.2102  0.2836
 3301TIP3    H131394   2.386   4.389   5.065 -0.4012  0.7773  1.3028
 3301TIP3    H231395   2.276   4.418   4.965  0.6236 -0.0030 -0.0955
 3302TIP3   OH231396   4.363   4.682   2.447 -0.2008  0.4034  0.9809
 3302TIP3    H131397   4.423   4.697   2.520  2.0227 -2.1697 -0.0879
 3302TIP3    H231398   4.290   4.633   2.485  0.8753 -0.8142  1.5880
 3303TIP3   OH231399   1.860   5.800   2.591 -0.5558 -0.0657 -0.6346
 3303TIP3    H131400   1.854   5.777   2.498  1.3030 -0.3268 -0.7121
 3303TIP3    H231401   1.852   5.717   2.637 -1.3694  0.0517 -0.5493
 3304TIP3   OH231402   1.997   5.072   5.043  0.0651  0.5639 -0.0179
 3304TIP3    H131403   1.955   5.102   5.123 -0.8996  0.0787 -0.3242
 3304TIP3    H231404   1.968   5.133   4.976 -1.4253 -0.6382 -0.5284
 3305TIP3   OH231405   4.566   1.862   4.602  0.0517 -0.7165  0.7780
 3305TIP3    H131406   4.555   1.863   4.697  0.5307  0.0248  0.8324
 3305TIP3    H231407   4.597   1.950   4.580  1.9691 -1.4956  0.1677
 3306TIP3   OH231408   5.151   0.253   5.993 -0.5712  0.6761 -0.3074
 3306TIP3    H131409   5.147   0.201   6.074  0.6628 -0.0745 -0.7070
 3306TIP3    H231410   5.081   0.219   5.939 -1.4364  1.2083  0.4346
 3307TIP3   OH231411   6.143   6.390  15.595 -0.0557 -0.3945  0.0710
 3307TIP3    H131412   6.082   6.464  15.602 -0.1449 -0.4799  0.2047
 3307TIP3    H231413   6.223   6.421  15.636 -1.1241 -1.5091  3.2817
 3308TIP3   OH231414   5.064   0.380  16.889  0.3081  0.1659  0.2506
 3308TIP3    H131415   5.156   0.358  16.896  0.1651 -1.0162 -1.1018
 3308TIP3    H231416   5.060   0.474  16.903  1.7404  0.2711  0.0223
 3309TIP3   OH231417   6.738   1.057   3.780  0.1710 -0.7750  0.9727
 3309TIP3    H131418   6.713   0.981   3.727  0.6602 -0.0034 -0.4151
 3309TIP3    H231419   6.826   1.079   3.750 -0.8869  1.8853 -0.5819
 3310TIP3   OH231420   6.117   4.087  15.467  0.0979  0.9008 -0.2113
 3310TIP3    H131421   6.052   4.094  15.538 -1.8480 -1.6298 -1.5280
 3310TIP3    H231422   6.158   4.002  15.482  0.2917  0.7317 -1.5714
 3311TIP3   OH231423   5.493   3.342  13.066 -0.2318 -0.6930  0.0091
 3311TIP3    H131424   5.449   3.263  13.034  1.8143 -1.3317 -1.4099
 3311TIP3    H231425   5.578   3.311  13.096  0.2744  0.8738  0.2723
 3312TIP3   OH231426   4.978   0.381  11.751 -0.2690  0.0905  0.4380
 3312TIP3    H131427   4.901   0.378  11.808 -1.6038  3.0273 -0.9973
 3312TIP3    H231428   5.051   0.395  11.811 -1.3721  1.1094  1.6260
 3313TIP3   OH231429   0.254   0.047  10.716  0.6217  0.3906  0.0956
 3313TIP3    H131430   0.162   0.057  10.690  0.8084  0.2570 -0.6337
 3313TIP3    H231431   0.250   0.024  10.809 -0.1886 -2.1802 -0.5150
 3314TIP3   OH231432   5.519   4.963  16.839  0.4775 -0.1234 -0.3202
 3314TIP3    H131433   5.434   4.995  16.807  1.2480  0.4320 -1.9336
 3314TIP3    H231434   5.574   5.041  16.841  1.0699 -0.5469  0.3655
 3315TIP3   OH231435   1.616   1.356  14.986  0.5394 -0.2283 -0.2703
 3315TIP3    H131436   1.695   1.305  14.967  1.0731  0.9465 -1.3797
 3315TIP3    H231437   1.569   1.358  14.902 -0.8052 -1.0910  0.4293
 3316TIP3   OH231438   4.363   4.355   5.440  0.2865 -0.1076  0.4063
 3316TIP3    H131439   4.301   4.424   5.467  0.0351 -0.6063  1.1541
 3316TIP3    H231440   4.307   4.282   5.416  0.5573 -0.0848 -0.2982
 3317TIP3   OH231441   5.122   2.982  16.205 -0.4924 -1.1218  0.0312
 3317TIP3    H131442   5.113   3.063  16.255 -1.6625 -0.7616 -0.7157
 3317TIP3    H231443   5.159   3.010  16.121  2.2956 -1.8337  0.9293
 3318TIP3   OH231444   3.624   3.198   5.985 -0.6582 -0.1091  0.0220
 3318TIP3    H131445   3.589   3.286   5.972  1.4695  0.5979 -1.4157
 3318TIP3    H231446   3.599   3.150   5.906 -0.9838 -0.5111  0.3651
 3319TIP3   OH231447   6.037   3.602  11.516  0.3494 -0.0370  0.3757
 3319TIP3    H131448   5.979   3.543  11.469  1.0624  0.2047 -0.8632
 3319TIP3    H231449   6.103   3.545  11.557  1.0725 -0.1369 -0.8652
 3320TIP3   OH231450   5.513   6.500   6.175  0.1384 -0.4047 -0.2449
 3320TIP3    H131451   5.530   6.488   6.082  0.6153  0.3150 -0.2625
 3320TIP3    H231452   5.599   6.496   6.216  0.1224  0.7953 -0.0306
 3321TIP3   OH231453   2.526   3.040  13.186 -0.0236  0.0818  0.1132
 3321TIP3    H131454   2.610   3.004  13.216 -0.1179  0.4645  0.8661
 3321TIP3    H231455   2.460   2.989  13.233 -0.2141 -0.2301 -0.4929
 3322TIP3   OH231456   1.957   3.890   1.737  0.0045 -0.2296 -0.3517
 3322TIP3    H131457   1.978   3.801   1.766  1.4679 -0.5105 -2.0882
 3322TIP3    H231458   1.904   3.926   1.808 -0.9363 -2.5870  0.2580
 3323TIP3   OH231459   0.015   1.056  12.031  0.3993 -0.1778  0.2002
 3323TIP3    H131460   0.110   1.046  12.019  0.3711 -0.3007  0.0817
 3323TIP3    H231461   0.006   1.139  12.078  0.5329  0.1198 -0.2914
 3324TIP3   OH231462   4.401   2.885  16.689 -0.3540 -0.2231 -0.2795
 3324TIP3    H131463   4.356   2.868  16.772  1.5706 -2.0338  0.4954
 3324TIP3    H231464   4.481   2.930  16.713  0.2293 -0.7608 -1.1345
 3325TIP3   OH231465   3.497   3.224   1.707 -0.1458 -0.4513 -0.1457
 3325TIP3    H131466   3.535   3.311   1.721 -1.4527  0.2072 -0.5519
 3325TIP3    H231467   3.410   3.230   1.746 -0.6524 -1.2452 -1.1303
 3326TIP3   OH231468   1.122   1.693  12.207  0.3449  0.3666  0.6350
 3326TIP3    H131469   1.173   1.613  12.193  0.1257  0.4656 -0.9469
 3326TIP3    H231470   1.164   1.759  12.151 -0.6356  0.8265  0.4120
 3327TIP3   OH231471   1.319   3.994   5.437 -0.3402  0.7062  0.0280
 3327TIP3    H131472   1.268   3.944   5.374 -0.5612  1.3890 -0.3325
 3327TIP3    H231473   1.356   4.066   5.387  0.8343  0.3320  0.3200
 3328TIP3   OH231474   3.290   0.097  14.976  0.1171 -0.1342 -0.6379
 3328TIP3    H131475   3.196   0.084  14.966  0.3273 -1.5635 -1.0599
 3328TIP3    H231476   3.303   0.191  14.965 -1.2577  0.0900 -0.5356
 3329TIP3   OH231477   4.044   5.184  15.643 -0.4740 -0.5058 -0.6512
 3329TIP3    H131478   4.055   5.275  15.670 -1.6058 -0.8470  1.0789
 3329TIP3    H231479   4.100   5.134  15.703 -0.2655 -1.0121 -1.2519
 3330TIP3   OH231480   4.743   6.774   4.031 -0.1258 -0.8139  0.4125
 3330TIP3    H131481   4.721   6.712   3.961 -0.0283 -0.4537  0.0565
 3330TIP3    H231482   4.837   6.785   4.024 -0.2418 -0.0219 -0.0464
 3331TIP3   OH231483   2.003   5.206  15.433  0.1623  0.4053  0.2365
 3331TIP3    H131484   2.085   5.229  15.475  0.9650  0.8502 -1.4554
 3331TIP3    H231485   1.937   5.257  15.479  0.8453  0.1373  1.5395
 3332TIP3   OH231486   1.234   2.407   5.252  0.0513 -0.5458  0.7829
 3332TIP3    H131487   1.292   2.331   5.251 -0.5431 -1.0061  0.3775
 3332TIP3    H231488   1.273   2.468   5.188 -0.2828 -1.1401  0.0011
 3333TIP3   OH231489   1.986   1.245  11.723  0.2421  0.6074 -0.9353
 3333TIP3    H131490   1.936   1.181  11.773  0.1754 -0.5746 -2.4294
 3333TIP3    H231491   1.974   1.327  11.769 -1.2682 -0.0878 -0.0326
 3334TIP3   OH231492   6.115   3.629  15.939 -0.2164  0.3790  0.3925
 3334TIP3    H131493   6.145   3.671  16.019  1.9595  0.7663 -0.5663
 3334TIP3    H231494   6.183   3.564  15.918 -0.7767  0.2072 -1.0747
 3335TIP3   OH231495   3.957   1.749   3.791 -0.6322 -0.6561 -0.7440
 3335TIP3    H131496   3.991   1.663   3.816  0.7258  0.5676  2.1195
 3335TIP3    H231497   4.035   1.804   3.782 -1.5668  0.8011 -0.2536
 3336TIP3   OH231498   3.281   6.317  16.761  0.0455 -0.1304  0.2712
 3336TIP3    H131499   3.259   6.410  16.756 -0.6228 -0.1307  2.4341
 3336TIP3    H231500   3.375   6.316  16.777  0.1675  0.1322 -0.3770
 3337TIP3   OH231501   6.775   5.964   3.414 -0.2449  0.2260  0.3356
 3337TIP3    H131502   6.721   6.031   3.371  0.0828  0.5468  0.4191
 3337TIP3    H231503   6.865   5.992   3.397  0.0193 -1.8412 -2.3552
 3338TIP3   OH231504   6.680   2.159  13.644 -0.5767 -0.3498 -0.4278
 3338TIP3    H131505   6.699   2.095  13.712 -2.8850  1.0179  1.6889
 3338TIP3    H231506   6.588   2.146  13.623  0.2816 -1.4887 -4.3173
 3339TIP3   OH231507   4.164   2.508  16.040 -0.7084  0.5520 -0.1995
 3339TIP3    H131508   4.185   2.532  16.130 -0.1352 -1.1978  0.1701
 3339TIP3    H231509   4.172   2.590  15.991 -0.2136  1.3695  1.1930
 3340TIP3   OH231510   6.089   2.300  16.432 -0.0078  0.3526 -0.5593
 3340TIP3    H131511   6.018   2.296  16.496  1.5723  0.4015  1.2900
 3340TIP3    H231512   6.113   2.209  16.416  2.6676  0.3049  2.6603
 3341TIP3   OH231513   5.850   5.512  13.472 -0.0644 -0.6735  0.0851
 3341TIP3    H131514   5.868   5.531  13.380 -0.8469  1.6916  0.3620
 3341TIP3    H231515   5.875   5.420  13.483  1.6371 -0.5443 -2.0690
 3342TIP3   OH231516   4.181   2.690  12.368  0.4449 -0.6295 -0.1699
 3342TIP3    H131517   4.271   2.694  12.334  0.0159  0.8744 -1.2243
 3342TIP3    H231518   4.165   2.777  12.404 -0.5209 -0.9554  0.2218
 3343TIP3   OH231519   5.051   4.417   2.118 -0.1035 -0.1377  0.0923
 3343TIP3    H131520   5.044   4.322   2.109 -0.2955 -0.2623  1.2944
 3343TIP3    H231521   5.142   4.437   2.093 -0.6334 -0.3304 -2.2025
 3344TIP3   OH231522   6.742   0.447   4.815  0.1815 -0.0873 -0.3419
 3344TIP3    H131523   6.838   0.440   4.821  0.0505 -2.3441  0.1664
 3344TIP3    H231524   6.713   0.449   4.906 -0.2866 -0.2127 -0.4859
 3345TIP3   OH231525   1.816   1.334  12.321 -0.3666  0.0013  0.1994
 3345TIP3    H131526   1.820   1.239  12.332 -1.0829 -0.2379 -1.3798
 3345TIP3    H231527   1.866   1.351  12.242 -1.2555  0.7990 -0.2022
 3346TIP3   OH231528   6.700   0.103   2.714  0.1675 -0.3758 -0.2770
 3346TIP3    H131529   6.625   0.074   2.663  0.7576 -2.4006 -0.0527
 3346TIP3    H231530   6.776   0.078   2.662  0.7429  0.7534 -0.0305
 3347TIP3   OH231531   3.657   6.431  15.881  0.8293 -0.2736 -0.4806
 3347TIP3    H131532   3.601   6.489  15.933 -0.3923 -0.3004 -1.7116
 3347TIP3    H231533   3.600   6.358  15.858  0.8316  0.5023 -3.1967
 3348TIP3   OH231534   0.968   4.757   6.189  0.3815  0.4713  0.5119
 3348TIP3    H131535   1.030   4.723   6.125  0.8164  0.0613  1.1386
 3348TIP3    H231536   1.002   4.727   6.274  1.4551  3.4605  1.2531
 3349TIP3   OH231537   1.662   1.848   5.352 -0.0017 -0.5083 -0.7608
 3349TIP3    H131538   1.600   1.803   5.296 -1.5626 -1.4588  1.5746
 3349TIP3    H231539   1.740   1.792   5.352 -0.8480 -1.7122 -0.1735
 3350TIP3   OH231540   2.339   2.639  12.800  0.2500 -0.7448  0.8104
 3350TIP3    H131541   2.333   2.698  12.725 -0.6799  1.2916  2.3836
 3350TIP3    H231542   2.403   2.682  12.858 -0.6358 -1.1283  2.1043
 3351TIP3   OH231543   5.594   6.602   0.113 -0.5789 -0.0418 -0.6675
 3351TIP3    H131544   5.547   6.564   0.187 -2.0932  0.3666 -1.3828
 3351TIP3    H231545   5.665   6.540   0.095 -0.5440 -0.4408  0.7263
 3352TIP3   OH231546   6.340   3.678   0.793 -0.1953  0.5163 -0.5301
 3352TIP3    H131547   6.401   3.603   0.786  0.0979  0.5916  0.8469
 3352TIP3    H231548   6.397   3.755   0.788 -0.2133  0.5943  0.3090
 3353TIP3   OH231549   5.573   4.214   6.268  0.1227 -0.3961  0.1999
 3353TIP3    H131550   5.585   4.191   6.360  1.6234  1.2346  0.4731
 3353TIP3    H231551   5.611   4.302   6.261 -0.8784 -0.0729 -1.7663
 3354TIP3   OH231552   2.668   2.964   0.535 -0.3201 -0.0482 -0.5800
 3354TIP3    H131553   2.714   3.021   0.597  0.0297 -0.0965 -0.7903
 3354TIP3    H231554   2.717   2.882   0.537 -0.2300 -0.0100 -1.0107
 3355TIP3   OH231555   2.565   0.226  14.027  0.6549 -0.2199 -0.0557
 3355TIP3    H131556   2.594   0.218  14.118  0.7212  1.2430  0.0803
 3355TIP3    H231557   2.625   0.291  13.989 -0.9246  1.0701 -0.4435
 3356TIP3   OH231558   3.045   5.650  17.216  0.2993  0.1020  0.0991
 3356TIP3    H131559   3.069   5.658  17.308  2.1191 -2.0832 -0.1084
 3356TIP3    H231560   3.033   5.556  17.202  1.7680  0.1757 -2.2481
 3357TIP3   OH231561   4.531   3.155   3.004 -1.0300  0.2255 -0.6813
 3357TIP3    H131562   4.516   3.065   3.034  0.6145  0.2911  0.4489
 3357TIP3    H231563   4.521   3.150   2.909 -2.4344 -0.8276 -0.5153
 3358TIP3   OH231564   5.243   1.825   4.198 -0.2918  0.3301  0.4325
 3358TIP3    H131565   5.304   1.754   4.181 -0.8429  0.0683 -0.4821
 3358TIP3    H231566   5.179   1.787   4.258 -0.2514  0.2412  0.4201
 3359TIP3   OH231567   4.053   0.322   2.717  0.5760 -0.0996  0.1592
 3359TIP3    H131568   4.016   0.330   2.629  2.1630  0.8880 -0.4638
 3359TIP3    H231569   4.088   0.233   2.721 -0.7329 -0.6348  0.3338
 3360TIP3   OH231570   3.648   0.244  10.660 -0.5182  0.0590  0.8933
 3360TIP3    H131571   3.594   0.323  10.666  1.0966  1.4403 -1.1853
 3360TIP3    H231572   3.612   0.197  10.585  0.5923  0.5711  0.0178
 3361TIP3   OH231573   0.181   0.995  16.785  0.8256 -0.3620 -0.0709
 3361TIP3    H131574   0.099   1.032  16.817  0.8339 -0.2963 -0.1289
 3361TIP3    H231575   0.156   0.910  16.748  0.5570  0.2965 -1.4412
 3362TIP3   OH231576   5.862   6.614  16.423  0.0221  0.4664 -0.2012
 3362TIP3    H131577   5.892   6.556  16.494  0.0394  1.2895  0.4895
 3362TIP3    H231578   5.833   6.555  16.354 -2.3125 -0.4328  1.4216
 3363TIP3   OH231579   1.514   3.355   2.775  0.2146  0.7457 -0.2743
 3363TIP3    H131580   1.503   3.297   2.851  0.7908 -0.3676 -1.0212
 3363TIP3    H231581   1.530   3.296   2.701 -3.6217  1.5549 -1.9697
 3364TIP3   OH231582   5.237   3.662  13.528  0.3574 -0.9791  0.3347
 3364TIP3    H131583   5.162   3.704  13.486 -0.1701 -4.2609 -2.5040
 3364TIP3    H231584   5.310   3.677  13.468  1.9324  1.4727  2.6576
 3365TIP3   OH231585   5.013   4.640   3.698 -0.3593  0.3431 -0.1183
 3365TIP3    H131586   5.017   4.660   3.791 -1.9365  1.8477 -0.3072
 3365TIP3    H231587   4.999   4.725   3.656  1.6161 -0.1290 -1.8645
 3366TIP3   OH231588   2.201   0.467   5.446  0.2262  0.2228  0.1971
 3366TIP3    H131589   2.285   0.513   5.454  0.3526 -0.3572  3.2241
 3366TIP3    H231590   2.224   0.383   5.406  1.1186  0.0963  0.9349
 3367TIP3   OH231591   2.888   4.438  16.352 -0.5708  0.3204 -0.2212
 3367TIP3    H131592   2.872   4.447  16.258 -0.7428 -1.4948 -0.3950
 3367TIP3    H231593   2.928   4.352  16.362 -1.6646 -0.0420  1.4902
 3368TIP3   OH231594   3.149   1.735   5.441 -0.7151 -0.1649  0.1472
 3368TIP3    H131595   3.104   1.751   5.357 -3.0499 -1.6006  1.0290
 3368TIP3    H231596   3.123   1.647   5.465 -0.9355  0.5714  2.8894
 3369TIP3   OH231597   5.049   1.930  12.882 -0.2250 -0.6212 -0.4099
 3369TIP3    H131598   5.071   1.991  12.953 -0.4118  2.2533 -2.6392
 3369TIP3    H231599   4.957   1.909  12.895 -0.3543  0.1835 -0.0014
 3370TIP3   OH231600   3.604   2.459  15.549  0.4288  0.4933  0.0295
 3370TIP3    H131601   3.632   2.406  15.474  1.3703  2.5147 -1.1400
 3370TIP3    H231602   3.520   2.495  15.523 -0.8101 -1.2927  1.3275
 3371TIP3   OH231603   3.824   3.608  16.113  0.1939 -0.7325  0.2257
 3371TIP3    H131604   3.919   3.622  16.121  0.3492 -2.4065  2.0746
 3371TIP3    H231605   3.814   3.562  16.030  0.5451  2.3661 -1.7063
 3372TIP3   OH231606   6.142   0.589   6.046  0.5955 -0.0367 -0.5108
 3372TIP3    H131607   6.125   0.679   6.018  0.7232  0.1375 -0.0389
 3372TIP3    H231608   6.062   0.542   6.023  0.3702  0.2858 -0.3984
 3373TIP3   OH231609   6.636   3.242  11.590  0.5416  0.1248  0.2696
 3373TIP3    H131610   6.678   3.165  11.627  1.0971 -0.0046 -0.5793
 3373TIP3    H231611   6.696   3.270  11.520 -0.6841  0.0643 -0.8452
 3374TIP3   OH231612   1.369   4.265   1.088 -0.0046 -0.5360 -0.0870
 3374TIP3    H131613   1.301   4.329   1.070  1.5786  0.6795 -2.0953
 3374TIP3    H231614   1.369   4.207   1.012 -0.6836 -2.3451  1.2099
 3375TIP3   OH231615   1.087   3.216   4.709  0.5358  0.3000 -0.7034
 3375TIP3    H131616   1.122   3.229   4.620 -1.1611  0.1804 -1.4162
 3375TIP3    H231617   1.108   3.125   4.729  0.6818  0.2444 -1.0897
 3376TIP3   OH231618   3.833   3.785  12.123 -0.1706  0.0915  0.1295
 3376TIP3    H131619   3.781   3.862  12.147 -0.4696  0.0572 -0.3862
 3376TIP3    H231620   3.773   3.732  12.070 -0.4818 -1.2530  1.7497
 3377TIP3   OH231621   1.694   4.240  13.647  0.4413  0.3610 -0.3147
 3377TIP3    H131622   1.662   4.184  13.718  2.9725  1.5265  1.9101
 3377TIP3    H231623   1.675   4.190  13.567  1.2975 -3.0604  1.4138
 3378TIP3   OH231624   6.517   4.334  11.889  0.0539 -0.0696  0.7218
 3378TIP3    H131625   6.523   4.335  11.793 -1.6809 -0.8292  0.5626
 3378TIP3    H231626   6.475   4.417  11.911 -1.0454 -0.5944  0.6636
 3379TIP3   OH231627   4.660   1.379   0.056  0.2151 -0.4057 -0.3663
 3379TIP3    H131628   4.612   1.459   0.078 -1.7800 -0.9668 -2.3369
 3379TIP3    H231629   4.610   1.309   0.096  1.2338 -0.7803  0.2721
 3380TIP3   OH231630   1.667   2.915   5.931 -0.1878  0.0239 -0.4325
 3380TIP3    H131631   1.642   2.905   6.023 -0.4785  0.7248 -0.4342
 3380TIP3    H231632   1.762   2.926   5.933 -0.2106  0.1788 -0.2105
 3381TIP3   OH231633   2.528   5.058  13.305 -0.2584  0.0511 -0.1198
 3381TIP3    H131634   2.534   5.122  13.234 -0.2050  1.1527  0.8306
 3381TIP3    H231635   2.616   5.023  13.314  0.2920  1.5605  0.8251
 3382TIP3   OH231636   5.644   4.041  11.407 -0.3081 -0.1640  0.1281
 3382TIP3    H131637   5.590   3.985  11.462 -0.4283 -1.9414 -1.6850
 3382TIP3    H231638   5.710   3.982  11.370 -0.3037  0.9149 -1.7116
 3383TIP3   OH231639   4.582   5.634   2.865  0.3189 -0.0712 -0.1836
 3383TIP3    H131640   4.504   5.581   2.852 -0.4961  0.8936  0.5804
 3383TIP3    H231641   4.615   5.607   2.951  0.1372  0.3676  0.0244
 3384TIP3   OH231642   1.412   3.150  11.551 -0.2339  0.0210  0.1211
 3384TIP3    H131643   1.463   3.092  11.607 -0.7112  0.6299  1.2212
 3384TIP3    H231644   1.475   3.184  11.487  0.6448  0.3847  1.1465
 3385TIP3   OH231645   3.691   3.794  14.202  0.0536  0.2066 -0.4138
 3385TIP3    H131646   3.682   3.881  14.164  0.1017 -0.1540 -1.2710
 3385TIP3    H231647   3.650   3.801  14.288 -2.2984  0.4156 -1.4672
 3386TIP3   OH231648   2.113   2.389  15.587 -0.6349 -0.1268 -0.0950
 3386TIP3    H131649   2.179   2.450  15.618  1.3561 -0.5140 -3.1414
 3386TIP3    H231650   2.097   2.331  15.661  1.2587  0.9311  1.2296
 3387TIP3   OH231651   3.585   5.374  17.206 -0.1248 -0.4577 -0.4433
 3387TIP3    H131652   3.570   5.458  17.163  0.3204 -0.8220 -1.3295
 3387TIP3    H231653   3.675   5.380  17.240 -0.5618 -0.0703  0.7035
 3388TIP3   OH231654   3.403   2.304   2.416 -0.2074  0.8337  0.3088
 3388TIP3    H131655   3.427   2.290   2.324 -3.7189 -1.2240 -0.4549
 3388TIP3    H231656   3.413   2.218   2.457 -2.6913  0.6538  0.7049
 3389TIP3   OH231657   4.181   3.145  11.927  0.0985  0.6239 -0.1156
 3389TIP3    H131658   4.134   3.134  12.010  2.6177  1.6737  1.5679
 3389TIP3    H231659   4.177   3.239  11.911  0.8191  0.5958 -0.4407
 3390TIP3   OH231660   0.684   4.624  13.930 -0.3826 -0.1844 -0.4589
 3390TIP3    H131661   0.708   4.717  13.934 -1.0536 -0.0397  1.4304
 3390TIP3    H231662   0.756   4.579  13.974 -0.4077 -0.4737 -0.7146
 3391TIP3   OH231663   3.382   5.674   2.084  0.0535 -0.0376  0.2768
 3391TIP3    H131664   3.297   5.663   2.127  0.1103  2.0231  1.0101
 3391TIP3    H231665   3.372   5.752   2.030  1.1546 -0.4375 -0.5547
 3392TIP3   OH231666   6.077   4.396   1.090 -0.1327  0.5147 -0.1633
 3392TIP3    H131667   6.100   4.416   0.999  2.3614  1.5950  0.6503
 3392TIP3    H231668   6.156   4.357   1.127 -0.5279  1.6854  2.0269
 3393TIP3   OH231669   2.738   6.167  16.214 -0.0762 -0.2468 -0.4755
 3393TIP3    H131670   2.748   6.129  16.301  0.2972 -0.4697 -0.6146
 3393TIP3    H231671   2.726   6.261  16.230  2.9561  0.2039 -0.2952
 3394TIP3   OH231672   0.579   3.569  15.970 -0.0137  0.3674 -0.2144
 3394TIP3    H131673   0.490   3.571  15.936 -0.3206 -0.2943  0.5077
 3394TIP3    H231674   0.619   3.649  15.938 -0.6185  0.2917 -1.2115
 3395TIP3   OH231675   5.436   0.426  15.939  0.5899  0.2148 -0.2848
 3395TIP3    H131676   5.384   0.380  15.874  2.1830 -1.1067 -0.6855
 3395TIP3    H231677   5.474   0.500  15.892 -1.0606  1.3588  0.0794
 3396TIP3   OH231678   5.086   4.095   5.684 -0.3410  0.1721  0.4974
 3396TIP3    H131679   5.045   4.181   5.676 -2.7938 -0.9842 -0.1843
 3396TIP3    H231680   5.178   4.115   5.705 -0.7839  2.9301  0.2611
 3397TIP3   OH231681   6.330   6.006  16.762 -0.0619  0.0427 -0.5825
 3397TIP3    H131682   6.389   5.945  16.807 -0.2821 -0.3353 -0.7965
 3397TIP3    H231683   6.260   5.950  16.728 -0.6696  0.5101 -0.1344
 3398TIP3   OH231684   0.787   3.436   3.561 -0.6020 -0.2790  0.7169
 3398TIP3    H131685   0.871   3.392   3.553 -0.3552  0.3626 -0.3396
 3398TIP3    H231686   0.777   3.452   3.655  0.9960  0.6469  0.7626
 3399TIP3   OH231687   5.151   3.439   3.317  0.1782  0.1517  0.4314
 3399TIP3    H131688   5.092   3.506   3.352 -0.4845  0.7489 -1.6702
 3399TIP3    H231689   5.096   3.387   3.258  1.2520 -0.7188  0.1584
 3400TIP3   OH231690   4.062   3.604  12.980  0.5191  0.0312  0.6858
 3400TIP3    H131691   4.061   3.583  13.073 -0.7309 -0.2996  0.6184
 3400TIP3    H231692   4.141   3.656  12.967  2.0487 -2.0276  1.4487
 3401TIP3   OH231693   6.134   4.172  17.090  0.0762 -0.0787 -0.3054
 3401TIP3    H131694   6.138   4.190  17.183  2.3669  0.7871 -0.5077
 3401TIP3    H231695   6.146   4.077  17.083 -0.2498 -0.1674  0.2704
 3402TIP3   OH231696   1.222   2.018  16.558 -0.3041  0.3651 -0.1338
 3402TIP3    H131697   1.297   1.966  16.586  1.0826  0.6958 -2.8526
 3402TIP3    H231698   1.238   2.105  16.593  0.7681  0.4964 -0.9114
 3403TIP3   OH231699   2.889   4.300   5.056  0.3479 -0.1210 -0.5916
 3403TIP3    H131700   2.946   4.377   5.053  0.1288  0.0360 -0.9106
 3403TIP3    H231701   2.822   4.319   4.990 -0.2560 -0.1576  0.0116
 3404TIP3   OH231702   2.614   6.511   1.631  0.5555 -0.1291  0.9275
 3404TIP3    H131703   2.603   6.485   1.722 -0.4244  0.5271  1.0156
 3404TIP3    H231704   2.705   6.538   1.624  0.6910 -0.3949  1.6601
 3405TIP3   OH231705   0.801   5.260   3.831  0.4685  0.0603  0.2373
 3405TIP3    H131706   0.831   5.278   3.921  0.0338 -0.8792  0.5765
 3405TIP3    H231707   0.837   5.174   3.811  1.1573  0.5721 -0.7631
 3406TIP3   OH231708   4.837   5.346  10.737 -0.3220  0.3791 -0.6608
 3406TIP3    H131709   4.928   5.321  10.723 -0.5379 -0.9260  0.0558
 3406TIP3    H231710   4.836   5.387  10.823 -0.3049  1.0197 -0.9629
 3407TIP3   OH231711   4.836   3.989   6.188 -0.2639 -0.2605  0.2453
 3407TIP3    H131712   4.753   3.985   6.235  0.5957 -1.2786  1.7678
 3407TIP3    H231713   4.889   3.919   6.227  0.5184 -1.1937 -2.2869
 3408TIP3   OH231714   4.010   1.590   5.358  0.8407  0.1694  0.0360
 3408TIP3    H131715   4.023   1.603   5.452 -0.8468  0.4979  0.2489
 3408TIP3    H231716   4.084   1.635   5.318  1.0509  0.8918  1.1790
 3409TIP3   OH231717   5.174   3.952  11.515 -0.4546  0.1068 -0.2765
 3409TIP3    H131718   5.094   3.992  11.549  0.4746 -0.1702  2.5061
 3409TIP3    H231719   5.144   3.890  11.449 -2.1348  3.2480 -2.8092
 3410TIP3   OH231720   3.422   4.498  16.024 -0.3338 -0.4128  0.0051
 3410TIP3    H131721   3.496   4.541  15.982 -0.3382  0.3188  0.7190
 3410TIP3    H231722   3.359   4.484  15.954 -0.3000  0.6924 -0.2581
 3411TIP3   OH231723   5.675   0.525   5.508 -0.2748  0.1461  0.7066
 3411TIP3    H131724   5.675   0.541   5.414 -0.7852 -0.6524  0.5550
 3411TIP3    H231725   5.651   0.609   5.547 -0.5221  0.3662  0.0981
 3412TIP3   OH231726   5.345   3.827   3.905  0.2508 -0.6471  0.5073
 3412TIP3    H131727   5.390   3.871   3.978  0.6936 -0.7607  0.3066
 3412TIP3    H231728   5.289   3.894   3.867  0.9053 -0.2545  0.2173
 3413TIP3   OH231729   5.184   2.939   1.466  0.0906 -0.3894  0.1373
 3413TIP3    H131730   5.230   3.009   1.514  0.5994 -2.0438  2.2287
 3413TIP3    H231731   5.112   2.984   1.422 -0.3266  1.3328  2.3492
 3414TIP3   OH231732   2.177   3.380   6.321 -0.5721 -0.0333  0.2598
 3414TIP3    H131733   2.098   3.431   6.304  0.4409  1.7178  0.5447
 3414TIP3    H231734   2.227   3.386   6.240  0.6853  1.6360  1.0940
 3415TIP3   OH231735   4.973   4.276   5.946 -0.8117  0.3328  0.6694
 3415TIP3    H131736   5.046   4.223   5.915 -1.1260 -0.3046  0.9901
 3415TIP3    H231737   5.000   4.306   6.032 -0.8481  0.2573  0.7072
 3416TIP3   OH231738   6.062   5.659   3.574  0.0816 -0.1910 -0.0747
 3416TIP3    H131739   6.037   5.579   3.528 -1.6506  0.7123 -0.7743
 3416TIP3    H231740   5.984   5.713   3.573  0.8929  1.0866  1.3531
 3417TIP3   OH231741   3.523   2.397   3.559  0.6849  0.0666 -0.6466
 3417TIP3    H131742   3.461   2.443   3.617  1.3898 -0.9917  1.0113
 3417TIP3    H231743   3.562   2.467   3.507  0.1250  1.0945  0.2487
 3418TIP3   OH231744   5.277   1.931   3.638 -0.1150 -0.0491  0.1394
 3418TIP3    H131745   5.340   2.003   3.631  0.6622 -0.7773 -0.6484
 3418TIP3    H231746   5.258   1.924   3.731 -1.0447  1.8733  0.1411
 3419TIP3   OH231747   0.355   6.348  16.042 -0.1298 -0.7271  0.1591
 3419TIP3    H131748   0.379   6.345  16.134  0.5885 -0.4174 -0.0075
 3419TIP3    H231749   0.436   6.328  15.995 -0.3727 -0.4131 -0.4117
 3420TIP3   OH231750   3.804   3.721   1.836  0.3283 -0.5193  0.4957
 3420TIP3    H131751   3.800   3.804   1.885  3.4442 -0.5855  1.0540
 3420TIP3    H231752   3.879   3.675   1.873 -0.3537 -2.9240 -0.9065
 3421TIP3   OH231753   3.920   2.060   0.233 -0.2989 -0.1111 -0.1382
 3421TIP3    H131754   3.945   2.103   0.151 -1.6095  0.6706 -0.1646
 3421TIP3    H231755   4.001   2.056   0.284  0.6219 -0.9945 -1.6198
 3422TIP3   OH231756   0.042   5.255  13.938 -0.5781  0.1504 -0.3041
 3422TIP3    H131757  -0.009   5.217  13.867 -0.8905  0.2184 -0.1155
 3422TIP3    H231758   0.019   5.203  14.015  3.3996 -3.3064 -1.0328
 3423TIP3   OH231759   1.412   1.783   5.498 -0.8102  0.8521 -0.3254
 3423TIP3    H131760   1.342   1.845   5.479  0.3298  1.9664 -1.0116
 3423TIP3    H231761   1.447   1.759   5.413 -2.0070 -1.7407 -0.1798
 3424TIP3   OH231762   5.730   6.202   4.668 -0.2747  0.4356 -1.0836
 3424TIP3    H131763   5.669   6.246   4.609 -1.1863  1.2957  0.4366
 3424TIP3    H231764   5.771   6.135   4.615 -0.3217  1.8164 -2.9630
 3425TIP3   OH231765   2.667   0.184  15.573  0.6002 -0.4170 -0.0229
 3425TIP3    H131766   2.681   0.092  15.551  0.4757 -0.1559 -1.2445
 3425TIP3    H231767   2.574   0.189  15.595  0.6692 -0.6294  0.3372
 3426TIP3   OH231768   4.357   6.653  14.536 -0.6062 -0.1104  0.0733
 3426TIP3    H131769   4.394   6.717  14.596 -0.4902 -0.2511  0.1538
 3426TIP3    H231770   4.313   6.705  14.468  0.2587  0.0719 -0.3526
 3427TIP3   OH231771   5.245   1.441  13.817 -0.3928 -0.0685  0.1004
 3427TIP3    H131772   5.194   1.498  13.875  0.5029  1.1568 -0.2652
 3427TIP3    H231773   5.325   1.490  13.800 -0.7498 -0.2128 -2.4549
 3428TIP3   OH231774   3.959   3.006   5.721 -0.4075 -1.1356 -0.1502
 3428TIP3    H131775   3.889   3.032   5.662  0.0899 -0.0638 -0.2871
 3428TIP3    H231776   4.015   3.083   5.728  0.4952 -1.8125  0.3450
 3429TIP3   OH231777   6.509   0.263   3.672 -0.0636 -0.0522 -0.2092
 3429TIP3    H131778   6.535   0.199   3.738 -0.7175 -0.0570  0.0578
 3429TIP3    H231779   6.433   0.308   3.711  1.8939  2.7037  0.7671
 3430TIP3   OH231780   5.932   4.249  11.785  0.6724  0.1199  0.6047
 3430TIP3    H131781   5.868   4.262  11.715  1.6576  1.2186 -0.1281
 3430TIP3    H231782   5.955   4.337  11.813 -1.4778 -0.2319  4.0644
 3431TIP3   OH231783   6.569   3.641   2.766  0.0544  0.1009 -0.7407
 3431TIP3    H131784   6.640   3.604   2.714  0.6849  0.5432 -0.2008
 3431TIP3    H231785   6.489   3.607   2.724  0.5764 -0.6197 -1.1839
 3432TIP3   OH231786   3.968   2.077   2.886 -0.1498 -0.0037 -0.0014
 3432TIP3    H131787   3.962   2.000   2.831 -1.3815 -0.6422  0.9732
 3432TIP3    H231788   3.879   2.090   2.920 -0.0643  2.0537 -0.4075
 3433TIP3   OH231789   3.233   0.902  11.012  0.0179  0.2848 -0.3023
 3433TIP3    H131790   3.219   0.875  10.921 -2.6706 -0.1524  0.1701
 3433TIP3    H231791   3.249   0.820  11.059 -2.1634  0.0545  0.1426
 3434TIP3   OH231792   4.920   2.328  15.852  0.5805  0.4497 -0.3150
 3434TIP3    H131793   4.995   2.331  15.910  0.2679 -2.4346  0.4014
 3434TIP3    H231794   4.854   2.383  15.895  0.5263 -1.2110  1.8966
 3435TIP3   OH231795   0.887   2.422   0.147  0.4398  0.1583  0.0644
 3435TIP3    H131796   0.903   2.338   0.190  0.7406 -0.5146 -1.2924
 3435TIP3    H231797   0.865   2.398   0.056 -1.2817  1.4464  0.0958
 3436TIP3   OH231798   0.794   6.398   0.194  0.1772 -0.4850  0.2397
 3436TIP3    H131799   0.873   6.368   0.150 -0.0975 -1.8821  0.6688
 3436TIP3    H231800   0.749   6.453   0.129  0.8789 -0.6885 -0.4276
 3437TIP3   OH231801   5.363   0.997  16.403  0.4906  0.2241  0.0743
 3437TIP3    H131802   5.430   0.929  16.399 -0.5422 -1.0046  1.8950
 3437TIP3    H231803   5.289   0.961  16.355 -0.1582 -0.1047  1.2710
 3438TIP3   OH231804   4.226   0.016  15.236 -0.1359  0.0859 -0.3433
 3438TIP3    H131805   4.182   0.100  15.220 -1.8461 -0.6675  0.2628
 3438TIP3    H231806   4.238  -0.021  15.148 -1.6258 -0.1406 -0.4682
 3439TIP3   OH231807   2.701   0.201  13.498  0.3460  0.5084 -0.4305
 3439TIP3    H131808   2.680   0.110  13.475  2.8315  0.3451 -2.4223
 3439TIP3    H231809   2.777   0.194  13.556 -0.2067  1.3316  0.4381
 3440TIP3   OH231810   4.070   1.185  14.812  0.0552  0.2712  0.0132
 3440TIP3    H131811   4.130   1.258  14.798  1.5223 -1.2191 -2.1247
 3440TIP3    H231812   4.112   1.131  14.878  0.5259 -0.1790 -0.6423
 3441TIP3   OH231813   3.852   2.940   3.998  0.1577  0.0494  0.0683
 3441TIP3    H131814   3.932   2.911   4.042 -0.8211 -3.0189  0.1266
 3441TIP3    H231815   3.796   2.972   4.069  0.3661 -0.3613  0.4264
 3442TIP3   OH231816   0.088   2.269  13.143  0.5636 -0.5244 -0.1980
 3442TIP3    H131817   0.023   2.200  13.154  0.0727 -0.3364 -1.6866
 3442TIP3    H231818   0.088   2.315  13.227  0.0642 -1.6029  0.4223
 3443TIP3   OH231819   2.433   0.082  16.326 -0.2035  0.1121 -0.1686
 3443TIP3    H131820   2.443   0.092  16.421  1.6507  0.2731 -0.3331
 3443TIP3    H231821   2.340   0.098  16.309 -0.2383  1.9556  1.4058
 3444TIP3   OH231822   5.327   3.867  16.366 -0.2531  0.4912 -0.0430
 3444TIP3    H131823   5.414   3.898  16.390 -0.9851  1.2283  1.9486
 3444TIP3    H231824   5.279   3.946  16.342 -1.2832  0.6136  2.1618
 3445TIP3   OH231825   2.172   5.345   1.030 -0.5514 -0.2540  0.5142
 3445TIP3    H131826   2.116   5.358   0.953 -0.6308 -1.6917  0.3127
 3445TIP3    H231827   2.166   5.428   1.077 -1.2818  0.3091 -0.5258
 3446TIP3   OH231828   6.006   2.403  13.373  0.1489  0.6941 -0.1953
 3446TIP3    H131829   6.055   2.322  13.361  0.2127  0.7696 -0.4435
 3446TIP3    H231830   6.064   2.459  13.424  0.4537  0.9026 -0.7627
 3447TIP3   OH231831   4.189   4.861  14.632 -0.0872 -0.4858  0.1956
 3447TIP3    H131832   4.243   4.862  14.711  3.0355 -1.4648 -1.7500
 3447TIP3    H231833   4.230   4.924  14.573 -0.0232 -2.4318 -1.9802
 3448TIP3   OH231834   3.156   0.922   3.884  0.3643  0.4663  0.5269
 3448TIP3    H131835   3.242   0.950   3.854  0.2533  2.9736  2.2455
 3448TIP3    H231836   3.164   0.919   3.979 -0.7659 -1.8486  0.6067
 3449TIP3   OH231837   2.211   2.175  16.013  1.0127  0.3222 -0.2643
 3449TIP3    H131838   2.246   2.203  16.098  0.0569  0.2434  0.1674
 3449TIP3    H231839   2.228   2.080  16.011 -0.9229 -0.0995  0.8398
 3450TIP3   OH231840   3.248   0.825  14.253 -0.0451 -0.2604 -0.1986
 3450TIP3    H131841   3.235   0.758  14.320  0.9549 -0.7375 -0.4698
 3450TIP3    H231842   3.303   0.891  14.296  2.6735 -1.7182 -1.2265
 3451TIP3   OH231843   6.487   6.124  16.562  0.0828  0.1738  0.0671
 3451TIP3    H131844   6.414   6.098  16.617 -0.1493  0.2136 -0.2234
 3451TIP3    H231845   6.539   6.182  16.618  0.6538 -0.9660  0.7492
 3452TIP3   OH231846   6.170   0.313  13.585  0.3306  0.4641 -0.3364
 3452TIP3    H131847   6.197   0.222  13.568  2.6661  1.0985 -0.3481
 3452TIP3    H231848   6.196   0.329  13.675 -1.9147  0.5582  0.3577
 3453TIP3   OH231849   2.235   5.279  15.583  0.3242  0.0467  0.0700
 3453TIP3    H131850   2.298   5.344  15.550  1.2587 -1.1929 -0.6641
 3453TIP3    H231851   2.217   5.308  15.673  2.1965  0.2949  0.4178
 3454TIP3   OH231852   5.005   4.226   3.058 -0.3629 -0.1925  0.2682
 3454TIP3    H131853   5.000   4.147   3.113  1.0270 -0.2491  0.3360
 3454TIP3    H231854   5.096   4.230   3.029 -1.1042 -0.2563 -2.2139
 3455TIP3   OH231855   2.156   4.754  14.622  0.2591  0.4844  0.0427
 3455TIP3    H131856   2.085   4.733  14.561 -0.6679 -0.8562  1.5410
 3455TIP3    H231857   2.236   4.742  14.570 -0.5220  0.1996 -1.1382
 3456TIP3   OH231858   0.436   5.337  12.433 -0.2279  0.1252 -0.1060
 3456TIP3    H131859   0.487   5.402  12.384  1.2916 -0.7297  0.2631
 3456TIP3    H231860   0.384   5.389  12.495 -0.1359  1.0533 -0.7791
 3457TIP3   OH231861   3.842   4.337  12.047  0.4374  0.0469  0.1398
 3457TIP3    H131862   3.830   4.366  12.138  1.6154 -1.1361  0.6953
 3457TIP3    H231863   3.753   4.324  12.015 -0.0266  1.1543  0.8782
 3458TIP3   OH231864   1.298   1.862  13.658 -0.1715  0.1801 -0.0024
 3458TIP3    H131865   1.326   1.951  13.637 -0.5019  0.1006 -0.8106
 3458TIP3    H231866   1.272   1.824  13.574  0.4516 -0.8581  0.2601
 3459TIP3   OH231867   0.767   5.189  15.895 -0.0532 -0.1267 -0.2469
 3459TIP3    H131868   0.802   5.166  15.981 -1.7425  0.5579  0.6603
 3459TIP3    H231869   0.772   5.284  15.892  0.4953 -0.1659 -1.1639
 3460TIP3   OH231870   0.617   4.284   2.844 -0.3782  0.2126 -0.1619
 3460TIP3    H131871   0.579   4.253   2.762 -0.3158  1.4590 -0.6856
 3460TIP3    H231872   0.542   4.316   2.894 -0.2282  1.1478 -0.5122
 3461TIP3   OH231873   1.418   4.104   2.888 -0.2685  0.0440  0.5840
 3461TIP3    H131874   1.472   4.137   2.815  0.2642  0.1147  1.0030
 3461TIP3    H231875   1.386   4.019   2.857 -0.1606  0.1373  0.2085
 3462TIP3   OH231876   1.403   1.111  14.722 -0.1470 -0.7275 -0.2471
 3462TIP3    H131877   1.379   1.178  14.786  1.5385  0.7382 -1.0758
 3462TIP3    H231878   1.325   1.100  14.668 -0.8675 -0.3963  0.7072
 3463TIP3   OH231879   5.457   6.254   4.917  0.2132 -0.6959  0.6593
 3463TIP3    H131880   5.361   6.247   4.921  0.0413 -0.3084 -1.4841
 3463TIP3    H231881   5.473   6.338   4.874  1.5947 -0.1431  2.1225
 3464TIP3   OH231882   0.317   0.541   5.239  0.0080  0.5082  0.3320
 3464TIP3    H131883   0.330   0.593   5.319  0.9462  0.5211  0.1755
 3464TIP3    H231884   0.282   0.458   5.270  2.1184 -0.1944  0.9500
 3465TIP3   OH231885   5.166   5.448   2.623 -0.1899 -0.2107 -0.0114
 3465TIP3    H131886   5.160   5.363   2.667  3.2338 -1.8860 -2.3315
 3465TIP3    H231887   5.214   5.503   2.685 -1.1971 -0.3904  0.9532
 3466TIP3   OH231888   4.218   3.316   3.162 -0.3290 -1.0047 -0.2460
 3466TIP3    H131889   4.206   3.350   3.250 -0.3913 -1.2054 -0.1766
 3466TIP3    H231890   4.130   3.290   3.134 -0.6791  0.9497 -1.1528
 3467TIP3   OH231891   6.399   3.887   2.807 -0.4642  0.8861 -0.4651
 3467TIP3    H131892   6.492   3.875   2.788 -0.3459 -0.6647  0.8646
 3467TIP3    H231893   6.356   3.883   2.721  0.4885 -0.7033 -0.9004
 3468TIP3   OH231894   0.014   1.394  14.712 -0.5460  0.2793 -0.1772
 3468TIP3    H131895   0.017   1.299  14.708 -1.5241  0.2115  0.3493
 3468TIP3    H231896   0.028   1.422  14.622  0.6461 -0.3205 -0.1904
 3469TIP3   OH231897   1.268   1.265  13.112 -0.5681 -0.2182  0.0730
 3469TIP3    H131898   1.234   1.218  13.036  1.7193  0.4815 -1.4741
 3469TIP3    H231899   1.190   1.302  13.154 -2.1198 -2.5323 -0.5449
 3470TIP3   OH231900   4.632   3.500   1.453 -0.2396  0.2075 -0.3598
 3470TIP3    H131901   4.570   3.541   1.393  1.1342 -0.9444 -2.6850
 3470TIP3    H231902   4.712   3.552   1.445  0.8010 -1.4897 -1.6442
 3471TIP3   OH231903   6.811   0.852  14.649  0.1073 -0.4201  0.1003
 3471TIP3    H131904   6.780   0.773  14.605  1.2564 -1.1539  0.5602
 3471TIP3    H231905   6.815   0.828  14.742 -0.4889  0.5046  0.3779
 3472TIP3   OH231906   6.463   1.917   1.891 -0.1914  0.2809 -0.2296
 3472TIP3    H131907   6.488   1.977   1.962 -0.5378  0.2697 -0.0930
 3472TIP3    H231908   6.473   1.969   1.811 -1.6309  0.9134 -0.0249
 3473TIP3   OH231909   4.414   0.298  10.982  0.1373 -0.0039 -0.5905
 3473TIP3    H131910   4.359   0.374  10.959  2.0695  2.2149  1.6338
 3473TIP3    H231911   4.363   0.251  11.048 -1.7181 -1.6340 -3.0017
 3474TIP3   OH231912   4.661   0.177  15.303  0.7126 -0.2140  0.3169
 3474TIP3    H131913   4.675   0.083  15.291  2.5524 -0.1895  1.8345
 3474TIP3    H231914   4.578   0.194  15.259 -0.2487 -2.7556  0.9444
 3475TIP3   OH231915   1.770   4.280  14.202  0.6899 -0.0824 -0.0107
 3475TIP3    H131916   1.771   4.184  14.210 -0.1429 -0.0485  0.5575
 3475TIP3    H231917   1.773   4.295  14.108  0.5738 -0.6750 -0.1173
 3476TIP3   OH231918   0.037   6.810   2.963  0.4398 -0.0617  0.7586
 3476TIP3    H131919   0.090   6.879   3.003  0.5193 -0.7126  1.7979
 3476TIP3    H231920  -0.010   6.855   2.892  2.0436  0.6210  0.0687
 3477TIP3   OH231921   1.959   3.066   4.576 -0.1546  0.2371 -0.5162
 3477TIP3    H131922   2.025   3.068   4.507  0.9672 -1.3651  0.4358
 3477TIP3    H231923   2.005   3.095   4.655  0.1233 -2.8269  0.6036
 3478TIP3   OH231924   3.088   6.500  14.441 -0.3093  0.1979  0.2926
 3478TIP3    H131925   3.148   6.431  14.413 -0.0937  0.3848  0.2871
 3478TIP3    H231926   3.088   6.494  14.536 -0.9891 -0.3936  0.2622
 3479TIP3   OH231927   1.504   0.709  13.367  0.7442  0.1311 -0.1152
 3479TIP3    H131928   1.460   0.661  13.296 -0.2715 -0.1900  0.6959
 3479TIP3    H231929   1.498   0.801  13.341  1.8322 -0.0830 -1.2138
 3480TIP3   OH231930   0.564   4.876  13.286  0.0452 -0.3226  0.0246
 3480TIP3    H131931   0.576   4.888  13.381  0.2503 -0.9510  0.0828
 3480TIP3    H231932   0.639   4.823  13.259  0.4473  0.5492 -0.6491
 3481TIP3   OH231933   5.167   6.053   0.304 -0.4601 -0.4004  0.6062
 3481TIP3    H131934   5.228   6.097   0.245 -0.4038  0.4552  1.2747
 3481TIP3    H231935   5.195   5.962   0.305  1.0438  0.0505  1.1857
 3482TIP3   OH231936   3.166   3.670  14.536 -0.1246  0.2352 -0.4797
 3482TIP3    H131937   3.187   3.578  14.555  0.0976  0.1014 -1.3093
 3482TIP3    H231938   3.083   3.685  14.580 -0.1122 -0.3372 -0.2475
 3483TIP3   OH231939   0.488   2.713   4.844  0.2613 -0.1939  0.4152
 3483TIP3    H131940   0.407   2.665   4.861 -0.2785  0.9253  1.1233
 3483TIP3    H231941   0.530   2.721   4.929  0.9830 -0.5190  0.0964
 3484TIP3   OH231942   1.879   4.689   1.354 -0.1796  0.5308 -0.2022
 3484TIP3    H131943   1.955   4.637   1.378  0.5701  1.2786 -0.8946
 3484TIP3    H231944   1.834   4.637   1.287  0.2402  0.5017 -0.4641
 3485TIP3   OH231945   6.326   2.375   1.755  0.4261  0.3844 -0.0066
 3485TIP3    H131946   6.281   2.403   1.675  0.7810 -0.6540 -0.5910
 3485TIP3    H231947   6.256   2.361   1.818 -0.1472 -1.4238 -0.9718
 3486TIP3   OH231948   4.693   3.868  13.094 -0.3848 -0.5335  0.1498
 3486TIP3    H131949   4.779   3.904  13.114  0.5143 -2.0347 -0.8456
 3486TIP3    H231950   4.693   3.781  13.136 -2.0333  0.0391  1.4744
 3487TIP3   OH231951   5.598   6.453  13.980 -0.1977 -0.5910 -0.0865
 3487TIP3    H131952   5.556   6.389  13.922  0.0365 -0.4514 -0.4092
 3487TIP3    H231953   5.525   6.501  14.018 -0.4395 -1.7399  0.9693
 3488TIP3   OH231954   2.737   4.745  12.753 -0.3048  0.1895  0.0600
 3488TIP3    H131955   2.806   4.706  12.699 -0.1822  0.1626  0.2354
 3488TIP3    H231956   2.763   4.724  12.843 -0.5600  0.1502  0.1234
 3489TIP3   OH231957   5.499   5.308   0.052  0.2608 -0.6566  0.4915
 3489TIP3    H131958   5.534   5.377   0.108 -1.6124 -0.6167  1.6945
 3489TIP3    H231959   5.469   5.240   0.112  0.1027 -1.5720 -0.5681
 3490TIP3   OH231960   4.730   0.152   2.159  0.0758  0.8467  0.3577
 3490TIP3    H131961   4.771   0.072   2.191 -2.4226 -0.3079  0.9030
 3490TIP3    H231962   4.737   0.214   2.231  0.0278  0.3378  0.8052
 3491TIP3   OH231963   0.851   3.234  11.849 -0.2470 -0.5352  0.0547
 3491TIP3    H131964   0.944   3.211  11.856  0.1794  0.5464 -1.5839
 3491TIP3    H231965   0.811   3.158  11.807 -0.0094 -0.7614  0.2286
 3492TIP3   OH231966   2.733   0.724   2.580  0.3244  0.0021 -0.1293
 3492TIP3    H131967   2.735   0.734   2.485  0.3103 -2.6387 -0.4736
 3492TIP3    H231968   2.692   0.805   2.612 -0.2652  0.6678 -2.3911
 3493TIP3   OH231969   0.388   3.501  11.181  0.2957 -0.2771 -0.2882
 3493TIP3    H131970   0.360   3.587  11.150 -2.6433 -0.8304  0.4572
 3493TIP3    H231971   0.390   3.447  11.102  0.6995  0.1176 -0.5536
 3494TIP3   OH231972   6.690   1.338   5.218  0.2959 -0.2072  0.1839
 3494TIP3    H131973   6.744   1.374   5.148  0.4668  0.5971  0.7198
 3494TIP3    H231974   6.706   1.244   5.215  2.1267  0.0452  0.6354
 3495TIP3   OH231975   2.105   4.586   4.523 -0.0766  0.0273 -0.6143
 3495TIP3    H131976   2.071   4.676   4.521 -1.1448 -0.3687 -1.3568
 3495TIP3    H231977   2.081   4.550   4.438  1.7674 -0.4726 -0.9703
 3496TIP3   OH231978   5.762   3.986   4.215  0.4697  0.9624 -0.3790
 3496TIP3    H131979   5.733   3.898   4.192 -2.3519  2.0166 -1.2657
 3496TIP3    H231980   5.848   3.994   4.176  1.0573 -1.5709  0.2249
 3497TIP3   OH231981   0.441   1.231  10.899 -0.0197 -0.4741 -0.4391
 3497TIP3    H131982   0.407   1.295  10.836  1.0578  0.1628 -0.4083
 3497TIP3    H231983   0.425   1.146  10.858 -0.4059 -0.1307 -1.0220
 3498TIP3   OH231984   1.560   2.231  12.942 -0.4123  0.3378  0.0211
 3498TIP3    H131985   1.607   2.275  13.013 -2.7477  2.1254  0.5684
 3498TIP3    H231986   1.629   2.192  12.888  1.6206  2.0077  1.2851
 3499TIP3   OH231987   1.891   5.537   3.008  0.8970 -0.4552  0.2685
 3499TIP3    H131988   1.816   5.531   3.068 -0.3612 -0.9104 -1.2739
 3499TIP3    H231989   1.945   5.607   3.044 -1.7710  2.0116 -0.0848
 3500TIP3   OH231990   3.564   3.539  12.157 -0.2937 -0.3953  0.2496
 3500TIP3    H131991   3.569   3.501  12.069 -1.8206  0.4204 -0.2308
 3500TIP3    H231992   3.480   3.509  12.191  0.2982 -0.7252  1.4652
 3501TIP3   OH231993   3.475   0.448  10.690 -0.6668 -0.6407  0.0607
 3501TIP3    H131994   3.465   0.540  10.714  1.0958  0.0388 -1.5213
 3501TIP3    H231995   3.422   0.439  10.610 -0.7263 -0.9742  0.1370
 3502TIP3   OH231996   4.541   3.123   1.436  0.0987 -0.4467 -0.0062
 3502TIP3    H131997   4.617   3.181   1.435  0.0083 -0.3227  0.3087
 3502TIP3    H231998   4.541   3.083   1.349  0.1660  0.0188 -0.2243
 3503TIP3   OH231999   0.251   1.278   2.072 -0.2542  0.6302  0.4225
 3503TIP3    H132000   0.324   1.286   2.010  1.4073  0.6359  2.3000
 3503TIP3    H232001   0.252   1.360   2.121 -1.3591  0.5107  0.6677
 3504TIP3   OH232002   5.734   0.498   0.494  0.1023 -0.3741  0.6266
 3504TIP3    H132003   5.787   0.432   0.538  1.5697 -0.5972 -1.3533
 3504TIP3    H232004   5.650   0.455   0.479 -0.0085 -0.7040  2.0127
 3505TIP3   OH232005   2.555   3.556   2.419  0.4925  0.0527 -0.5803
 3505TIP3    H132006   2.569   3.650   2.408 -0.5835  0.2135 -0.6196
 3505TIP3    H232007   2.539   3.544   2.512  0.1419 -0.0183 -0.6467
 3506TIP3   OH232008   3.137   1.208  14.874 -0.2030  0.0010 -0.0420
 3506TIP3    H132009   3.169   1.295  14.897  0.1820  0.1513 -1.1041
 3506TIP3    H232010   3.160   1.154  14.949  2.3190  0.1791 -0.6089
 3507TIP3   OH232011   5.137   6.632  16.324  0.3831 -0.3458  0.2864
 3507TIP3    H132012   5.083   6.611  16.248 -1.5367  0.5816  1.3552
 3507TIP3    H232013   5.192   6.705  16.295 -0.5546  0.2070 -0.1204
 3508TIP3   OH232014   5.761   3.980  13.793  0.2130 -0.3503 -0.0499
 3508TIP3    H132015   5.759   4.076  13.788 -0.3076 -0.3211  0.5778
 3508TIP3    H232016   5.684   3.953  13.742 -1.0783 -0.3159  1.7588
 3509TIP3   OH232017   4.470   2.523  16.675  0.0438  0.0451  0.8717
 3509TIP3    H132018   4.543   2.552  16.620  0.6010 -1.1376  0.9316
 3509TIP3    H232019   4.440   2.442  16.633 -0.7204  0.1086  1.2890
 3510TIP3   OH232020   5.632   0.200   4.747 -0.5491  0.0163 -0.1330
 3510TIP3    H132021   5.623   0.176   4.655 -1.1839  0.7117 -0.2585
 3510TIP3    H232022   5.725   0.190   4.766 -0.5067 -0.6969 -0.6863
 3511TIP3   OH232023   2.345   3.425   1.201 -0.3681 -0.0705  0.2676
 3511TIP3    H132024   2.276   3.484   1.233  0.8463  1.5170  0.0872
 3511TIP3    H232025   2.315   3.338   1.227 -1.4307  0.7575  2.0928
 3512TIP3   OH232026   5.118   1.868   1.824  0.7092  0.1838  0.3259
 3512TIP3    H132027   5.076   1.929   1.763  0.4004  0.6446  0.9840
 3512TIP3    H232028   5.054   1.855   1.893  0.4699 -1.5134 -0.1716
 3513TIP3   OH232029   6.153   4.367   3.263  0.5252  0.3104  0.8653
 3513TIP3    H132030   6.219   4.299   3.251 -0.5635 -0.7242  0.4497
 3513TIP3    H232031   6.075   4.319   3.293 -0.4337  1.3010  0.0657
 3514TIP3   OH232032   3.117   6.421   2.931  0.4178  0.0638  0.3338
 3514TIP3    H132033   3.110   6.417   3.027  0.2635  0.0522  0.3233
 3514TIP3    H232034   3.118   6.329   2.904  1.9247  0.0328  0.4164
 3515TIP3   OH232035   4.475   4.263  14.527  0.1418  0.3913 -0.2107
 3515TIP3    H132036   4.534   4.187  14.531 -0.0600  0.2434  0.0227
 3515TIP3    H232037   4.432   4.263  14.612 -1.4795 -0.5459 -0.9851
 3516TIP3   OH232038   2.751   1.377   3.876  0.2940  0.2115 -0.1661
 3516TIP3    H132039   2.845   1.386   3.859  0.8151  1.2100  2.7790
 3516TIP3    H232040   2.742   1.386   3.970 -2.6736 -1.1306 -0.2029
 3517TIP3   OH232041   3.646   3.748   6.616 -0.1896  0.5854  0.0652
 3517TIP3    H132042   3.698   3.823   6.644  0.8378 -0.5217  1.2753
 3517TIP3    H232043   3.561   3.785   6.592  0.2606  2.1154  0.7132
 3518TIP3   OH232044   0.163   3.546  12.602  0.1496  0.5303 -0.2505
 3518TIP3    H132045   0.244   3.596  12.617 -0.3354  0.9848  1.0031
 3518TIP3    H232046   0.158   3.487  12.678 -0.5525  0.3187 -0.4582
 3519TIP3   OH232047   2.196   6.091  14.802 -0.8688  0.1724  0.3514
 3519TIP3    H132048   2.197   6.062  14.711 -2.1176 -2.2137  1.0163
 3519TIP3    H232049   2.117   6.144  14.810 -1.4602 -0.6960  0.3281
 3520TIP3   OH232050   2.936   0.009   0.538 -0.0465 -0.6000  0.1544
 3520TIP3    H132051   2.970  -0.081   0.532 -0.3627 -0.6418 -1.7472
 3520TIP3    H232052   2.863   0.003   0.599 -0.2787 -1.7181 -0.2060
 3521TIP3   OH232053   1.796   3.937   1.032 -0.2631  0.2328  0.1929
 3521TIP3    H132054   1.799   3.918   1.126 -5.0195 -0.1274  0.5047
 3521TIP3    H232055   1.777   4.031   1.027  2.2809  0.7855 -0.6302
 3522TIP3   OH232056   4.030   5.731   2.971  0.2461 -0.1780 -0.2034
 3522TIP3    H132057   4.087   5.681   3.030  1.1013  1.1139  0.1267
 3522TIP3    H232058   4.091   5.783   2.919 -0.6322  1.4332  0.3234
 3523TIP3   OH232059   2.905   4.818   4.272  0.5643 -0.2007  0.8199
 3523TIP3    H132060   2.828   4.794   4.221  0.3627 -1.5658  1.7123
 3523TIP3    H232061   2.974   4.829   4.207 -0.1244 -0.0272  0.0997
 3524TIP3   OH232062   2.344   3.281   2.242  0.1378  0.3492  0.4675
 3524TIP3    H132063   2.298   3.230   2.309  0.0852 -0.2213  0.0078
 3524TIP3    H232064   2.318   3.372   2.259  0.1290  0.2126  1.2179
 3525TIP3   OH232065   2.409   3.678  12.097 -0.3668 -0.0176  0.2931
 3525TIP3    H132066   2.379   3.635  12.177  1.5185  0.5021  1.3402
 3525TIP3    H232067   2.436   3.765  12.125 -0.7887  0.6023 -1.1510
 3526TIP3   OH232068   3.840   1.913  11.869  0.0584 -0.6288  0.2972
 3526TIP3    H132069   3.803   1.947  11.950 -1.8426  1.1496 -1.1980
 3526TIP3    H232070   3.824   1.983  11.805 -0.5993 -2.8660 -2.1309
 3527TIP3   OH232071   6.185   3.354  12.293 -0.7769  0.0287 -0.3073
 3527TIP3    H132072   6.151   3.420  12.233 -0.7990  0.2944 -0.0113
 3527TIP3    H232073   6.247   3.303  12.241 -1.3810 -0.2508 -0.7618
 3528TIP3   OH232074   3.270   5.663  12.758  0.2597 -0.1520  0.2507
 3528TIP3    H132075   3.355   5.626  12.784  0.3510 -0.6777 -0.7269
 3528TIP3    H232076   3.216   5.587  12.737 -0.8858  0.1094  2.0212
 3529TIP3   OH232077   6.489   1.325   2.319  0.4846 -0.1327 -0.5376
 3529TIP3    H132078   6.504   1.383   2.245 -0.0199  1.4719  0.5529
 3529TIP3    H232079   6.566   1.335   2.374 -0.1568  0.5207  0.2735
 3530TIP3   OH232080   4.720   6.566   4.890  0.8078  0.0103 -0.3553
 3530TIP3    H132081   4.700   6.604   4.975  0.2315  0.9031 -0.8649
 3530TIP3    H232082   4.771   6.488   4.909 -0.7448 -0.7506  0.9033
 3531TIP3   OH232083   5.533   1.663   0.666  0.4791  0.2423  0.4598
 3531TIP3    H132084   5.538   1.606   0.589 -1.6165 -0.4963  0.8228
 3531TIP3    H232085   5.500   1.746   0.632  3.1449  1.2099  0.0003
 3532TIP3   OH232086   2.442   0.322   3.639 -0.6225 -0.2606 -0.0316
 3532TIP3    H132087   2.360   0.294   3.681 -0.2747 -1.4977 -0.1434
 3532TIP3    H232088   2.509   0.307   3.706 -0.6293  2.1888  0.6233
 3533TIP3   OH232089   3.213   5.222  11.924 -0.6942 -0.0322  0.4648
 3533TIP3    H132090   3.255   5.146  11.964 -0.4672  0.2107  0.6919
 3533TIP3    H232091   3.122   5.216  11.952 -1.1955 -1.3734 -1.2209
 3534TIP3   OH232092   1.474   2.302  15.246  0.3992  0.7512 -0.2924
 3534TIP3    H132093   1.527   2.359  15.191 -0.7842  1.2495 -0.9493
 3534TIP3    H232094   1.516   2.216  15.239  1.8790  1.3998  0.2702
 3535TIP3   OH232095   2.867   6.026   5.992 -0.1662  0.0836 -0.0829
 3535TIP3    H132096   2.873   6.004   6.084 -1.9003 -0.9899 -0.1890
 3535TIP3    H232097   2.956   6.053   5.968  0.5398 -0.5739  1.6383
 3536TIP3   OH232098   2.090   4.619  12.967  0.2717 -0.0408  0.9189
 3536TIP3    H132099   2.136   4.645  12.887 -1.3062 -1.1240 -0.4026
 3536TIP3    H232100   2.042   4.698  12.994  0.2310  0.1213  0.3705
 3537TIP3   OH232101   3.223   3.833   3.721 -0.1114  0.1052 -0.1459
 3537TIP3    H132102   3.200   3.924   3.704 -1.5048 -0.2310 -0.2248
 3537TIP3    H232103   3.226   3.826   3.816 -2.4767 -0.2782 -0.0327
 3538TIP3   OH232104   1.365   2.534  14.942  0.3023 -0.0615  0.0329
 3538TIP3    H132105   1.298   2.589  14.983 -0.0313  0.1668 -0.7843
 3538TIP3    H232106   1.360   2.556  14.849  0.3284 -1.2837 -0.2839
 3539TIP3   OH232107   4.682   2.524   3.589  0.1905  0.3410  0.4193
 3539TIP3    H132108   4.716   2.445   3.547 -3.9538 -1.0484 -0.7746
 3539TIP3    H232109   4.647   2.493   3.673  1.0746  1.5606  1.2788
 3540TIP3   OH232110   3.665   6.074   1.868  1.0169  0.7150 -0.2533
 3540TIP3    H132111   3.622   6.157   1.848 -0.1954  0.3269  0.6611
 3540TIP3    H232112   3.635   6.051   1.955  0.7921 -1.0182 -0.7477
 3541TIP3   OH232113   4.323   1.913   1.388 -0.0532 -0.4901 -0.5160
 3541TIP3    H132114   4.235   1.874   1.396 -0.2352 -0.3126 -1.5640
 3541TIP3    H232115   4.369   1.883   1.467 -0.8347 -1.1515 -0.2906
 3542TIP3   OH232116   4.141   0.265  11.864 -0.3446  0.0439 -0.6387
 3542TIP3    H132117   4.070   0.307  11.912  0.2362  1.6883 -1.1700
 3542TIP3    H232118   4.134   0.172  11.889 -2.5276  0.1790 -0.5430
 3543TIP3   OH232119   4.573   4.731   0.998 -0.3308  0.4881  0.2610
 3543TIP3    H132120   4.646   4.787   0.973 -0.0560 -0.0140 -0.0577
 3543TIP3    H232121   4.567   4.666   0.929 -0.0056 -0.4898  1.1374
 3544TIP3   OH232122   5.179   0.571  14.811 -0.3294  0.7575  0.0675
 3544TIP3    H132123   5.113   0.529  14.867 -0.2630  0.8264  0.1971
 3544TIP3    H232124   5.231   0.498  14.777 -0.2384  0.7328  0.2613
 3545TIP3   OH232125   3.184   6.441  15.350 -0.6852  0.3010  0.0252
 3545TIP3    H132126   3.202   6.445  15.256  1.8951 -0.0124  0.4274
 3545TIP3    H232127   3.210   6.527  15.383  1.5482 -0.6224  0.8502
 3546TIP3   OH232128   0.374   0.592   3.276 -0.4194 -0.1950 -0.0587
 3546TIP3    H132129   0.338   0.668   3.321  0.2409  0.2783 -0.3192
 3546TIP3    H232130   0.458   0.621   3.241 -1.3428 -0.1767 -2.5216
 3547TIP3   OH232131   2.973   3.538   5.016  0.1525  0.0891 -0.5344
 3547TIP3    H132132   2.923   3.458   5.033  1.5103 -0.4214  1.4059
 3547TIP3    H232133   2.980   3.542   4.920  0.2414 -2.2465 -0.6810
 3548TIP3   OH232134   0.985   6.734   1.534 -0.2367 -0.9364 -0.0477
 3548TIP3    H132135   1.033   6.723   1.616 -1.9005 -1.6661  0.9008
 3548TIP3    H232136   0.983   6.829   1.520  0.2348 -0.8134  0.6545
 3549TIP3   OH232137   0.843   2.944  13.006  0.0366 -0.2020 -0.0980
 3549TIP3    H132138   0.776   2.991  13.056 -0.8615 -1.7081  0.1520
 3549TIP3    H232139   0.924   2.994  13.022 -0.2969 -0.3806  2.4985
 3550TIP3   OH232140   6.333   6.804   1.330  0.4765 -0.2050 -0.8137
 3550TIP3    H132141   6.268   6.822   1.397  0.9356  0.9119 -0.6467
 3550TIP3    H232142   6.308   6.718   1.295 -1.0765  0.1948 -0.7660
 3551TIP3   OH232143   3.478   4.023   0.622 -0.3432 -0.6785  0.0274
 3551TIP3    H132144   3.514   4.064   0.701  0.7969  0.9366 -1.2732
 3551TIP3    H232145   3.417   4.088   0.587 -1.7400 -1.8576  0.1587
 3552TIP3   OH232146   2.572   0.098   0.926 -0.2936 -0.1767 -0.0666
 3552TIP3    H132147   2.544   0.171   0.982 -1.2512 -0.0341 -0.6905
 3552TIP3    H232148   2.577   0.023   0.984  0.5785  0.3510  0.5628
 3553TIP3   OH232149   4.049   1.366  16.924 -0.0249  0.0533 -0.1847
 3553TIP3    H132150   4.015   1.453  16.945 -0.8419  0.1611 -1.8461
 3553TIP3    H232151   4.072   1.370  16.831  1.0182 -1.1716 -0.0149
 3554TIP3   OH232152   6.623   2.840   5.520  0.2850 -0.0775  0.6198
 3554TIP3    H132153   6.708   2.802   5.541 -0.2980 -2.4667 -0.8775
 3554TIP3    H232154   6.561   2.768   5.532 -1.2976  1.1309  0.0719
 3555TIP3   OH232155   5.201   0.640  13.853  0.4356  0.3477  0.0474
 3555TIP3    H132156   5.150   0.686  13.920  0.6567  1.7985 -0.7444
 3555TIP3    H232157   5.190   0.693  13.774  0.9718 -0.8046 -0.8233
 3556TIP3   OH232158   2.577   0.356  13.698 -0.2503 -0.1867  0.4805
 3556TIP3    H132159   2.491   0.353  13.658 -0.9546 -2.0282  1.9956
 3556TIP3    H232160   2.634   0.309  13.637 -0.3182  0.8651 -0.4274
 3557TIP3   OH232161   2.285   5.442   3.718 -0.2203 -0.1904 -0.2055
 3557TIP3    H132162   2.326   5.443   3.632 -0.2393 -0.4242 -0.2184
 3557TIP3    H232163   2.191   5.437   3.700 -0.2590  0.4267 -0.1766
 3558TIP3   OH232164   2.130   6.751  14.614  0.1803  0.2949  0.1907
 3558TIP3    H132165   2.213   6.707  14.596  0.2901 -0.8537  2.9017
 3558TIP3    H232166   2.154   6.823  14.672 -0.4556  1.5468 -1.0735
 3559TIP3   OH232167   1.673   2.665   3.805  0.1472  0.7471  0.1972
 3559TIP3    H132168   1.673   2.576   3.839  1.4542  0.7437  0.2362
 3559TIP3    H232169   1.606   2.711   3.857  1.5522  0.5451  2.2797
 3560TIP3   OH232170   3.542   4.572   4.971 -0.2935 -0.0083  0.5818
 3560TIP3    H132171   3.584   4.652   5.001 -1.2534  0.3807  0.9346
 3560TIP3    H232172   3.521   4.588   4.880  0.5344 -0.3027  0.3310
 3561TIP3   OH232173   3.936   1.124  14.070 -0.3969  0.4245 -0.0270
 3561TIP3    H132174   3.903   1.213  14.079  1.3625  1.0965  0.2209
 3561TIP3    H232175   3.926   1.103  13.977 -1.9111  0.3999  0.1187
 3562TIP3   OH232176   1.714   2.745   3.104 -0.2772  0.2020 -0.3081
 3562TIP3    H132177   1.710   2.787   3.018 -3.0803  2.4773  0.7760
 3562TIP3    H232178   1.741   2.814   3.164 -2.7702 -0.0264  1.2196
 3563TIP3   OH232179   6.690   5.311   5.817  0.3051 -0.1992  0.2132
 3563TIP3    H132180   6.763   5.269   5.773  0.3963 -0.5997  0.7362
 3563TIP3    H232181   6.630   5.239   5.839 -0.4761  0.1706 -0.6262
 3564TIP3   OH232182   0.965   1.231  14.173  0.3869 -0.1293 -0.6070
 3564TIP3    H132183   0.902   1.228  14.101  0.0856  2.4346 -0.5330
 3564TIP3    H232184   1.051   1.235  14.130  0.3872 -1.1099 -0.7354
 3565TIP3   OH232185   2.149   3.190   5.493 -0.3996 -0.1010  0.2248
 3565TIP3    H132186   2.194   3.247   5.430 -1.3871 -0.1031 -0.5081
 3565TIP3    H232187   2.056   3.211   5.482 -0.5963  0.0210  1.8139
 3566TIP3   OH232188   3.868   2.035  14.049 -0.4612 -0.0290 -0.0971
 3566TIP3    H132189   3.808   2.056  13.978  0.8888 -0.1111 -1.2997
 3566TIP3    H232190   3.955   2.044  14.011  0.2877 -1.2587  1.2182
 3567TIP3   OH232191   4.564   5.987   2.309  0.0582 -0.0083 -0.3831
 3567TIP3    H132192   4.560   5.927   2.234  0.3028 -0.5251  0.0039
 3567TIP3    H232193   4.596   6.069   2.273  0.0838 -0.2259 -0.8648
 3568TIP3   OH232194   6.543   4.110  11.387  0.4253  0.2488 -0.6065
 3568TIP3    H132195   6.494   4.181  11.346 -1.5000  0.1479  1.3472
 3568TIP3    H232196   6.623   4.151  11.419 -0.0825  1.2771 -0.6074
 3569TIP3   OH232197   0.668   1.618  15.283 -0.4765  0.0244 -0.5012
 3569TIP3    H132198   0.739   1.648  15.340  0.1049  0.5286 -1.4710
 3569TIP3    H232199   0.621   1.553  15.336 -0.3392  0.9360  0.7763
 3570TIP3   OH232200   1.548   0.457   3.519  0.1774 -0.8339 -0.2617
 3570TIP3    H132201   1.477   0.450   3.583 -0.1482 -1.3349 -0.6562
 3570TIP3    H232202   1.511   0.418   3.439  0.8073 -0.8504 -0.5523
 3571TIP3   OH232203   2.512   1.989  14.826  0.3531 -0.2557 -0.1582
 3571TIP3    H132204   2.470   1.917  14.872  0.6633 -1.2990 -1.4595
 3571TIP3    H232205   2.445   2.023  14.767  0.2126  0.5326  0.4391
 3572TIP3   OH232206   6.361   5.551   0.489 -0.2194  0.4445 -0.2378
 3572TIP3    H132207   6.335   5.586   0.575  0.5494  0.1848  0.1080
 3572TIP3    H232208   6.311   5.604   0.426 -0.4008  0.9850  0.3462
 3573TIP3   OH232209   1.703   2.103  10.642 -0.2374 -0.4389  0.3903
 3573TIP3    H132210   1.724   2.024  10.692 -0.9710 -0.4052  0.7707
 3573TIP3    H232211   1.773   2.110  10.577 -0.8725 -2.1678 -0.5540
 3574TIP3   OH232212   0.140   0.877   5.234 -0.0423 -1.0967  0.0953
 3574TIP3    H132213   0.103   0.861   5.320  1.4925  0.5248  1.1516
 3574TIP3    H232214   0.117   0.800   5.182 -1.7548 -1.7150  1.6739
 3575TIP3   OH232215   3.979   1.386  12.693 -0.4446  0.2225  0.3263
 3575TIP3    H132216   4.047   1.449  12.670 -1.7001  1.9018  1.0989
 3575TIP3    H232217   3.899   1.419  12.652 -0.6822 -2.3638 -1.6126
 3576TIP3   OH232218   4.420   4.531   0.422  0.0882 -0.3032  0.4793
 3576TIP3    H132219   4.472   4.609   0.402  1.3514 -1.0116  0.9168
 3576TIP3    H232220   4.356   4.527   0.350  0.8936  0.3679 -0.3081
 3577TIP3   OH232221   6.096   4.087   5.018 -0.3651 -0.2454  0.2625
 3577TIP3    H132222   6.044   4.034   4.958 -0.7254  1.8703 -1.3983
 3577TIP3    H232223   6.180   4.098   4.975 -0.6835  1.4345  0.0028
 3578TIP3   OH232224   1.786   3.871   0.047  0.0650  0.0898 -0.1858
 3578TIP3    H132225   1.801   3.810   0.119  0.0237  0.6346  0.2963
 3578TIP3    H232226   1.831   3.951   0.074 -0.4423  0.4878 -0.4916
 3579TIP3   OH232227   0.714   0.878  16.852 -0.4210  0.1746  0.5106
 3579TIP3    H132228   0.765   0.797  16.860 -0.4581 -0.0607 -1.2481
 3579TIP3    H232229   0.758   0.939  16.911  2.3349  0.1754 -1.3359
 3580TIP3   OH232230   6.090   4.266   3.646 -0.0534 -0.2537  1.0252
 3580TIP3    H132231   6.169   4.230   3.605  0.0404 -0.9162  1.7819
 3580TIP3    H232232   6.075   4.348   3.599  0.0047 -1.0232 -0.3975
 3581TIP3   OH232233   5.537   1.675  16.971 -0.6373 -0.1025  0.5105
 3581TIP3    H132234   5.609   1.660  16.911  0.5806  1.3196  1.5420
 3581TIP3    H232235   5.543   1.603  17.034  0.0256  0.1118  0.7020
 3582TIP3   OH232236   2.687   4.583  13.588  1.0549 -0.6690 -0.0694
 3582TIP3    H132237   2.611   4.525  13.595  0.9804 -0.7303 -1.2030
 3582TIP3    H232238   2.711   4.603  13.678 -2.2954  1.9580  0.4304
 3583TIP3   OH232239   1.041   4.145  12.431 -0.0366  0.2851 -0.1409
 3583TIP3    H132240   1.039   4.233  12.393  0.7652  0.3149 -0.1369
 3583TIP3    H232241   1.134   4.121  12.430 -0.2716 -0.6621 -0.3745
 3584TIP3   OH232242   2.613   0.888   5.696  0.1592 -0.5896  0.2369
 3584TIP3    H132243   2.696   0.881   5.744  0.8497 -0.6634 -0.9382
 3584TIP3    H232244   2.587   0.980   5.707  2.0280  0.2933 -1.9343
 3585TIP3   OH232245   5.617   6.406   3.650 -0.5017  0.5012  0.1384
 3585TIP3    H132246   5.528   6.371   3.646 -0.5081  0.0900  2.3564
 3585TIP3    H232247   5.674   6.329   3.641 -0.4691  0.3113  1.5845
 3586TIP3   OH232248   6.498   1.401  14.090 -0.1981  0.5150 -0.2732
 3586TIP3    H132249   6.446   1.437  14.162  0.7902  1.0300  0.2040
 3586TIP3    H232250   6.589   1.419  14.114  0.4715 -2.9794  0.3600
 3587TIP3   OH232251   1.577   4.286   4.006  0.1206  0.2287  0.0306
 3587TIP3    H132252   1.566   4.303   3.912  0.0771  1.4795  0.2399
 3587TIP3    H232253   1.495   4.246   4.033 -0.1160  0.4628 -0.3389
 3588TIP3   OH232254   5.940   3.187  11.442 -0.3231  0.1389 -0.2627
 3588TIP3    H132255   6.034   3.195  11.457 -0.4646  1.5556  0.0957
 3588TIP3    H232256   5.928   3.204  11.348 -0.2032 -0.2716 -0.3524
 3589TIP3   OH232257   2.861   2.640  12.384  0.2902 -0.0444 -0.6744
 3589TIP3    H132258   2.797   2.583  12.427  0.3704  0.6725  0.4285
 3589TIP3    H232259   2.817   2.668  12.304 -0.9161  0.6719  0.2132
 3590TIP3   OH232260   6.531   5.336   2.894  0.5533  0.1377 -0.1077
 3590TIP3    H132261   6.579   5.399   2.948  1.3745  0.4269 -1.1338
 3590TIP3    H232262   6.598   5.296   2.839 -0.2577 -0.0627 -0.9868
 3591TIP3   OH232263   3.700   1.245   3.892  0.4959 -0.3849 -0.2229
 3591TIP3    H132264   3.751   1.175   3.933  1.0393  0.6617  0.9729
 3591TIP3    H232265   3.765   1.308   3.862 -0.0230  0.1363 -0.2830
 3592TIP3   OH232266   1.690   4.871   3.139  0.0720  0.1283  0.0362
 3592TIP3    H132267   1.780   4.878   3.108  0.9074  0.3671  2.3176
 3592TIP3    H232268   1.698   4.847   3.231 -2.1824  0.7693  0.4637
 3593TIP3   OH232269   0.689   3.991  13.050 -0.2867  0.1300  0.4045
 3593TIP3    H132270   0.750   3.970  12.979 -0.6911 -0.0340  0.1035
 3593TIP3    H232271   0.605   4.003  13.007 -0.3957  0.7449  0.7689
 3594TIP3   OH232272   3.560   4.296   4.040  0.2035  0.6814 -0.1177
 3594TIP3    H132273   3.470   4.287   4.070  0.1221  1.6508 -0.0378
 3594TIP3    H232274   3.610   4.237   4.095 -0.2203  1.0116  0.6367
 3595TIP3   OH232275   2.530   5.863  15.420 -0.5096  0.4088 -0.5327
 3595TIP3    H132276   2.621   5.849  15.396 -0.1642  0.2690  0.7657
 3595TIP3    H232277   2.483   5.791  15.378  0.3509 -1.0112  0.8087
 3596TIP3   OH232278   6.034   3.568  14.273  0.1893  0.2136  0.3168
 3596TIP3    H132279   5.959   3.618  14.240  0.1220  0.2288  0.4929
 3596TIP3    H232280   5.998   3.516  14.345 -0.2724 -1.8152 -1.2897
 3597TIP3   OH232281   0.689   1.763   1.801  0.0166  0.0524  0.4832
 3597TIP3    H132282   0.636   1.685   1.785  0.4889 -0.6511  2.1179
 3597TIP3    H232283   0.686   1.775   1.896  1.2421  1.1006  0.4208
 3598TIP3   OH232284   1.519   1.898  12.929 -0.0361  0.0641  0.2692
 3598TIP3    H132285   1.483   1.944  13.005  1.9008 -0.1733  1.4316
 3598TIP3    H232286   1.517   1.805  12.954 -0.9274 -0.1884 -0.6909
 3599TIP3   OH232287   3.058   2.077   1.460 -0.4127 -0.1064  0.1077
 3599TIP3    H132288   3.026   2.056   1.372  1.1014 -0.1087 -0.4762
 3599TIP3    H232289   3.152   2.088   1.449 -0.2397  0.2218  1.6838
 3600TIP3   OH232290   2.636   3.408  16.774 -0.1210  0.1786 -0.2950
 3600TIP3    H132291   2.701   3.339  16.768  0.2895  0.5690 -0.3612
 3600TIP3    H232292   2.573   3.387  16.705 -0.9741 -1.1154  0.8153
 3601TIP3   OH232293   6.224   0.465   0.982  0.0537  0.2281 -0.3515
 3601TIP3    H132294   6.295   0.401   0.991  0.4898  0.7403 -0.0753
 3601TIP3    H232295   6.150   0.414   0.948  0.9989 -0.0086 -2.1547
 3602TIP3   OH232296   6.683   1.568  17.222  0.2538  0.3608 -0.5842
 3602TIP3    H132297   6.606   1.620  17.199 -0.4618 -0.4244 -0.0392
 3602TIP3    H232298   6.758   1.621  17.194 -0.4653  1.4191 -0.5524
 3603TIP3   OH232299   2.317   6.494   2.455  0.0870 -0.0773 -0.7876
 3603TIP3    H132300   2.294   6.514   2.546  0.0373 -0.7315 -0.6531
 3603TIP3    H232301   2.316   6.579   2.411 -0.4101  0.1794 -0.2941
 3604TIP3   OH232302   2.131   0.030   1.307  0.0240  0.6680 -0.0317
 3604TIP3    H132303   2.106   0.046   1.216  0.1820 -1.0595 -0.4094
 3604TIP3    H232304   2.136   0.118   1.346 -1.9708  1.3533 -1.1472
 3605TIP3   OH232305   4.899   5.390   2.549  0.1524  0.4492 -0.0937
 3605TIP3    H132306   4.892   5.354   2.461  0.5276  1.0566 -0.3757
 3605TIP3    H232307   4.811   5.423   2.569 -0.5768 -1.7954  0.7024
 3606TIP3   OH232308   4.284   4.701   1.363  0.0224 -0.3653  0.2637
 3606TIP3    H132309   4.372   4.666   1.344  0.1578  0.5079 -0.8407
 3606TIP3    H232310   4.294   4.796   1.354 -1.5061 -0.3478 -2.2111
 3607TIP3   OH232311   3.816   0.237   4.288 -0.6249  0.2629 -0.3177
 3607TIP3    H132312   3.739   0.206   4.336  0.0987 -2.1323 -0.5986
 3607TIP3    H232313   3.854   0.304   4.345 -2.1416  0.5408  0.4314
 3608TIP3   OH232314   6.449   0.763  14.644 -0.2280  0.2802  0.4887
 3608TIP3    H132315   6.443   0.669  14.659 -0.2122  0.3000  0.6271
 3608TIP3    H232316   6.455   0.800  14.732  0.9720  0.3310  0.3976
 3609TIP3   OH232317   0.221   2.277  11.085 -0.4696  0.1697  0.1943
 3609TIP3    H132318   0.212   2.281  10.990 -1.9917 -1.8953  0.1710
 3609TIP3    H232319   0.315   2.270  11.100 -0.2215 -4.5764 -1.6412
 3610TIP3   OH232320   2.051   1.792   5.034  0.4374  0.3726 -0.3756
 3610TIP3    H132321   2.003   1.869   5.065 -0.0873 -0.5208  1.1601
 3610TIP3    H232322   2.140   1.805   5.068  0.3861  0.3857 -0.2425
 3611TIP3   OH232323   3.162   2.752   4.230  0.1339 -0.1981  0.7281
 3611TIP3    H132324   3.205   2.727   4.148 -0.0502  1.2189  0.1683
 3611TIP3    H232325   3.213   2.709   4.298  0.6392 -0.9337 -0.0912
 3612TIP3   OH232326   3.887   3.035   4.888 -0.5949  0.3927  0.9561
 3612TIP3    H132327   3.802   3.033   4.932 -0.5248 -2.0642  1.0761
 3612TIP3    H232328   3.951   3.040   4.960 -0.5677 -0.6085  1.0074
 3613TIP3   OH232329   5.921   2.509  11.179  0.4793  0.2470  0.6921
 3613TIP3    H132330   5.836   2.550  11.196  0.3390  0.9285 -1.3593
 3613TIP3    H232331   5.941   2.533  11.088  2.2053 -1.0741  0.6781
 3614TIP3   OH232332   2.932   1.273  16.728  0.1029  0.1800  0.3394
 3614TIP3    H132333   2.955   1.324  16.651 -2.1914  0.7904 -0.0077
 3614TIP3    H232334   2.932   1.182  16.698  1.2383  0.2124  0.1892
 3615TIP3   OH232335   0.829   4.390   3.204  0.0741 -1.1068 -0.3040
 3615TIP3    H132336   0.896   4.424   3.145  0.5803 -0.6057  0.5330
 3615TIP3    H232337   0.747   4.401   3.157  0.4387 -0.4687 -0.8025
 3616TIP3   OH232338   6.199   0.568  11.977  0.6606 -0.1660 -0.0770
 3616TIP3    H132339   6.124   0.624  11.958  1.1097  0.2454 -0.6712
 3616TIP3    H232340   6.273   0.610  11.932  1.1537 -0.8179  0.1025
 3617TIP3   OH232341   0.986   2.158   0.252  0.3083 -0.5210  0.6556
 3617TIP3    H132342   1.013   2.066   0.246  1.8580 -0.0362 -0.3621
 3617TIP3    H232343   1.022   2.188   0.336 -0.2951 -0.8371  1.0433
 3618TIP3   OH232344   5.945   6.335   3.286  0.0670 -1.1019  0.0966
 3618TIP3    H132345   5.854   6.309   3.271  0.1565 -1.5877  0.3923
 3618TIP3    H232346   5.995   6.286   3.221  0.0615 -0.3478 -0.5008
 3619TIP3   OH232347   6.047   1.912   5.383 -0.2710 -0.4126 -0.7426
 3619TIP3    H132348   6.070   2.002   5.404 -1.1062 -0.5068  0.6782
 3619TIP3    H232349   6.010   1.917   5.294  1.6923  0.2736 -1.5658
 3620TIP3   OH232350   1.953   5.333   3.892  0.5419  0.4124  0.1802
 3620TIP3    H132351   1.915   5.277   3.960 -0.4356 -0.3042 -0.9304
 3620TIP3    H232352   2.032   5.370   3.933  1.1046 -1.5938  1.0180
 3621TIP3   OH232353   1.370   4.097  12.826  0.4341  0.0116 -0.0546
 3621TIP3    H132354   1.377   4.005  12.799  1.1832  0.4760 -1.4832
 3621TIP3    H232355   1.459   4.131  12.820 -0.0435  1.1902 -0.8593
 3622TIP3   OH232356   4.371   3.692   6.283  0.6956 -0.6903 -0.1865
 3622TIP3    H132357   4.327   3.744   6.215 -1.4243 -1.2532  0.6677
 3622TIP3    H232358   4.457   3.733   6.292  0.2039  0.7925 -1.6404
 3623TIP3   OH232359   1.615   3.885   6.164 -0.2034 -0.3152  0.1749
 3623TIP3    H132360   1.697   3.835   6.170 -1.2054 -1.9910  0.3778
 3623TIP3    H232361   1.615   3.918   6.075  1.0504  0.3809  0.3978
 3624TIP3   OH232362   0.324   4.724   3.986 -0.0182 -0.2507  0.4239
 3624TIP3    H132363   0.385   4.651   3.971 -0.5441 -0.6407  0.1255
 3624TIP3    H232364   0.242   4.693   3.949 -0.8020 -0.3403  2.1570
 3625TIP3   OH232365   4.333   2.327   5.012 -0.1073  0.2724 -0.0679
 3625TIP3    H132366   4.366   2.357   4.927 -0.4877  1.1611  0.0859
 3625TIP3    H232367   4.362   2.237   5.018 -0.1395  0.1666 -1.1863
 3626TIP3   OH232368   2.899   4.803   1.857  0.1723  0.4465  0.4855
 3626TIP3    H132369   2.867   4.894   1.855 -0.7953  0.1503  1.7142
 3626TIP3    H232370   2.855   4.761   1.783 -2.7504 -0.0572  2.3596
 3627TIP3   OH232371   0.271   0.419   0.688  0.2419 -0.1842  0.3514
 3627TIP3    H132372   0.198   0.401   0.748  1.2388 -0.5194  1.4869
 3627TIP3    H232373   0.342   0.363   0.718 -0.1769 -2.9582 -3.1474
 3628TIP3   OH232374   6.289   0.439   5.288  0.1348 -0.4179 -0.1865
 3628TIP3    H132375   6.209   0.437   5.340  0.4636 -1.4291  0.3192
 3628TIP3    H232376   6.347   0.377   5.332  2.2318  2.2076  1.0866
 3629TIP3   OH232377   2.255   3.305   3.806 -0.4975 -0.8219 -0.0010
 3629TIP3    H132378   2.346   3.296   3.834 -0.8146  0.0863  1.4725
 3629TIP3    H232379   2.259   3.302   3.711  1.2832  0.6167 -0.0498
 3630TIP3   OH232380   4.082   1.873   3.508  0.2307 -0.3602 -0.1812
 3630TIP3    H132381   3.996   1.834   3.521  0.8454 -0.9757  2.8597
 3630TIP3    H232382   4.080   1.954   3.558  1.5010 -0.5315  0.1860
 3631TIP3   OH232383   2.723   2.467  12.578 -0.5387 -0.2120  0.0491
 3631TIP3    H132384   2.683   2.547  12.611 -2.0964 -1.2648  0.8322
 3631TIP3    H232385   2.731   2.410  12.655  1.4832 -0.4725 -0.2895
 3632TIP3   OH232386   4.878   0.066  14.533 -0.0127  0.3596 -0.1903
 3632TIP3    H132387   4.849   0.101  14.449  0.4922 -1.1072 -1.0086
 3632TIP3    H232388   4.874  -0.029  14.522  0.0482  0.1397  1.4614
 3633TIP3   OH232389   4.345   6.746   3.779 -0.8701  0.0454 -0.6534
 3633TIP3    H132390   4.258   6.711   3.762 -1.2589  0.1693  0.8872
 3633TIP3    H232391   4.331   6.811   3.849  0.4745 -0.0578 -0.2564
 3634TIP3   OH232392   4.189   3.250  14.965 -0.1522 -0.1330  0.1270
 3634TIP3    H132393   4.227   3.201  15.037  3.8319  1.7837 -0.4243
 3634TIP3    H232394   4.116   3.298  15.004  1.0659 -0.1667  2.5905
 3635TIP3   OH232395   2.387   3.011  12.661 -0.2525 -0.2604 -0.2044
 3635TIP3    H132396   2.454   3.074  12.687 -0.5849 -0.2244  0.5972
 3635TIP3    H232397   2.305   3.048  12.693 -0.4494 -1.1002  0.2998
 3636TIP3   OH232398   1.115   5.771  12.210 -0.2202  0.0497 -0.7288
 3636TIP3    H132399   1.190   5.716  12.233 -0.6414 -1.0294 -1.7626
 3636TIP3    H232400   1.145   5.822  12.135  0.2049  1.3525  0.2988
 3637TIP3   OH232401   2.679   6.186   4.866 -0.4716  0.4957  0.8889
 3637TIP3    H132402   2.659   6.157   4.777  1.3410 -0.8643  0.8787
 3637TIP3    H232403   2.774   6.184   4.872 -0.3309  4.0533  1.7640
 3638TIP3   OH232404   5.254   2.570  14.296  0.1643 -0.0390  0.2249
 3638TIP3    H132405   5.198   2.604  14.365  0.4343  0.0706  0.3930
 3638TIP3    H232406   5.301   2.647  14.264  1.5010 -0.3796  1.2638
 3639TIP3   OH232407   2.498   1.936  16.985  0.0083  0.7922 -0.2087
 3639TIP3    H132408   2.448   1.893  17.053  0.0137  0.8311 -0.1795
 3639TIP3    H232409   2.437   2.000  16.947 -0.6451 -0.5725 -1.5692
 3640TIP3   OH232410   2.939   4.055  13.177 -0.1905 -0.1918 -0.0242
 3640TIP3    H132411   2.937   4.025  13.267  0.5411 -1.5121 -0.4194
 3640TIP3    H232412   2.865   4.115  13.170 -1.6749 -1.8334  0.8639
 3641TIP3   OH232413   3.394   1.843  14.344 -0.4231 -0.7723  0.1543
 3641TIP3    H132414   3.307   1.846  14.384  1.0948  1.9607  3.8694
 3641TIP3    H232415   3.449   1.799  14.409  1.4929  0.1501 -0.7364
 3642TIP3   OH232416   0.713   2.221   3.872  0.4761  0.7325  0.0212
 3642TIP3    H132417   0.655   2.153   3.837  1.5676  0.0860 -0.5944
 3642TIP3    H232418   0.752   2.261   3.795  2.2246 -0.0861  0.4419
 3643TIP3   OH232419   2.794   4.650  17.224 -0.4717  0.2926  0.3999
 3643TIP3    H132420   2.861   4.712  17.195 -0.0049 -0.3602  0.0574
 3643TIP3    H232421   2.750   4.694  17.297  1.7999 -0.1454  2.1296
 3644TIP3   OH232422   4.636   5.322   1.630 -0.3559  0.3400  0.0501
 3644TIP3    H132423   4.592   5.246   1.591 -0.3583  0.7379 -0.7458
 3644TIP3    H232424   4.676   5.367   1.556  3.2353 -1.1290  0.8914
 3645TIP3   OH232425   5.876   2.492   0.595  0.1157  0.4967  0.4358
 3645TIP3    H132426   5.798   2.547   0.603  0.5692  0.9254  2.3646
 3645TIP3    H232427   5.870   2.454   0.507 -0.6227  2.9551 -0.6413
 3646TIP3   OH232428   6.452   4.124   3.743 -0.1491 -0.0587  0.1632
 3646TIP3    H132429   6.540   4.101   3.774  0.1068 -1.0661 -1.2271
 3646TIP3    H232430   6.393   4.074   3.799  0.2151 -0.4200  0.2248
 3647TIP3   OH232431   1.012   3.063   2.278 -0.6470 -0.8322  0.3188
 3647TIP3    H132432   0.920   3.047   2.259 -0.6796 -0.7103  0.3741
 3647TIP3    H232433   1.056   2.982   2.253 -0.5681 -0.3871 -1.1342
 3648TIP3   OH232434   0.204   5.280  15.338 -0.4449 -0.6112 -0.1986
 3648TIP3    H132435   0.173   5.270  15.428 -0.0862  0.7514  0.0909
 3648TIP3    H232436   0.203   5.191  15.302  0.5600 -1.3732  1.5409
 3649TIP3   OH232437   0.115   2.397   5.791  0.0321 -0.2291  0.1212
 3649TIP3    H132438   0.185   2.350   5.745  0.3254 -0.5305  0.8591
 3649TIP3    H232439   0.145   2.402   5.882  0.2718  1.8917 -0.0346
 3650TIP3   OH232440   3.022   5.341  17.165  0.0194  0.3279  0.5117
 3650TIP3    H132441   3.087   5.293  17.114  0.5572  1.2219  0.3398
 3650TIP3    H232442   3.010   5.288  17.244 -0.6344 -0.9355 -0.3975
 3651TIP3   OH232443   1.888   2.367   2.710 -0.1538  0.3154  0.2428
 3651TIP3    H132444   1.797   2.370   2.739 -0.7774  0.7167 -1.6105
 3651TIP3    H232445   1.909   2.458   2.688  1.0378  0.3963  1.5453
 3652TIP3   OH232446   0.947   4.887   0.207  0.2623  0.2066 -0.1143
 3652TIP3    H132447   1.015   4.951   0.229  0.7783 -0.8730  1.6626
 3652TIP3    H232448   0.996   4.809   0.181 -0.2551 -0.6578  1.4092
 3653TIP3   OH232449   0.443   0.695   3.886  0.3606  0.2232 -0.7613
 3653TIP3    H132450   0.481   0.660   3.806  0.9052 -0.5927 -0.1685
 3653TIP3    H232451   0.515   0.743   3.928 -0.1492  1.3705 -1.1485
 3654TIP3   OH232452   3.044   3.823   4.221  0.4625  0.3081  0.1190
 3654TIP3    H132453   3.020   3.796   4.309  1.7409  1.5651  0.9104
 3654TIP3    H232454   2.964   3.815   4.170 -0.0647 -1.3720  1.1423
 3655TIP3   OH232455   3.218   1.955   0.716  0.3694 -0.0746 -0.2317
 3655TIP3    H132456   3.133   1.923   0.744  0.5277 -0.2453  0.0527
 3655TIP3    H232457   3.206   2.050   0.709  0.2495 -0.0629  0.1287
 3656TIP3   OH232458   3.685   4.119  11.387 -0.1847 -0.6730 -0.2541
 3656TIP3    H132459   3.607   4.131  11.332 -1.0753  1.4231  1.3135
 3656TIP3    H232460   3.667   4.039  11.437 -0.3361 -1.3869 -1.4251
 3657TIP3   OH232461   3.099   4.983  13.358  0.0231 -0.1812 -0.3582
 3657TIP3    H132462   3.062   5.053  13.303 -0.8721 -0.2632  0.1175
 3657TIP3    H232463   3.167   5.025  13.410  0.2003  0.1071 -0.8173
 3658TIP3   OH232464   2.204   6.064   5.438 -0.1883  0.7721 -0.4110
 3658TIP3    H132465   2.192   6.047   5.345 -0.9456  0.2363 -0.2240
 3658TIP3    H232466   2.190   5.980   5.480 -1.5311  1.3455  0.3305
 3659TIP3   OH232467   1.303   4.737  13.624 -0.7678  0.2088 -0.3996
 3659TIP3    H132468   1.366   4.753  13.554 -1.2583 -0.5791 -1.0521
 3659TIP3    H232469   1.237   4.681  13.583 -2.0348  1.2303  0.1794
 3660TIP3   OH232470   5.113   2.748  16.597  0.3646  0.0816 -0.8383
 3660TIP3    H132471   5.138   2.742  16.689 -0.4887  0.4004 -0.5768
 3660TIP3    H232472   5.174   2.812  16.560  0.0431  0.7550 -0.2442
 3661TIP3   OH232473   6.477   3.046  11.052  0.0333 -0.1245  0.6439
 3661TIP3    H132474   6.405   3.095  11.013  1.5739 -0.4785 -3.0281
 3661TIP3    H232475   6.556   3.095  11.029  1.1680 -0.2152  3.7757
 3662TIP3   OH232476   5.502   1.560   6.572  0.0507  0.1732  0.2670
 3662TIP3    H132477   5.511   1.516   6.488  0.9766  0.2792  0.3032
 3662TIP3    H232478   5.429   1.620   6.560  0.5974  0.6601 -0.6724
 3663TIP3   OH232479   5.138   4.758   1.201  0.2822 -0.1655 -0.1136
 3663TIP3    H132480   5.063   4.783   1.146  0.3264 -0.4003 -0.2813
 3663TIP3    H232481   5.146   4.664   1.189  0.2182 -0.2378  0.3921
 3664TIP3   OH232482   4.695   3.740   5.249 -0.4419 -0.4542  0.1293
 3664TIP3    H132483   4.727   3.804   5.312  0.4458  0.0286 -0.7784
 3664TIP3    H232484   4.610   3.713   5.283  0.1233 -0.4049  1.6609
 3665TIP3   OH232485   5.515   2.941  16.123 -0.1134  0.4033  0.1634
 3665TIP3    H132486   5.581   2.986  16.070  0.6772 -1.3708 -0.4176
 3665TIP3    H232487   5.443   2.924  16.063  0.6088 -1.2309 -0.2972
 3666TIP3   OH232488   1.414   5.952  14.069  0.5290  0.5241  0.2958
 3666TIP3    H132489   1.477   5.931  14.000  0.5279  1.1080  0.1101
 3666TIP3    H232490   1.342   5.891  14.055  1.3379 -0.6094  0.9285
 3667TIP3   OH232491   4.577   3.197   4.095  0.6436 -0.3138  0.1030
 3667TIP3    H132492   4.640   3.146   4.145  0.8282 -0.0812  0.1112
 3667TIP3    H232493   4.628   3.271   4.061  0.7026 -0.8745 -1.0724
 3668TIP3   OH232494   1.166   3.375  15.301  0.1631 -0.4469 -0.6388
 3668TIP3    H132495   1.233   3.386  15.369 -1.2663 -1.2374  0.9473
 3668TIP3    H232496   1.195   3.297  15.253 -0.2902 -1.6160  0.9095
 3669TIP3   OH232497   6.520   1.515   4.919 -0.4290  0.2973 -0.3941
 3669TIP3    H132498   6.494   1.516   5.011 -0.2157 -1.4379 -0.2758
 3669TIP3    H232499   6.458   1.453   4.878 -0.4188  0.9212 -1.3880
 3670TIP3   OH232500   5.643   6.799  15.461 -0.4208 -0.4219  0.2306
 3670TIP3    H132501   5.644   6.722  15.404  0.0857 -1.8658  2.0747
 3670TIP3    H232502   5.735   6.819  15.475 -0.5278 -0.4932  1.0565
 3671TIP3   OH232503   0.906   0.935   5.038 -0.0719  0.0422  0.3796
 3671TIP3    H132504   0.822   0.975   5.064 -0.5375 -1.4556  1.3298
 3671TIP3    H232505   0.923   0.870   5.106  1.4786 -0.2307 -0.2352
 3672TIP3   OH232506   2.020   6.389  12.316  0.3987  0.0175 -0.4287
 3672TIP3    H132507   2.096   6.332  12.305  0.6217  0.0866  0.6258
 3672TIP3    H232508   2.051   6.460  12.372  0.1227  1.2116 -1.7219
 3673TIP3   OH232509   5.800   2.309   2.102 -0.1547 -0.2710  0.3326
 3673TIP3    H132510   5.779   2.249   2.031 -0.8647 -0.0963  0.3811
 3673TIP3    H232511   5.857   2.259   2.160 -0.2126 -0.6785  0.0446
 3674TIP3   OH232512   2.524   3.535  13.430  0.1346 -0.2884 -0.2445
 3674TIP3    H132513   2.601   3.591  13.444  0.9327 -1.2701 -0.5533
 3674TIP3    H232514   2.497   3.554  13.340  0.3305 -0.2981 -0.3077
 3675TIP3   OH232515   2.380   1.301  17.014 -0.1217  0.0982 -0.1652
 3675TIP3    H132516   2.410   1.258  16.934  1.2529  1.6973 -0.5637
 3675TIP3    H232517   2.345   1.385  16.985  3.6434  2.3405  1.0360
 3676TIP3   OH232518   1.945   3.819   2.900 -0.0358 -0.2154 -0.6546
 3676TIP3    H132519   1.854   3.807   2.928  0.0864  0.6304  0.1435
 3676TIP3    H232520   1.992   3.745   2.938  0.1788  1.0538  1.7091
 3677TIP3   OH232521   5.658   2.568  15.940  0.4004  0.2567 -0.3155
 3677TIP3    H132522   5.704   2.500  15.892  1.4929  0.6263  0.1894
 3677TIP3    H232523   5.724   2.609  15.995 -1.2313 -2.1890  3.9797
 3678TIP3   OH232524   4.408   3.596   1.282  0.0119 -0.0723 -0.1006
 3678TIP3    H132525   4.385   3.599   1.375 -0.0661  0.8207 -0.1442
 3678TIP3    H232526   4.360   3.520   1.248 -0.2091 -0.2172  0.5137
 3679TIP3   OH232527   5.890   6.588  13.075  0.4727  0.4520  0.2659
 3679TIP3    H132528   5.856   6.665  13.119 -0.0693  1.0028 -1.0806
 3679TIP3    H232529   5.878   6.605  12.982  1.6856 -0.6315 -0.1302
 3680TIP3   OH232530   1.372   6.252  11.424 -0.4157 -0.6766  0.0811
 3680TIP3    H132531   1.459   6.260  11.385 -1.1595  0.9235 -1.3973
 3680TIP3    H232532   1.362   6.158  11.442  0.9975 -1.1158 -1.1957
 3681TIP3   OH232533   4.725   5.204   2.895  0.5100  0.1340 -0.0428
 3681TIP3    H132534   4.765   5.280   2.937 -0.2945  0.6530 -0.1823
 3681TIP3    H232535   4.744   5.215   2.802  0.7574 -0.0653 -0.0168
 3682TIP3   OH232536   0.713   1.444   3.818 -0.0578 -0.4694  0.2337
 3682TIP3    H132537   0.672   1.365   3.783  0.2310 -0.1778 -0.7841
 3682TIP3    H232538   0.765   1.478   3.746 -0.9110  1.1666  0.3574
 3683TIP3   OH232539   6.591   1.323  10.744 -0.2805 -0.0591 -0.0015
 3683TIP3    H132540   6.643   1.255  10.789  0.6419 -0.0999 -1.0737
 3683TIP3    H232541   6.500   1.301  10.765  0.0536 -0.9539  0.6084
 3684TIP3   OH232542   0.014   1.679  10.371  0.1192 -0.2191 -0.0185
 3684TIP3    H132543  -0.035   1.600  10.394 -2.2941  0.9035 -1.0045
 3684TIP3    H232544   0.103   1.647  10.353  0.3404 -2.1173  3.4922
 3685TIP3   OH232545   4.130   3.173   4.560  0.3976 -0.3300 -0.2159
 3685TIP3    H132546   4.210   3.205   4.518  0.7868  0.3957  0.9906
 3685TIP3    H232547   4.146   3.080   4.573  1.3649 -0.0780  0.6034
 3686TIP3   OH232548   6.674   4.758  12.664 -0.3847 -0.2901 -0.0551
 3686TIP3    H132549   6.611   4.690  12.686  1.5371 -2.3857 -0.6838
 3686TIP3    H232550   6.712   4.730  12.581  1.5765  0.6804  0.4411
 3687TIP3   OH232551   3.321   0.738  10.431 -0.1123  0.3463 -0.0306
 3687TIP3    H132552   3.294   0.669  10.371  0.5045  0.4441 -0.4237
 3687TIP3    H232553   3.247   0.747  10.491 -0.3793 -0.3529 -0.2379
 3688TIP3   OH232554   4.189   1.821  15.040 -0.2056 -1.0211 -0.0072
 3688TIP3    H132555   4.254   1.891  15.035 -0.6067 -0.5626  0.9339
 3688TIP3    H232556   4.158   1.811  14.950 -0.3352  0.1988 -0.1139
 3689TIP3   OH232557   3.191   0.394  14.718  0.0030 -0.7881  0.5199
 3689TIP3    H132558   3.222   0.482  14.696  1.2425 -1.2697  0.2805
 3689TIP3    H232559   3.263   0.355  14.768  0.1739 -2.2390 -0.7706
 3690TIP3   OH232560   0.825   1.603  12.263 -0.1491  0.2353  0.1709
 3690TIP3    H132561   0.909   1.609  12.307 -0.1689 -0.9889  0.4272
 3690TIP3    H232562   0.767   1.662  12.311  0.1372 -0.1868  1.0398
 3691TIP3   OH232563   1.586   4.567   2.075  0.2463 -0.5583 -0.0751
 3691TIP3    H132564   1.572   4.630   2.005 -2.9574  0.5191  1.3555
 3691TIP3    H232565   1.680   4.546   2.070  1.1158  2.9936 -1.6779
 3692TIP3   OH232566   0.063   0.727  16.757 -0.7255  0.0131  0.3346
 3692TIP3    H132567   0.121   0.652  16.750 -0.2718  0.3985 -0.0776
 3692TIP3    H232568  -0.025   0.691  16.746 -0.8220 -0.9742  3.4078
 3693TIP3   OH232569   0.755   2.921   1.618  0.2699 -0.1425 -0.1666
 3693TIP3    H132570   0.780   2.845   1.670 -4.1745 -0.9501  1.1486
 3693TIP3    H232571   0.726   2.885   1.534 -1.2215  0.1231  0.2145
 3694TIP3   OH232572   2.042   3.623  12.915  0.0441  0.0476 -0.0193
 3694TIP3    H132573   1.998   3.599  12.833 -1.1128  0.7241  0.3782
 3694TIP3    H232574   1.995   3.575  12.983 -1.3000  2.0952  0.6016
 3695TIP3   OH232575   0.891   6.722   2.641 -0.4539  0.5965 -0.3584
 3695TIP3    H132576   0.926   6.811   2.650 -0.4131  0.6476 -0.9996
 3695TIP3    H232577   0.964   6.671   2.605  0.1454 -0.1373  1.7703
 3696TIP3   OH232578   6.023   0.748   4.851 -0.7937 -0.5292  0.0369
 3696TIP3    H132579   6.020   0.691   4.928 -1.4171  1.1584  1.3596
 3696TIP3    H232580   6.116   0.759   4.833 -0.6100 -0.5854  0.8871
 3697TIP3   OH232581   4.486   2.851   2.243 -0.3664 -0.1786  0.4391
 3697TIP3    H132582   4.412   2.792   2.258 -0.2074 -0.9196 -1.4454
 3697TIP3    H232583   4.482   2.870   2.150  1.8706 -0.2757  0.2824
 3698TIP3   OH232584   6.251   1.273   3.730 -0.0239 -0.8541  0.4254
 3698TIP3    H132585   6.346   1.280   3.719  0.2928 -1.4803  2.3055
 3698TIP3    H232586   6.217   1.355   3.694  1.2339 -0.5354 -0.1236
 3699TIP3   OH232587   0.321   4.361   3.208 -0.9206  0.3239  0.3472
 3699TIP3    H132588   0.365   4.375   3.292 -0.2911  0.1339  0.0597
 3699TIP3    H232589   0.281   4.275   3.216 -0.5730  0.1572  0.3393
 3700TIP3   OH232590   2.862   4.196  11.316 -0.0697 -0.1066  0.2092
 3700TIP3    H132591   2.797   4.196  11.246  1.0417 -0.8942 -0.8633
 3700TIP3    H232592   2.882   4.103  11.331  0.6026  0.1096  0.7122
 3701TIP3   OH232593   5.078   4.439   4.913  0.3677  0.0342 -0.7888
 3701TIP3    H132594   5.094   4.390   4.994  3.5369  1.3043 -0.4921
 3701TIP3    H232595   5.114   4.526   4.930  1.9087  0.1254 -3.7678
 3702TIP3   OH232596   5.374   2.627  11.692  0.1566 -0.0033 -0.1782
 3702TIP3    H132597   5.325   2.597  11.769  1.8229 -0.7946  0.6128
 3702TIP3    H232598   5.311   2.679  11.642 -0.4765  2.1188  2.6312
 3703TIP3   OH232599   1.429   5.062  15.404  0.3597 -0.4037 -0.6036
 3703TIP3    H132600   1.378   5.007  15.345 -0.0911  0.0268 -0.6182
 3703TIP3    H232601   1.432   5.013  15.486 -1.6766  0.3771  0.0025
 3704TIP3   OH232602   6.063   5.304   0.679  0.4462  0.9106 -0.3699
 3704TIP3    H132603   5.977   5.275   0.648  0.5415 -0.6805  0.7309
 3704TIP3    H232604   6.123   5.278   0.610  0.7984 -3.4952  1.2647
 3705TIP3   OH232605   5.564   2.539  16.782 -0.1196  0.0730  0.1692
 3705TIP3    H132606   5.582   2.459  16.832 -1.1276  0.0841  0.5767
 3705TIP3    H232607   5.539   2.507  16.695  1.9931  0.0670 -0.4903
 3706TIP3   OH232608   5.122   3.199   1.826  0.0367 -0.5680 -0.6121
 3706TIP3    H132609   5.191   3.134   1.837 -0.3991 -1.1866 -1.4107
 3706TIP3    H232610   5.051   3.151   1.783 -0.2019  0.4989 -1.4517
 3707TIP3   OH232611   2.756   2.633  12.127  0.7202 -0.1031  0.0734
 3707TIP3    H132612   2.668   2.652  12.094  0.3045  2.4772  2.2932
 3707TIP3    H232613   2.811   2.702  12.089  1.3946 -0.5151  0.2882
 3708TIP3   OH232614   2.857   0.612  12.920 -0.7318 -0.3656  0.0554
 3708TIP3    H132615   2.854   0.666  12.998  0.8881 -0.1879  0.0361
 3708TIP3    H232616   2.900   0.531  12.949 -2.3097 -1.2972 -0.1163
 3709TIP3   OH232617   1.021   3.377   1.597 -0.1193  0.5280  0.1967
 3709TIP3    H132618   0.967   3.328   1.535 -0.8195  3.8205 -2.0545
 3709TIP3    H232619   0.964   3.392   1.672 -0.5045 -0.4563  0.1199
 3710TIP3   OH232620   3.605   0.171  12.000 -0.1450  0.1802  0.1863
 3710TIP3    H132621   3.683   0.203  11.955 -0.7398 -1.0157 -1.8085
 3710TIP3    H232622   3.634   0.091  12.043 -0.1559  0.0126 -0.1193
 3711TIP3   OH232623   3.268   2.206   2.756  0.2361  0.1896  0.1546
 3711TIP3    H132624   3.288   2.299   2.746  0.4858  0.1295  0.0743
 3711TIP3    H232625   3.288   2.168   2.671  3.2363 -0.4771  1.0197
 3712TIP3   OH232626   1.709   6.085  14.230  0.3194 -0.3325 -0.0476
 3712TIP3    H132627   1.679   5.996  14.250  1.4686 -0.6227  0.4692
 3712TIP3    H232628   1.757   6.112  14.308  0.3542  0.5825 -0.3761
 3713TIP3   OH232629   0.991   5.389  15.826 -0.7186 -0.1613  0.6257
 3713TIP3    H132630   1.039   5.450  15.770 -0.9463  0.1206  0.7356
 3713TIP3    H232631   1.008   5.303  15.787  1.0603 -0.2429  1.5056
 3714TIP3   OH232632   1.725   4.487  16.922  0.2445  0.5221  0.4858
 3714TIP3    H132633   1.750   4.428  16.851 -0.3760  1.1479 -0.2784
 3714TIP3    H232634   1.639   4.455  16.950  0.5728  0.1604  1.0911
 3715TIP3   OH232635   2.581   6.741   4.420 -0.4646 -0.5158 -0.2560
 3715TIP3    H132636   2.634   6.729   4.499  0.8453  0.7743 -0.8995
 3715TIP3    H232637   2.632   6.800   4.365 -3.0321  1.7053 -0.4781
 3716TIP3   OH232638   2.383   1.620   2.478 -0.5465 -0.3578 -0.6500
 3716TIP3    H132639   2.353   1.531   2.497 -1.4880  0.5078  2.5549
 3716TIP3    H232640   2.478   1.611   2.469 -0.2752 -1.4592  2.1062
 3717TIP3   OH232641   0.757   4.036  16.320  0.1448  0.0818  0.0325
 3717TIP3    H132642   0.793   4.121  16.346  0.1051  0.2239 -0.3831
 3717TIP3    H232643   0.682   4.023  16.379  0.3878  0.1530  0.3609
 3718TIP3   OH232644   2.521   5.890   4.640  0.0354 -0.3563  0.3853
 3718TIP3    H132645   2.510   5.985   4.634  2.7331 -0.0106 -0.2789
 3718TIP3    H232646   2.503   5.858   4.551 -0.4490 -0.4203  0.5050
 3719TIP3   OH232647   4.287   0.198   1.521  0.8004 -0.5864 -0.0408
 3719TIP3    H132648   4.214   0.156   1.566  1.4534 -1.3090  0.3576
 3719TIP3    H232649   4.356   0.203   1.586  0.5918  1.5985  0.0961
 3720TIP3   OH232650   4.803   4.641   1.452 -0.0251 -0.5002 -0.5090
 3720TIP3    H132651   4.766   4.607   1.533  0.8926  1.7062  0.9302
 3720TIP3    H232652   4.796   4.736   1.461  3.0085 -0.0750 -1.5634
 3721TIP3   OH232653   4.731   1.668  14.110  0.1413 -0.3585  0.4118
 3721TIP3    H132654   4.754   1.575  14.115  1.3172 -0.1275 -0.4083
 3721TIP3    H232655   4.744   1.701  14.199 -0.3225 -0.9734  0.7190
 3722TIP3   OH232656   2.779   4.690  13.016 -0.1738  0.3676  0.5329
 3722TIP3    H132657   2.766   4.659  13.105 -1.1458 -0.9021 -0.0094
 3722TIP3    H232658   2.871   4.716  13.012 -0.5777  2.3687  2.4428
 3723TIP3   OH232659   4.819   3.957  11.919 -0.0254 -0.1592  0.3235
 3723TIP3    H132660   4.838   4.005  11.838 -4.8860  0.1592 -0.9384
 3723TIP3    H232661   4.827   4.023  11.988 -0.3201  0.8046 -0.5401
 3724TIP3   OH232662   2.853   2.257  10.954 -0.3276  0.3614 -0.3429
 3724TIP3    H132663   2.906   2.334  10.934 -0.4107  0.2750 -0.9284
 3724TIP3    H232664   2.823   2.271  11.043 -1.1285  1.4718 -0.7572
 3725TIP3   OH232665   2.114   4.335  12.872 -0.0077  0.1767 -0.1776
 3725TIP3    H132666   2.094   4.413  12.924 -0.8060  0.9900 -1.6373
 3725TIP3    H232667   2.208   4.340  12.856  0.0552  0.4962  0.2717
 3726TIP3   OH232668   0.339   1.421  14.441  0.0460  0.2063  0.7171
 3726TIP3    H132669   0.338   1.489  14.373 -0.9613 -0.8044 -0.3233
 3726TIP3    H232670   0.354   1.339  14.392 -2.3808 -0.7748  1.4605
 3727TIP3   OH232671   0.723   0.957  15.164  0.1324  0.1546  0.3681
 3727TIP3    H132672   0.769   1.034  15.199  0.5237 -0.4220  1.1416
 3727TIP3    H232673   0.708   0.901  15.240  1.4978 -1.3843 -0.4496
 3728TIP3   OH232674   5.160   0.665   3.839  0.3589 -1.0124 -0.0364
 3728TIP3    H132675   5.098   0.671   3.766  1.6310  0.0859 -1.0980
 3728TIP3    H232676   5.226   0.602   3.809  1.4746  0.2499 -0.3625
 3729TIP3   OH232677   2.996   5.821  12.352  0.3560  0.2009  0.1124
 3729TIP3    H132678   2.953   5.826  12.267 -0.4521 -0.8512  0.4335
 3729TIP3    H232679   3.088   5.838  12.333 -0.0705  1.7408 -0.6975
 3730TIP3   OH232680   1.887   6.062   5.312  0.0006  0.0319 -0.2373
 3730TIP3    H132681   1.823   6.068   5.241 -0.1258  0.5560 -0.0847
 3730TIP3    H232682   1.957   6.122   5.285  1.6566 -2.3583 -1.6251
 3731TIP3   OH232683   2.441   4.164  15.391 -0.1112  0.5776 -0.1971
 3731TIP3    H132684   2.455   4.070  15.387 -0.8189  0.4996 -1.2987
 3731TIP3    H232685   2.507   4.196  15.452 -1.5698 -0.9439  2.3290
 3732TIP3   OH232686   6.794   1.637   1.463 -0.0155 -0.1674 -0.4515
 3732TIP3    H132687   6.842   1.697   1.520  0.4675 -0.5580 -0.4330
 3732TIP3    H232688   6.724   1.602   1.519  0.4624 -0.5563 -0.0895
 3733TIP3   OH232689   2.612   5.613  14.088 -0.0438 -0.5060  0.1267
 3733TIP3    H132690   2.618   5.518  14.097  2.9862 -0.7543 -2.7379
 3733TIP3    H232691   2.701   5.641  14.069 -1.3471  2.4662 -2.3920
 3734TIP3   OH232692   1.244   3.439   2.429  0.0559  0.7895  0.1017
 3734TIP3    H132693   1.223   3.518   2.480  1.0452  0.0803  1.6779
 3734TIP3    H232694   1.201   3.368   2.476  0.6433  0.1725 -0.2789
 3735TIP3   OH232695   5.501   0.882   3.390 -0.2868 -0.0767 -0.5570
 3735TIP3    H132696   5.481   0.965   3.347 -0.9881  0.4304  0.7036
 3735TIP3    H232697   5.478   0.815   3.325  0.7472  0.7075 -1.7676
 3736TIP3   OH232698   5.472   1.479  11.004 -0.1332  0.4142  0.0544
 3736TIP3    H132699   5.430   1.425  10.937  2.2248 -1.7371  0.1624
 3736TIP3    H232700   5.543   1.524  10.958  0.4609  0.2290  0.7819
 3737TIP3   OH232701   4.976   5.371  17.193 -0.1110 -1.2233 -0.1015
 3737TIP3    H132702   5.042   5.395  17.258  0.2818 -0.7890 -0.6496
 3737TIP3    H232703   4.902   5.340  17.245  0.0872 -0.6147  0.5687
 3738TIP3   OH232704   1.717   1.174   3.784  0.0654  0.5158 -0.2320
 3738TIP3    H132705   1.634   1.222   3.795 -0.2360  0.0645 -0.5203
 3738TIP3    H232706   1.778   1.221   3.841 -0.9154 -0.4673  1.7490
 3739TIP3   OH232707   6.030   2.408  16.842 -0.5846 -0.4382  0.3336
 3739TIP3    H132708   6.005   2.463  16.768  0.7196 -1.1201 -0.6529
 3739TIP3    H232709   6.042   2.469  16.914  0.2172  0.5066 -0.5803
 3740TIP3   OH232710   3.229   4.945   0.632 -0.0240 -0.3940  0.2078
 3740TIP3    H132711   3.287   4.872   0.654 -0.0080 -0.1352  1.0587
 3740TIP3    H232712   3.287   5.017   0.611 -0.0119 -0.9197 -1.8433
 3741TIP3   OH232713   1.469   3.166  13.363  0.1155 -0.7064  0.2754
 3741TIP3    H132714   1.562   3.145  13.361  0.3016  0.1328 -1.6446
 3741TIP3    H232715   1.442   3.165  13.272 -1.3035  1.0254  0.6140
 3742TIP3   OH232716   5.805   5.290   5.610 -0.1365 -0.0638  0.5642
 3742TIP3    H132717   5.806   5.211   5.556 -0.2680  0.3403 -0.0421
 3742TIP3    H232718   5.885   5.337   5.585 -1.8561  1.8284 -1.9061
 3743TIP3   OH232719   6.291   3.905  17.231  0.4705  0.4080  0.1577
 3743TIP3    H132720   6.369   3.862  17.195  0.2715 -1.3842  1.6864
 3743TIP3    H232721   6.310   3.914  17.324 -1.1776 -0.1628  0.5794
 3744TIP3   OH232722   0.998   4.245  11.541 -0.3851 -0.4711  0.2172
 3744TIP3    H132723   1.060   4.305  11.499 -0.0276 -0.5663  0.5985
 3744TIP3    H232724   1.032   4.158  11.520 -1.2602 -0.5688 -0.8799
 3745TIP3   OH232725   5.105   5.907  11.700  0.1523  0.0856 -0.3952
 3745TIP3    H132726   5.181   5.966  11.690 -0.8261  1.7169  1.0583
 3745TIP3    H232727   5.048   5.954  11.761 -2.2171 -0.9275 -1.7265
 3746TIP3   OH232728   6.162   1.199   0.207 -0.2696  1.2128 -0.2046
 3746TIP3    H132729   6.254   1.208   0.232 -0.4337  0.0139  0.9277
 3746TIP3    H232730   6.115   1.200   0.290 -1.1822  0.7511 -0.7148
 3747TIP3   OH232731   0.685   6.656  16.681 -0.1584 -0.1969  0.6656
 3747TIP3    H132732   0.607   6.603  16.665 -0.6392  0.5753  0.3900
 3747TIP3    H232733   0.670   6.694  16.768 -0.1897  0.1162  0.5243
 3748TIP3   OH232734   6.518   6.147   4.662 -0.1070 -0.1293  0.7821
 3748TIP3    H132735   6.601   6.102   4.679  0.0302 -0.1883 -0.0237
 3748TIP3    H232736   6.469   6.086   4.607  0.3002  0.9073 -0.7990
 3749TIP3   OH232737   5.711   3.218  13.284 -0.2355 -0.1111 -0.5864
 3749TIP3    H132738   5.655   3.232  13.361  0.3676 -2.5744  0.4084
 3749TIP3    H232739   5.743   3.128  13.294  1.5169  0.1956 -2.6752
 3750TIP3   OH232740   1.114   4.502   3.185  0.2739 -0.3748  0.2327
 3750TIP3    H132741   1.126   4.553   3.265  0.6407  0.0779 -0.1066
 3750TIP3    H232742   1.192   4.520   3.132 -0.4248  0.1278 -0.6585
 3751TIP3   OH232743   6.130   3.336   4.406 -0.1240 -0.0152 -0.2359
 3751TIP3    H132744   6.058   3.347   4.467  0.6087  0.0442  0.6388
 3751TIP3    H232745   6.191   3.407   4.427  2.2298 -2.4353  2.0151
 3752TIP3   OH232746   0.113   5.683   2.333 -0.0445  0.1641  0.5108
 3752TIP3    H132747   0.034   5.728   2.362 -1.2839 -1.4585 -0.1879
 3752TIP3    H232748   0.150   5.647   2.413 -2.1179 -2.2232  0.5207
 3753TIP3   OH232749   0.262   2.419   2.976 -0.3133  0.0689 -0.5054
 3753TIP3    H132750   0.257   2.483   3.047 -0.1855  0.0657 -0.4924
 3753TIP3    H232751   0.354   2.422   2.948 -0.8085  1.8100 -2.2468
 3754TIP3   OH232752   1.602   3.072  16.139 -0.5252  0.4260  0.7532
 3754TIP3    H132753   1.615   2.991  16.190 -1.2752  0.3276  0.8013
 3754TIP3    H232754   1.531   3.117  16.185 -0.7711  0.6420  0.1627
 3755TIP3   OH232755   6.590   6.388  12.644 -0.4640  0.0764  0.0039
 3755TIP3    H132756   6.502   6.394  12.681 -0.0905 -0.2126  0.9882
 3755TIP3    H232757   6.632   6.470  12.670  0.0866 -0.5101  1.0259
 3756TIP3   OH232758   6.302   2.917  14.256 -0.7731 -0.0882  0.1410
 3756TIP3    H132759   6.289   2.897  14.349 -0.1176  0.4310  0.3551
 3756TIP3    H232760   6.257   3.001  14.244  1.3105  1.1641  0.6274
 3757TIP3   OH232761   0.409   5.558  11.948 -0.4601 -0.5244  0.2957
 3757TIP3    H132762   0.348   5.539  12.019  2.6322 -0.3157  3.2872
 3757TIP3    H232763   0.418   5.653  11.949 -1.1275 -0.4182 -1.1469
 3758TIP3   OH232764   2.649   4.363  10.638  0.1521 -0.5496  0.1283
 3758TIP3    H132765   2.696   4.444  10.656  0.2126 -0.7873  1.0947
 3758TIP3    H232766   2.703   4.294  10.676  0.7780 -1.2197 -1.8370
 3759TIP3   OH232767   0.626   1.246   5.305  0.3903  0.1774  0.0647
 3759TIP3    H132768   0.572   1.270   5.381 -0.0641  0.8307 -0.4424
 3759TIP3    H232769   0.564   1.207   5.243  0.4275  1.1378 -0.6149
 3760TIP3   OH232770   2.132   3.866   4.802 -0.6157  0.2346 -0.6615
 3760TIP3    H132771   2.180   3.806   4.860 -0.8865  1.6079  1.0506
 3760TIP3    H232772   2.142   3.952   4.843 -1.3194  1.1619 -2.3665
 3761TIP3   OH232773   1.681   0.316  13.956 -0.1110  0.4459  0.3512
 3761TIP3    H132774   1.636   0.274  13.883 -0.6130  0.5105  0.6131
 3761TIP3    H232775   1.773   0.318  13.931 -0.4407  1.7124 -0.8968
 3762TIP3   OH232776   5.332   6.580   2.730  0.2191  0.5762 -0.0230
 3762TIP3    H132777   5.334   6.656   2.672 -0.4148  1.2881  0.8521
 3762TIP3    H232778   5.423   6.552   2.736  0.2076 -0.0363 -1.9990
 3763TIP3   OH232779   6.007   3.523  15.629 -0.1328  0.4320 -0.6072
 3763TIP3    H132780   6.024   3.432  15.656 -0.2121  0.3904 -0.6996
 3763TIP3    H232781   5.964   3.516  15.544  1.2868  0.5926 -1.3693
 3764TIP3   OH232782   0.880   4.351  16.248 -0.3935 -0.2928 -0.1014
 3764TIP3    H132783   0.814   4.388  16.188 -0.7065 -0.0727  0.3718
 3764TIP3    H232784   0.943   4.307  16.190 -1.4448 -1.3101 -0.5222
 3765TIP3   OH232785   1.828   1.644   4.753  0.0480 -0.3333  0.1223
 3765TIP3    H132786   1.918   1.676   4.741 -0.2732  0.9540  0.8989
 3765TIP3    H232787   1.839   1.554   4.782  1.1078 -0.1452  0.3663
 3766TIP3   OH232788   5.042   0.878   4.065  0.4042 -0.0294  0.4776
 3766TIP3    H132789   5.007   0.891   3.977 -0.5163  0.7382  0.9314
 3766TIP3    H232790   4.993   0.803   4.100  1.8633 -1.3482 -0.1896
 3767TIP3   OH232791   5.356   2.212   1.397 -0.0956  0.5610  0.4720
 3767TIP3    H132792   5.327   2.170   1.478  0.2553  1.0010  0.8288
 3767TIP3    H232793   5.444   2.178   1.382 -0.3473  0.1052  0.0081
 3768TIP3   OH232794   6.010   6.712  13.628  0.0013  0.0133  0.0681
 3768TIP3    H132795   5.946   6.745  13.566 -0.5115  1.8019  1.4547
 3768TIP3    H232796   5.965   6.642  13.675  1.1006 -2.9218 -2.9105
 3769TIP3   OH232797   4.382   0.076   0.102 -0.1302 -0.5078 -0.4427
 3769TIP3    H132798   4.471   0.102   0.080  0.6952 -0.9847  1.9929
 3769TIP3    H232799   4.333   0.158   0.109  0.9111  0.0322  1.1205
 3770TIP3   OH232800   3.351   3.671   4.138 -0.6173  0.3613 -0.2584
 3770TIP3    H132801   3.436   3.628   4.137 -0.7644  0.0348 -1.4979
 3770TIP3    H232802   3.294   3.613   4.188 -0.1661  0.4813  0.3982
 3771TIP3   OH232803   0.408   2.734  15.898 -0.4188 -0.3401 -0.9656
 3771TIP3    H132804   0.418   2.654  15.950 -2.2701 -1.2492 -1.9266
 3771TIP3    H232805   0.379   2.800  15.961 -0.6403 -0.8932 -0.4814
 3772TIP3   OH232806   2.175   4.006  10.951  0.1445  0.1759 -0.4505
 3772TIP3    H132807   2.201   3.916  10.970 -0.5544 -0.4116 -2.0930
 3772TIP3    H232808   2.250   4.060  10.977  0.4281 -0.8209  0.8991
 3773TIP3   OH232809   2.188   2.158  14.956 -0.2133  0.4501 -0.3592
 3773TIP3    H132810   2.169   2.099  15.029 -0.2794  1.6078  0.5964
 3773TIP3    H232811   2.202   2.100  14.881  0.0436 -0.7853  0.6062
 3774TIP3   OH232812   4.303   5.007   3.666  0.2248 -0.3104 -0.1349
 3774TIP3    H132813   4.354   4.960   3.601  2.1532 -1.5952  2.1559
 3774TIP3    H232814   4.354   5.001   3.746 -0.8046  3.2873  1.0157
 3775TIP3   OH232815   6.614   0.747  15.368  0.0208 -0.8806  0.4230
 3775TIP3    H132816   6.692   0.795  15.397  1.3188 -1.8889 -1.1464
 3775TIP3    H232817   6.576   0.802  15.300  0.6911 -1.3781 -0.3788
 3776TIP3   OH232818   6.250   1.033   3.546 -0.4234 -0.3006 -0.0195
 3776TIP3    H132819   6.235   1.083   3.466  1.5219  0.3306 -0.0589
 3776TIP3    H232820   6.273   1.099   3.612 -1.6445 -0.8379  0.9848
 3777TIP3   OH232821   6.071   3.274   4.136  0.0688  0.1059  0.2451
 3777TIP3    H132822   6.040   3.184   4.135 -3.2034  1.0338  1.9328
 3777TIP3    H232823   6.102   3.287   4.226  2.8456  0.1148 -0.6015
 3778TIP3   OH232824   5.915   6.226  12.956 -0.4487 -0.2065 -0.0108
 3778TIP3    H132825   5.871   6.265  12.881  1.7098  2.2782 -0.1234
 3778TIP3    H232826   6.008   6.243  12.941  0.2699 -1.9779  1.9664
 3779TIP3   OH232827   5.837   1.079   6.597  0.3599 -0.1688 -0.1036
 3779TIP3    H132828   5.807   1.168   6.577  0.4905 -0.1145 -0.0649
 3779TIP3    H232829   5.838   1.075   6.692 -1.6577 -0.9033 -0.0591
 3780TIP3   OH232830   1.425   0.645  12.138 -0.1401 -0.1907  0.0778
 3780TIP3    H132831   1.332   0.643  12.161 -0.3086  0.8409 -0.4317
 3780TIP3    H232832   1.449   0.738  12.146  1.1643 -0.6036  1.3941
 3781TIP3   OH232833   1.095   0.320   5.115  0.1346  0.0613 -0.0505
 3781TIP3    H132834   1.002   0.296   5.109  0.4148 -2.1152  2.4285
 3781TIP3    H232835   1.104   0.358   5.202  1.3748  1.4410 -0.7427
 3782TIP3   OH232836   2.815   4.192   3.898 -0.4339  0.3528  0.2535
 3782TIP3    H132837   2.786   4.152   3.816  0.5613 -1.6344  0.8122
 3782TIP3    H232838   2.843   4.280   3.874  0.0564 -0.2743 -1.5780
 3783TIP3   OH232839   5.532   4.798  15.936 -0.7839  0.3508  0.3720
 3783TIP3    H132840   5.521   4.836  16.023 -2.9596 -0.5988  0.5703
 3783TIP3    H232841   5.444   4.796  15.899 -0.2281 -1.2239 -0.9966
 3784TIP3   OH232842   4.098   4.351  14.574 -0.1420  0.3947 -0.5828
 3784TIP3    H132843   4.078   4.440  14.545  2.1402  0.4583 -2.2932
 3784TIP3    H232844   4.179   4.360  14.626  0.3530 -0.7026 -1.1243
 3785TIP3   OH232845   6.120   1.962   0.474  0.0004 -0.0770 -0.1056
 3785TIP3    H132846   6.036   1.932   0.509 -0.0678  0.3026  0.0640
 3785TIP3    H232847   6.097   2.030   0.411  0.0566 -1.5335 -1.7571
 3786TIP3   OH232848   4.541   4.762   6.171  0.0411  0.3348  0.3243
 3786TIP3    H132849   4.517   4.844   6.214 -0.8022 -0.0980  0.7008
 3786TIP3    H232850   4.508   4.694   6.229 -0.8403 -0.2593 -0.8389
 3787TIP3   OH232851   3.284   6.709  15.476 -0.1519  0.7744  0.2763
 3787TIP3    H132852   3.374   6.718  15.444  0.5459  0.0620  1.9113
 3787TIP3    H232853   3.294   6.689  15.569 -2.0535  2.4282  0.8997
 3788TIP3   OH232854   5.211   3.640   4.044 -0.1468 -0.3778  0.0075
 3788TIP3    H132855   5.130   3.691   4.035 -0.3037 -0.9557 -2.2453
 3788TIP3    H232856   5.278   3.696   4.005 -0.0605 -1.2311 -1.1090
 3789TIP3   OH232857   4.456   4.955   0.528 -0.1610 -0.5995 -0.2565
 3789TIP3    H132858   4.399   4.893   0.572 -0.5005  0.4473  0.8267
 3789TIP3    H232859   4.535   4.959   0.583  0.2406 -0.7565 -0.8129
 3790TIP3   OH232860   3.264   5.234   2.559 -0.1721  0.0991 -0.0579
 3790TIP3    H132861   3.193   5.201   2.613 -0.9058  0.9820 -0.4674
 3790TIP3    H232862   3.221   5.274   2.483  0.8292 -1.2383 -1.3962
 3791TIP3   OH232863   6.440   6.739  17.194  0.5571  0.2175 -0.1230
 3791TIP3    H132864   6.455   6.795  17.118  2.1668  0.3368  0.2500
 3791TIP3    H232865   6.518   6.684  17.199  0.4643  0.1956  1.4257
 3792TIP3   OH232866   5.689   4.417   3.772  0.7413 -0.7409 -0.1935
 3792TIP3    H132867   5.781   4.403   3.750  0.9667 -0.1773  0.3706
 3792TIP3    H232868   5.641   4.381   3.698  1.4555  0.0891 -1.0797
 3793TIP3   OH232869   1.766   2.661   1.503  0.0570 -0.1948  0.1612
 3793TIP3    H132870   1.824   2.585   1.504 -0.9614 -0.9935  0.6409
 3793TIP3    H232871   1.718   2.655   1.421 -0.1977 -0.2059  0.3093
 3794TIP3   OH232872   0.232   3.186  14.482 -0.3370 -0.2980 -0.0571
 3794TIP3    H132873   0.276   3.128  14.545  0.0393  0.7757  0.6974
 3794TIP3    H232874   0.265   3.273  14.502 -1.6685  0.3409 -0.4894
 3795TIP3   OH232875   4.335   1.678  11.563 -0.0823 -0.4405  0.3408
 3795TIP3    H132876   4.266   1.737  11.533 -1.3309 -2.5775 -1.2814
 3795TIP3    H232877   4.303   1.645  11.647 -1.5491 -2.0311 -0.7621
 3796TIP3   OH232878   4.330   1.035  15.544 -0.0219  0.6632  0.5639
 3796TIP3    H132879   4.276   1.113  15.557 -1.1392  0.2032 -1.0137
 3796TIP3    H232880   4.401   1.064  15.486 -0.9320  0.3462 -0.7504
 3797TIP3   OH232881   3.330   0.660   3.942 -0.1252  0.1093  0.0286
 3797TIP3    H132882   3.244   0.676   3.980  0.3507 -0.5698  1.4462
 3797TIP3    H232883   3.346   0.567   3.956 -0.4809 -0.5152 -3.0859
 3798TIP3   OH232884   2.445   3.278  13.410  0.4448 -0.0411 -0.0285
 3798TIP3    H132885   2.529   3.233  13.410  1.5019  1.7862 -1.1261
 3798TIP3    H232886   2.467   3.370  13.428 -1.4061  0.3525  0.4560
 3799TIP3   OH232887   2.842   3.293   1.232  0.0494 -0.0443 -0.6986
 3799TIP3    H132888   2.932   3.289   1.262  0.0397 -1.2030 -0.7975
 3799TIP3    H232889   2.810   3.378   1.263  0.0580 -1.0974  2.4827
 3800TIP3   OH232890   0.161   6.264  12.481 -0.5135  0.0340  0.1311
 3800TIP3    H132891   0.138   6.273  12.573  2.8443  0.5123  1.0803
 3800TIP3    H232892   0.191   6.173  12.473 -0.3769  0.1183 -0.3545
 3801TIP3   OH232893   3.656   0.374   1.194  0.1314 -0.0476  0.2466
 3801TIP3    H132894   3.688   0.462   1.171 -2.2182  0.6589 -0.6165
 3801TIP3    H232895   3.652   0.328   1.110  1.2295 -0.9800  0.6832
 3802TIP3   OH232896   6.071   4.183   1.478  0.1087  0.7984 -0.0780
 3802TIP3    H132897   6.109   4.195   1.391 -1.0848  0.3704 -0.6822
 3802TIP3    H232898   6.104   4.098   1.507  0.4151  0.8869 -0.1643
 3803TIP3   OH232899   2.818   5.528   1.896 -0.7184 -0.2704 -0.1673
 3803TIP3    H132900   2.799   5.537   1.989  0.6389 -0.6546  0.1741
 3803TIP3    H232901   2.912   5.507   1.893 -0.5356  0.5932 -1.6508
 3804TIP3   OH232902   3.238   0.500  11.689  0.2999 -0.3629  0.5348
 3804TIP3    H132903   3.333   0.486  11.682  0.4123  0.4717  0.2718
 3804TIP3    H232904   3.228   0.595  11.680 -0.5112 -0.3840  1.1434
 3805TIP3   OH232905   6.779   3.756   5.987  0.1223 -0.3559  0.1305
 3805TIP3    H132906   6.843   3.827   5.986 -1.2866  1.0020 -2.3107
 3805TIP3    H232907   6.800   3.703   5.910 -1.6892  0.1810 -0.7825
 3806TIP3   OH232908   6.302   2.133   0.109 -0.2496 -0.3290 -0.3053
 3806TIP3    H132909   6.272   2.149   0.019 -0.8499 -3.1976 -0.7248
 3806TIP3    H232910   6.231   2.166   0.164 -1.3070 -1.3144 -1.0410
 3807TIP3   OH232911   6.636   1.445  12.758 -0.0888  0.1564 -0.4028
 3807TIP3    H132912   6.562   1.463  12.816 -0.3452 -0.7944 -0.4166
 3807TIP3    H232913   6.655   1.529  12.716 -0.4410  0.6618  0.4253
 3808TIP3   OH232914   1.899   5.033  10.560  0.2049  0.2986 -0.2129
 3808TIP3    H132915   1.917   5.121  10.526  0.8276 -0.0494 -0.8004
 3808TIP3    H232916   1.985   4.994  10.572 -0.0824 -0.4450 -0.5201
 3809TIP3   OH232917   3.195   4.683  13.979  0.0308  0.0580  0.1915
 3809TIP3    H132918   3.286   4.700  13.955  0.3936 -0.7963  0.9441
 3809TIP3    H232919   3.180   4.735  14.058  0.1097 -0.4181  0.5237
 3810TIP3   OH232920   0.293   1.245  11.698 -0.0224  0.4701 -0.6798
 3810TIP3    H132921   0.312   1.307  11.628  0.8373  1.1522  0.1318
 3810TIP3    H232922   0.198   1.229  11.691 -0.0175  0.8159 -1.7404
 3811TIP3   OH232923   3.704   4.340   0.801  0.3990 -0.2175 -0.6604
 3811TIP3    H132924   3.764   4.320   0.730  1.5351  0.7895 -0.0196
 3811TIP3    H232925   3.720   4.271   0.866  2.3855  1.1587  0.3909
 3812TIP3   OH232926   6.023   2.919   0.280  0.8930 -0.1880 -0.4563
 3812TIP3    H132927   6.115   2.891   0.275  0.0860 -3.1802 -0.8543
 3812TIP3    H232928   5.990   2.877   0.359  0.2890  2.4949  0.7893
 3813TIP3   OH232929   3.378   1.450   2.042  0.4648 -0.0055  1.0159
 3813TIP3    H132930   3.410   1.366   2.008 -0.8390 -0.7107  1.4677
 3813TIP3    H232931   3.383   1.509   1.967 -0.8783 -1.1277 -0.0124
 3814TIP3   OH232932   1.699   5.113   4.838 -0.0111 -0.2632  0.1940
 3814TIP3    H132933   1.753   5.043   4.802 -0.6908 -1.9885  2.3292
 3814TIP3    H232934   1.614   5.072   4.853 -0.1735  0.7075  2.3414
 3815TIP3   OH232935   2.037   4.856   3.436 -0.1002 -0.4142 -0.2147
 3815TIP3    H132936   1.974   4.860   3.508  2.6172 -0.4223  2.3114
 3815TIP3    H232937   1.993   4.802   3.370 -1.8584 -2.3649  2.3406
 3816TIP3   OH232938   2.865   2.820  17.151 -0.1603  0.2095  0.0129
 3816TIP3    H132939   2.841   2.730  17.127 -0.0656 -0.2143  1.4085
 3816TIP3    H232940   2.914   2.810  17.232  0.2708  1.5012 -0.0755
 3817TIP3   OH232941   3.436   2.912   5.348 -0.0516  0.0114  0.1770
 3817TIP3    H132942   3.362   2.940   5.295 -0.9455 -0.1362  1.3151
 3817TIP3    H232943   3.513   2.936   5.296 -0.8831 -1.0663 -1.6420
 3818TIP3   OH232944   0.536   2.248  17.132 -0.1353 -0.0896 -0.4614
 3818TIP3    H132945   0.595   2.234  17.206  0.9179  1.2235 -1.0069
 3818TIP3    H232946   0.457   2.287  17.170  0.0581 -0.2118  0.0650
 3819TIP3   OH232947   3.546   4.583   1.116  0.0449 -0.0860 -0.3403
 3819TIP3    H132948   3.633   4.557   1.085  1.0972 -0.9067  2.9216
 3819TIP3    H232949   3.486   4.552   1.048  2.1491 -1.0041 -1.8977
 3820TIP3   OH232950   4.416   0.693   1.425 -0.5120 -0.5049 -0.1718
 3820TIP3    H132951   4.503   0.654   1.416 -1.5978 -3.4704  0.7889
 3820TIP3    H232952   4.432   0.783   1.452  2.2349 -0.2292 -2.2593
 3821TIP3   OH232953   3.667   3.667  12.367  0.2756 -0.7024 -0.0615
 3821TIP3    H132954   3.589   3.676  12.421  0.1336 -0.2509 -0.3334
 3821TIP3    H232955   3.642   3.607  12.297  0.0118 -0.1699 -0.4308
 3822TIP3   OH232956   0.052   4.784   0.619 -0.1096 -0.8556  0.1023
 3822TIP3    H132957   0.080   4.800   0.709 -0.1606 -0.9612  0.1366
 3822TIP3    H232958   0.093   4.701   0.595 -0.3731 -0.9991  0.1441
 3823TIP3   OH232959   4.207   5.484   1.806  0.3108 -0.0672 -0.2589
 3823TIP3    H132960   4.244   5.397   1.790  0.6072 -0.1583  0.8100
 3823TIP3    H232961   4.116   5.477   1.777 -0.2280 -1.3363  1.5009
 3824TIP3   OH232962   4.273   0.021   5.243  0.0790  0.6477  0.1417
 3824TIP3    H132963   4.303   0.070   5.166  0.8704  0.1211  0.1028
 3824TIP3    H232964   4.182  -0.003   5.222  0.3444  0.3419 -0.7213
 3825TIP3   OH232965   4.902   3.635  16.055  0.9040 -0.2652  0.7161
 3825TIP3    H132966   4.865   3.603  15.973  1.9463  0.2700  0.0099
 3825TIP3    H232967   4.836   3.696  16.089 -0.3805 -1.8978  1.2743
 3826TIP3   OH232968   1.378   2.861  12.561 -0.0729  0.3265 -0.1734
 3826TIP3    H132969   1.354   2.881  12.652 -0.1076  0.4796 -0.2157
 3826TIP3    H232970   1.310   2.801  12.531  2.4878 -3.7257  1.4258
 3827TIP3   OH232971   5.394   3.377   5.030 -0.6049 -0.2618 -0.5882
 3827TIP3    H132972   5.404   3.372   4.935  0.4771 -0.6889 -0.4644
 3827TIP3    H232973   5.344   3.458   5.045  0.3972  0.5365 -1.4376
 3828TIP3   OH232974   1.739   6.453   5.887  0.4686 -0.3657  0.5123
 3828TIP3    H132975   1.815   6.468   5.945  3.4707 -2.1459 -2.5915
 3828TIP3    H232976   1.722   6.538   5.848  2.5990 -0.3512 -0.5428
 3829TIP3   OH232977   2.629   4.539   5.692  0.4477  0.5324  0.2444
 3829TIP3    H132978   2.695   4.535   5.623 -0.1302  0.1298 -0.2958
 3829TIP3    H232979   2.675   4.577   5.767  2.1716 -2.4064  0.8553
 3830TIP3   OH232980   3.969   5.064   0.974  0.0797 -0.0089 -0.2297
 3830TIP3    H132981   3.936   4.981   1.007  0.1673  0.1961  0.3982
 3830TIP3    H232982   4.042   5.041   0.917 -0.6600 -0.4265 -1.0363
 3831TIP3   OH232983   0.195   2.064  14.765 -0.8726  0.1905  0.3167
 3831TIP3    H132984   0.138   2.123  14.814 -1.3814 -1.4731  1.8286
 3831TIP3    H232985   0.139   1.989  14.743  0.5393 -1.2334  1.3618
 3832TIP3   OH232986   0.471   4.867   3.648 -0.1467  0.1596  0.0271
 3832TIP3    H132987   0.483   4.959   3.626  0.7694 -0.2335 -1.2929
 3832TIP3    H232988   0.433   4.867   3.735  2.5375  1.7404  1.3127
 3833TIP3   OH232989   2.524   2.895   2.419 -0.4723 -0.2347 -0.4956
 3833TIP3    H132990   2.570   2.828   2.470 -0.8949  0.3764  0.7400
 3833TIP3    H232991   2.594   2.953   2.388 -0.2827 -0.0439  0.2611
 3834TIP3   OH232992   3.878   1.560   2.756  0.0076 -0.0444 -0.3207
 3834TIP3    H132993   3.796   1.609   2.763 -1.3242 -2.1814  0.0092
 3834TIP3    H232994   3.852   1.468   2.767  2.7154 -0.6699  1.8314
 3835TIP3   OH232995   3.146   5.410  12.736  0.2896  0.5386  0.4708
 3835TIP3    H132996   3.114   5.407  12.646 -0.9337  2.4935  0.7876
 3835TIP3    H232997   3.168   5.319  12.756  0.7540  0.0857 -1.8326
 3836TIP3   OH232998   2.268   0.278   4.071 -0.4444 -0.7310  0.1658
 3836TIP3    H132999   2.332   0.228   4.121 -0.1141  0.8936  1.4941
 3836TIP3    H233000   2.259   0.231   3.988  0.7818 -2.2195  0.8273
 3837TIP3   OH233001   3.824   3.407  14.977  0.1309 -0.0321  0.5877
 3837TIP3    H133002   3.883   3.359  15.036 -0.1487 -0.2165  0.7219
 3837TIP3    H233003   3.877   3.426  14.900  0.7254  0.8823  1.2137
 3838TIP3   OH233004   1.206   1.406  14.563 -0.0647 -0.5025 -0.1321
 3838TIP3    H133005   1.223   1.490  14.604  1.2995 -0.9683  0.3162
 3838TIP3    H233006   1.133   1.422  14.503  0.5420  1.1152 -0.4723
 3839TIP3   OH233007   2.064   3.364  13.866 -0.3905 -0.5615  0.1833
 3839TIP3    H133008   1.980   3.392  13.829 -0.2922  0.7646  0.9076
 3839TIP3    H233009   2.114   3.444  13.876  0.6832 -1.2459  0.4984
 3840TIP3   OH233010   3.678   1.778  15.947  0.0096 -0.1981 -0.0164
 3840TIP3    H133011   3.661   1.843  16.014  0.9012 -0.5974  0.6266
 3840TIP3    H233012   3.771   1.790  15.925  0.7906 -2.4830  1.5580
 3841TIP3   OH233013   6.467   0.136  14.090  0.3561  0.1409  0.6025
 3841TIP3    H133014   6.421   0.161  14.170  1.2390 -0.7642  1.4143
 3841TIP3    H233015   6.495   0.220  14.052  0.6506  0.5474  1.6797
 3842TIP3   OH233016   3.446   2.704  14.490 -0.6958  0.6190  0.2747
 3842TIP3    H133017   3.533   2.739  14.469 -0.1844 -0.6979  0.0365
 3842TIP3    H233018   3.385   2.766  14.450  0.1043  1.8334  0.8692
 3843TIP3   OH233019   3.091   2.292  12.627 -0.2322  0.3446 -0.4700
 3843TIP3    H133020   3.071   2.333  12.712 -0.2789  0.5555 -0.5821
 3843TIP3    H233021   3.144   2.357  12.581  2.3582 -0.9045  0.5285
 3844TIP3   OH233022   2.990   2.104   5.269 -0.3513 -0.0125  0.3714
 3844TIP3    H133023   2.973   2.063   5.185 -0.0986  0.3290  0.1509
 3844TIP3    H233024   2.908   2.094   5.318  0.0916 -1.9241  0.8141
 3845TIP3   OH233025   4.160   0.339   6.051  0.0464  0.0983  0.4372
 3845TIP3    H133026   4.082   0.318   6.101 -1.4013  1.1650 -1.2540
 3845TIP3    H233027   4.128   0.385   5.973  2.4922  2.7372  0.7970
 3846TIP3   OH233028   3.836   4.114   0.149  0.1400  0.7995  0.0837
 3846TIP3    H133029   3.841   4.018   0.155  2.6582  0.9810  3.7594
 3846TIP3    H233030   3.889   4.136   0.073 -1.7510 -0.6503 -1.7998
 3847TIP3   OH233031   4.881   2.105   4.919 -0.0836 -0.2182 -0.0836
 3847TIP3    H133032   4.865   2.168   4.849  2.6116  0.6997  0.0267
 3847TIP3    H233033   4.895   2.022   4.874 -1.2337 -0.2755 -0.3843
 3848TIP3   OH233034   2.329   6.337  15.041  0.5889  0.1117 -0.0929
 3848TIP3    H133035   2.339   6.431  15.026  1.8328  0.3808  2.0454
 3848TIP3    H233036   2.277   6.331  15.121 -1.0328 -1.1061 -1.1605
 3849TIP3   OH233037   2.756   0.998   1.491  0.0589  0.4559  0.0776
 3849TIP3    H133038   2.701   0.977   1.566  0.6686 -0.5274  0.2715
 3849TIP3    H233039   2.837   0.950   1.507 -0.2140 -0.7266 -1.7531
 3850TIP3   OH233040   2.167   4.978  11.376  0.1474 -0.6826 -0.5927
 3850TIP3    H133041   2.184   5.025  11.457  0.7100 -1.3857 -0.2849
 3850TIP3    H233042   2.245   4.924  11.363 -0.0422 -0.7595 -1.4724
 3851TIP3   OH233043   4.844   0.628  16.662  0.5556  0.3854 -0.2613
 3851TIP3    H133044   4.879   0.687  16.595  0.6330  0.5810 -0.0494
 3851TIP3    H233045   4.920   0.605  16.715  0.4093  0.5987  0.0382
 3852TIP3   OH233046   3.815   2.822   5.452 -0.0515  0.2369  0.5267
 3852TIP3    H133047   3.779   2.894   5.504 -1.0312 -0.2887  0.5906
 3852TIP3    H233048   3.742   2.761   5.441  0.4088 -0.1330 -0.6324
 3853TIP3   OH233049   4.902   0.892   3.833 -0.2778  0.0354 -0.2759
 3853TIP3    H133050   4.954   0.825   3.790 -0.4349 -0.2494 -0.0206
 3853TIP3    H233051   4.849   0.930   3.763 -1.0562 -0.9103 -0.2206
 3854TIP3   OH233052   4.630   4.254   4.555  0.3491  0.1000  0.1440
 3854TIP3    H133053   4.590   4.168   4.538  3.2845 -1.3914  0.1550
 3854TIP3    H233054   4.614   4.270   4.648  1.2350 -1.3340  0.5788
 3855TIP3   OH233055   3.707   5.646   1.889  0.2360 -0.0293 -0.0752
 3855TIP3    H133056   3.717   5.551   1.901  2.0109 -0.1217 -1.7960
 3855TIP3    H233057   3.709   5.681   1.978  2.6708 -1.4023  0.5242
 3856TIP3   OH233058   2.793   3.950   0.085 -0.2671 -0.3268  0.5674
 3856TIP3    H133059   2.767   4.042   0.081  0.5695 -0.0632  0.9747
 3856TIP3    H233060   2.779   3.917  -0.003 -2.2584 -0.2910  0.8172
 3857TIP3   OH233061   4.296   3.844   3.538 -0.3033  0.3640  0.6699
 3857TIP3    H133062   4.308   3.843   3.443  1.2414  1.0382  0.8222
 3857TIP3    H233063   4.374   3.799   3.572  0.8780  2.9799  1.7014
 3858TIP3   OH233064   2.404   5.026  14.256 -0.0240  0.4790  0.5917
 3858TIP3    H133065   2.336   4.973  14.215 -0.4371  0.4097  1.3413
 3858TIP3    H233066   2.384   5.116  14.231 -0.7193  0.5142  1.2559
 3859TIP3   OH233067   4.465   3.465  16.364  0.1613 -0.1487  0.4570
 3859TIP3    H133068   4.399   3.422  16.310  0.5803 -0.3293  0.0855
 3859TIP3    H233069   4.539   3.478  16.305  0.5794 -0.2414  0.9597
 3860TIP3   OH233070   2.185   3.893   1.033  0.1279  0.4651  0.1933
 3860TIP3    H133071   2.168   3.896   0.939  3.6336  1.5659 -0.5823
 3860TIP3    H233072   2.188   3.799   1.054  1.3900  0.1197 -1.3362
 3861TIP3   OH233073   0.384   1.895  11.070 -0.1365  0.0266 -0.1130
 3861TIP3    H133074   0.313   1.907  11.007 -0.5110 -0.3719  0.2331
 3861TIP3    H233075   0.438   1.974  11.061 -0.9162  0.5798  0.0132
 3862TIP3   OH233076   5.374   2.258   5.286  0.3603  0.1309 -0.4489
 3862TIP3    H133077   5.374   2.328   5.352  1.3719 -1.1082  0.9212
 3862TIP3    H233078   5.430   2.291   5.216  1.7961  0.2534  0.7163
 3863TIP3   OH233079   0.024   1.931  11.266  0.5212  0.0644 -0.1675
 3863TIP3    H133080   0.059   1.849  11.231 -1.9610 -0.4534 -1.6196
 3863TIP3    H233081  -0.026   1.905  11.343  1.5787  0.5684  0.7345
 3864TIP3   OH233082   0.371   1.128  13.744  0.3043  0.7301 -0.3397
 3864TIP3    H133083   0.449   1.075  13.729 -0.1947 -0.2443  0.4097
 3864TIP3    H233084   0.319   1.078  13.808 -2.4462 -0.2407 -3.0837
 3865TIP3   OH233085   1.275   3.049  15.366  0.0226 -0.2166 -0.3541
 3865TIP3    H133086   1.346   2.985  15.360  1.1228  0.9344 -0.0468
 3865TIP3    H233087   1.238   3.036  15.453  1.8329  1.1218  0.6860
 3866TIP3   OH233088   2.532   1.831   2.714 -0.2375 -0.1498  0.1541
 3866TIP3    H133089   2.604   1.774   2.741  0.3287  1.4955  2.3718
 3866TIP3    H233090   2.555   1.858   2.625 -0.6438 -3.4255 -1.0896
 3867TIP3   OH233091   4.920   1.136   2.594  0.3158 -0.1577 -0.1243
 3867TIP3    H133092   4.895   1.227   2.609 -0.8996 -0.1754 -1.7721
 3867TIP3    H233093   4.841   1.095   2.558  1.7533 -1.0315 -2.4998
 3868TIP3   OH233094   5.510   2.145  11.407 -0.1665  0.7995 -0.1170
 3868TIP3    H133095   5.526   2.237  11.431  1.0654  0.0958  2.1217
 3868TIP3    H233096   5.427   2.146  11.360 -0.6248  2.9694  0.6100
 3869TIP3   OH233097   5.961   5.977  11.465  0.4769 -0.3765  0.9953
 3869TIP3    H133098   5.925   6.012  11.547 -1.7516  0.3707 -0.2389
 3869TIP3    H233099   6.005   6.051  11.424 -1.2496  0.1628  0.0206
 3870TIP3   OH233100   6.658   6.613  12.252  0.1210 -0.2890  0.4347
 3870TIP3    H133101   6.699   6.548  12.310  0.1425  0.2978  1.0988
 3870TIP3    H233102   6.610   6.671  12.312 -1.4539 -0.7861 -0.3066
 3871TIP3   OH233103   0.800   0.690   6.344 -0.5186 -0.8210  0.0634
 3871TIP3    H133104   0.726   0.630   6.355 -0.1337 -1.0307  1.9263
 3871TIP3    H233105   0.768   0.774   6.378  0.3126 -1.1205  1.6911
 3872TIP3   OH233106   4.459   5.915  15.875  0.3595  0.4090 -0.0216
 3872TIP3    H133107   4.537   5.941  15.826 -0.5310  1.7557 -0.7862
 3872TIP3    H233108   4.476   5.825  15.901  3.2054  1.3636  1.8950
 3873TIP3   OH233109   5.139   0.840  10.934 -0.0140 -0.4188 -0.2031
 3873TIP3    H133110   5.148   0.744  10.937  0.3819 -0.5566 -3.2575
 3873TIP3    H233111   5.218   0.870  10.889 -0.4866  1.2992  0.0602
 3874TIP3   OH233112   0.041   0.032  13.087 -0.2408 -0.2547  0.8214
 3874TIP3    H133113   0.012   0.061  13.174  0.1318  0.9268  0.5689
 3874TIP3    H233114  -0.036   0.044  13.032 -0.3989 -0.7588  0.9261
 3875TIP3   OH233115   3.275   3.182  12.593 -0.7504 -0.0930 -0.3220
 3875TIP3    H133116   3.247   3.166  12.683 -0.6619 -0.4708 -0.3638
 3875TIP3    H233117   3.329   3.107  12.570 -1.0358 -0.1556 -0.8057
 3876TIP3   OH233118   6.326   6.447  12.209  0.3147  0.1582 -0.1604
 3876TIP3    H133119   6.408   6.429  12.164  1.2267  0.5078  1.2713
 3876TIP3    H233120   6.270   6.372  12.189 -0.4719  1.5670 -4.1951
 3877TIP3   OH233121   2.268   6.156   1.478 -0.0851  0.0003 -0.3557
 3877TIP3    H133122   2.199   6.108   1.433 -0.7128  0.1115  0.4679
 3877TIP3    H233123   2.307   6.091   1.537 -0.2499  0.2287  0.0084
 3878TIP3   OH233124   1.221   5.982   4.345  0.6933 -0.3779  0.3884
 3878TIP3    H133125   1.172   6.046   4.292  2.1986 -1.1262 -2.0701
 3878TIP3    H233126   1.250   6.032   4.421 -0.3929  1.1444 -0.1432
 3879TIP3   OH233127   0.296   5.351  14.018 -0.3609 -0.0647  0.5590
 3879TIP3    H133128   0.317   5.287  14.086 -1.3214 -2.5207 -1.3052
 3879TIP3    H233129   0.211   5.323  13.984  0.4854  0.4674 -2.2599
 3880TIP3   OH233130   2.001   1.786  16.744 -0.3944 -0.5819  0.3231
 3880TIP3    H133131   2.021   1.808  16.653  0.0139 -1.4845  0.1793
 3880TIP3    H233132   2.001   1.870  16.790  2.1421 -0.3335  0.0072
 3881TIP3   OH233133   0.179   5.617  11.646 -0.0071 -0.3080 -0.6786
 3881TIP3    H133134   0.175   5.570  11.730  2.1631  2.5809  1.2260
 3881TIP3    H233135   0.231   5.560  11.589  0.0810 -1.4931  0.5351
 3882TIP3   OH233136   6.356   6.821   5.268  0.4699 -0.0129 -0.4635
 3882TIP3    H133137   6.444   6.853   5.283  0.4525 -0.2785  0.2655
 3882TIP3    H233138   6.330   6.783   5.352 -0.2356 -0.1722 -0.7462
 3883TIP3   OH233139   4.445   2.010  16.347  0.5523 -0.2747 -0.2199
 3883TIP3    H133140   4.533   2.043  16.365  0.1468  1.5805 -1.4720
 3883TIP3    H233141   4.454   1.963  16.264  1.0244 -3.1965  1.3131
 3884TIP3   OH233142   6.111   2.243  15.210 -0.2938 -0.0815 -0.3997
 3884TIP3    H133143   6.175   2.282  15.151 -0.4198  0.2448 -0.3228
 3884TIP3    H233144   6.026   2.264  15.171 -0.3529 -0.7312 -0.6387
 3885TIP3   OH233145   3.274   2.208  16.429 -0.3082  0.1319  0.3289
 3885TIP3    H133146   3.189   2.171  16.407  0.8118 -1.8288 -1.0616
 3885TIP3    H233147   3.296   2.169  16.513 -0.2675 -0.3244  0.1087
 3886TIP3   OH233148   6.574   3.702  15.143 -0.1678  0.2159  0.1573
 3886TIP3    H133149   6.621   3.760  15.203 -0.0517 -1.1168  1.4218
 3886TIP3    H233150   6.482   3.714  15.165 -0.0791 -0.8981  1.2536
 3887TIP3   OH233151   4.422   1.818   1.614  0.3295  0.2373  0.1797
 3887TIP3    H133152   4.514   1.812   1.640 -0.2792  1.5202  2.9455
 3887TIP3    H233153   4.387   1.730   1.628  1.2155 -0.4693 -1.6174
 3888TIP3   OH233154   4.003   3.171   1.012  0.1355 -0.1482 -0.3521
 3888TIP3    H133155   3.974   3.257   1.042  2.5232  0.2121  1.2418
 3888TIP3    H233156   4.005   3.179   0.917  0.7441  1.7820 -0.2411
 3889TIP3   OH233157   2.898   4.241   2.548 -0.3938  0.1152  0.1289
 3889TIP3    H133158   2.892   4.198   2.633 -1.5318 -0.1602 -0.0669
 3889TIP3    H233159   2.865   4.330   2.564 -1.1394 -0.1034 -0.1125
 3890TIP3   OH233160   4.986   2.336   1.432  0.0483  0.0834 -0.4982
 3890TIP3    H133161   5.022   2.248   1.434 -1.1831 -0.4404 -0.1732
 3890TIP3    H233162   4.892   2.323   1.423 -0.5847  1.2065  2.9893
 3891TIP3   OH233163   0.462   6.454  11.253  0.4919  0.1256 -0.3500
 3891TIP3    H133164   0.467   6.522  11.186 -0.3352 -0.1375 -0.6943
 3891TIP3    H233165   0.370   6.425  11.250  0.4360  0.1353  0.9214
 3892TIP3   OH233166   1.780   5.686   1.652  0.0246 -0.8499 -0.1021
 3892TIP3    H133167   1.840   5.742   1.701  0.6815 -2.1114  0.5653
 3892TIP3    H233168   1.714   5.660   1.715 -0.4623 -0.6033 -0.4944
 3893TIP3   OH233169   0.425   1.133   5.546  0.4721 -0.0611  0.1566
 3893TIP3    H133170   0.384   1.066   5.600  1.2984  0.2818  1.2487
 3893TIP3    H233171   0.486   1.085   5.490  1.0608 -0.2318  0.9323
 3894TIP3   OH233172   0.844   5.030  12.509  0.3694  0.2375 -0.1453
 3894TIP3    H133173   0.863   4.937  12.524  2.2359  0.6910  0.6489
 3894TIP3    H233174   0.750   5.033  12.495  0.3693 -1.8767 -1.0286
 3895TIP3   OH233175   2.797   1.624  15.818 -0.1141 -0.5175  0.8754
 3895TIP3    H133176   2.779   1.711  15.784  0.0606 -0.6905  0.3274
 3895TIP3    H233177   2.867   1.636  15.881  1.9107 -0.5967 -1.2076
 3896TIP3   OH233178   1.619   6.028  12.752  0.0745 -0.5688  0.5587
 3896TIP3    H133179   1.701   6.014  12.706 -0.4820 -3.5460  0.2810
 3896TIP3    H233180   1.554   6.042  12.683 -0.0832 -0.9937  0.6151
 3897TIP3   OH233181   4.224   5.028   5.719  0.4605  0.0825  0.5667
 3897TIP3    H133182   4.153   5.092   5.727 -0.0580 -0.4379  0.1952
 3897TIP3    H233183   4.304   5.080   5.728  0.0322  0.5319  2.0302
 3898TIP3   OH233184   5.348   4.208   5.717 -0.1790  0.8093  1.0306
 3898TIP3    H133185   5.306   4.293   5.730  1.3765  1.4182  2.4648
 3898TIP3    H233186   5.432   4.216   5.762  1.0361 -0.6978 -0.8107
 3899TIP3   OH233187   5.836   6.168   1.438 -0.5795 -0.0452  0.3290
 3899TIP3    H133188   5.799   6.118   1.365  0.4747 -0.2901 -0.0445
 3899TIP3    H233189   5.891   6.106   1.485 -0.2331  0.4433  0.5771
 3900TIP3   OH233190   4.069   2.634   6.449  0.5058 -0.1158 -0.6887
 3900TIP3    H133191   4.133   2.705   6.455  2.3058 -1.7720  1.0264
 3900TIP3    H233192   3.989   2.671   6.487  0.8858  1.4772 -1.3526
 3901TIP3   OH233193   0.573   6.004   1.892 -0.2176  0.0197 -0.3606
 3901TIP3    H133194   0.556   6.081   1.838  0.5770  1.5064  1.4400
 3901TIP3    H233195   0.486   5.977   1.922 -0.2806  2.7421  2.2942
 3902TIP3   OH233196   2.125   3.818  12.662  0.0791  0.0004 -0.5663
 3902TIP3    H133197   2.069   3.862  12.599 -1.0398 -0.2446  0.2176
 3902TIP3    H233198   2.078   3.738  12.684  1.3270 -0.8231 -0.7811
 3903TIP3   OH233199   4.867   6.338  17.021 -0.0979  0.3459 -0.9620
 3903TIP3    H133200   4.883   6.274  17.090  0.9649  0.8363 -0.7379
 3903TIP3    H233201   4.914   6.305  16.946 -1.1005 -0.0893 -1.4180
 3904TIP3   OH233202   3.517   1.216  15.742 -0.1171  1.1089 -0.4273
 3904TIP3    H133203   3.469   1.153  15.796  1.5756  0.2345  0.1327
 3904TIP3    H233204   3.459   1.232  15.668 -1.4476  0.4309  0.4088
 3905TIP3   OH233205   6.208   1.418  10.565  0.2619  0.0936  0.5087
 3905TIP3    H133206   6.197   1.491  10.626 -1.3647  0.4510 -0.1691
 3905TIP3    H233207   6.171   1.449  10.483 -1.7266 -1.9095  0.5540
 3906TIP3   OH233208   1.098   1.054  13.946 -0.3284 -0.6821  0.1409
 3906TIP3    H133209   1.166   1.020  13.887 -1.4790 -0.2710 -1.4940
 3906TIP3    H233210   1.146   1.103  14.012  0.9329  0.5260 -1.5989
 3907TIP3   OH233211   4.151   4.066   4.078  0.2559  0.2144 -0.3593
 3907TIP3    H133212   4.204   4.142   4.103  1.6543 -0.5051 -1.0082
 3907TIP3    H233213   4.154   4.009   4.155  0.2066  0.2935 -0.2990
 3908TIP3   OH233214   5.176   2.292   2.901  0.2402 -0.6444  0.2900
 3908TIP3    H133215   5.194   2.346   2.978  0.6810 -0.5629  0.1322
 3908TIP3    H233216   5.227   2.212   2.914 -2.8741 -2.5438  2.1038
 3909TIP3   OH233217   2.975   0.991  16.653 -0.4108 -0.1170  0.3470
 3909TIP3    H133218   2.993   0.956  16.565 -1.7766  0.8376 -0.3396
 3909TIP3    H233219   3.021   0.931  16.712  0.3114 -0.9370 -0.9922
 3910TIP3   OH233220   3.589   2.868   1.977 -0.0159  0.8828  0.1531
 3910TIP3    H133221   3.650   2.823   1.919 -0.1273  1.6123 -0.5528
 3910TIP3    H233222   3.527   2.911   1.918 -0.5623  1.0456  0.8345
 3911TIP3   OH233223   1.585   3.761  13.334  0.4138 -0.1931  0.2025
 3911TIP3    H133224   1.506   3.743  13.283  0.2776  0.3546  0.2093
 3911TIP3    H233225   1.613   3.848  13.305  1.1467 -0.4832  0.0341
 3912TIP3   OH233226   1.396   0.210  13.164 -0.2322 -1.1616  0.4787
 3912TIP3    H133227   1.431   0.235  13.078  3.7865 -0.4646  2.1262
 3912TIP3    H233228   1.399   0.115  13.165  0.6531 -1.1425  0.1696
 3913TIP3   OH233229   5.655   0.014   1.142 -0.3587 -0.8176 -0.0595
 3913TIP3    H133230   5.710   0.078   1.187  1.1747 -2.9923  1.3592
 3913TIP3    H233231   5.579   0.003   1.199 -1.0300  0.2474 -0.7053
 3914TIP3   OH233232   2.684   3.003  13.760 -0.0843 -0.5263  0.0216
 3914TIP3    H133233   2.590   2.989  13.748 -0.1301 -0.8358  0.6963
 3914TIP3    H233234   2.697   3.095  13.738 -0.5251 -0.5045 -0.1712
 3915TIP3   OH233235   2.082   1.238  16.553 -0.2692 -0.2712  0.2592
 3915TIP3    H133236   2.078   1.156  16.503  2.2387  0.5379 -1.4805
 3915TIP3    H233237   2.004   1.286  16.527 -0.9210 -1.4206  0.0255
 3916TIP3   OH233238   4.167   6.251   2.695  0.4157 -0.5133 -0.2703
 3916TIP3    H133239   4.136   6.223   2.781 -0.5067  0.0051 -0.4173
 3916TIP3    H233240   4.241   6.193   2.676  0.8214 -0.4523  0.9913
 3917TIP3   OH233241   2.698   1.491   1.785  0.0914 -0.5290  0.1845
 3917TIP3    H133242   2.705   1.580   1.750  1.3257 -0.3866  0.7520
 3917TIP3    H233243   2.762   1.488   1.856  0.8389 -2.1999 -0.5153
 3918TIP3   OH233244   4.615   2.849   1.205 -0.1431  0.2402 -0.4978
 3918TIP3    H133245   4.609   2.754   1.195 -0.5357 -0.0387  1.8113
 3918TIP3    H233246   4.688   2.874   1.149 -1.1032 -1.1411 -2.5131
 3919TIP3   OH233247   3.270   1.526   0.045 -0.2037 -0.4514  0.1327
 3919TIP3    H133248   3.331   1.546  -0.026  1.1947 -2.4052  0.6981
 3919TIP3    H233249   3.320   1.470   0.104 -1.8877 -0.3151  1.7677
 3920TIP3   OH233250   0.094   5.685   1.270 -0.0910  0.2115  0.3807
 3920TIP3    H133251   0.114   5.673   1.363  0.0682 -0.8481  0.2242
 3920TIP3    H233252   0.024   5.622   1.252  1.2122 -1.0227 -0.6376
 3921TIP3   OH233253   6.802   3.744  13.617  0.2497  0.5726  0.0205
 3921TIP3    H133254   6.820   3.749  13.711  0.8612  1.2441 -0.1300
 3921TIP3    H233255   6.815   3.652  13.595 -1.8340 -0.0254  0.9644
 3922TIP3   OH233256   0.037   6.387   6.228  0.4836 -0.2655  0.1049
 3922TIP3    H133257   0.089   6.462   6.255 -0.1076 -0.0469  0.6839
 3922TIP3    H233258  -0.034   6.383   6.293  1.0028 -1.8578  0.6328
 3923TIP3   OH233259   1.495   2.598  12.590 -0.4209 -0.0071 -0.1039
 3923TIP3    H133260   1.479   2.690  12.611  0.3414  0.1391 -0.1353
 3923TIP3    H233261   1.498   2.555  12.675 -0.4463  0.0550 -0.0713
 3924TIP3   OH233262   3.206   3.382  14.568 -0.1937  0.3810 -0.0722
 3924TIP3    H133263   3.240   3.294  14.551  1.4772  0.8278  0.7136
 3924TIP3    H233264   3.111   3.371  14.571 -0.0571 -1.2553 -0.6994
 3925TIP3   OH233265   1.802   5.799  14.948 -0.2365  0.1167 -0.2045
 3925TIP3    H133266   1.890   5.822  14.921  0.1199 -0.3622  0.5048
 3925TIP3    H233267   1.746   5.824  14.874  0.3646  1.3063 -0.2726
 3926TIP3   OH233268   6.217   4.464  13.935 -0.4968 -0.2874 -0.3702
 3926TIP3    H133269   6.215   4.369  13.939  0.3678 -0.4049 -1.9397
 3926TIP3    H233270   6.297   4.488  13.982 -0.6719 -0.3285 -0.0458
 3927TIP3   OH233271   2.772   2.362  11.211 -0.2739  0.1624 -0.1314
 3927TIP3    H133272   2.857   2.338  11.249  0.5696  1.5045 -1.0742
 3927TIP3    H233273   2.710   2.352  11.283  1.3151  3.0459  1.8514
 3928TIP3   OH233274   3.879   2.071   2.230 -0.2503 -0.1480 -0.0129
 3928TIP3    H133275   3.880   2.139   2.163  0.8046  1.0189  1.1342
 3928TIP3    H233276   3.888   2.118   2.313 -0.2470 -1.6352  0.8787
 3929TIP3   OH233277   3.215   1.568  11.671 -0.8957  0.1373  0.0118
 3929TIP3    H133278   3.224   1.474  11.652 -0.8326  0.1380  0.0378
 3929TIP3    H233279   3.270   1.582  11.748 -0.1503  0.3796 -0.5586
 3930TIP3   OH233280   3.132   4.793   2.947  0.0458 -0.9229 -0.3184
 3930TIP3    H133281   3.215   4.759   2.980 -1.3849 -1.8235  2.7270
 3930TIP3    H233282   3.072   4.717   2.950 -1.2412  0.0137 -1.1278
 3931TIP3   OH233283   2.799   1.314  11.258  0.0548 -0.0033  0.3519
 3931TIP3    H133284   2.797   1.363  11.176 -2.7671 -1.2541 -0.4748
 3931TIP3    H233285   2.888   1.323  11.290  1.0756  1.0851 -2.5236
 3932TIP3   OH233286   1.796   0.736   5.225 -0.6073 -0.5176 -0.0657
 3932TIP3    H133287   1.809   0.733   5.130 -2.4517 -1.6839 -0.3298
 3932TIP3    H233288   1.853   0.667   5.260  2.2701  1.7373  0.0616
 3933TIP3   OH233289   5.065   2.073  14.734 -0.4472  0.2045  0.6188
 3933TIP3    H133290   5.087   2.160  14.768 -1.1714  0.7067 -0.1366
 3933TIP3    H233291   5.145   2.042  14.692 -0.2174  0.5601  0.7923
 3934TIP3   OH233292   4.166   2.158  12.414  0.3681 -0.2183 -0.3015
 3934TIP3    H133293   4.128   2.232  12.462  1.5505 -0.9759  1.9287
 3934TIP3    H233294   4.220   2.112  12.478 -1.4529 -3.9322 -1.1258
 3935TIP3   OH233295   4.455   3.598  15.879 -0.1496  0.3430  0.0567
 3935TIP3    H133296   4.372   3.612  15.924 -0.1463 -1.1451  0.5814
 3935TIP3    H233297   4.475   3.506  15.895  1.6538  0.7057  0.0121
 3936TIP3   OH233298   2.115   4.841  15.406 -1.0551  0.5515  0.5329
 3936TIP3    H133299   2.053   4.866  15.474  0.8132  1.1462  2.1023
 3936TIP3    H233300   2.130   4.747  15.421 -0.7260  0.6587  0.9025
 3937TIP3   OH233301   4.488   5.000  13.035  0.8202  0.4249  0.0722
 3937TIP3    H133302   4.481   5.095  13.030 -0.5834  0.4824  2.1886
 3937TIP3    H233303   4.559   4.984  13.096  0.8017  0.1092  0.0154
 3938TIP3   OH233304   5.477   2.186  17.270 -0.0677 -0.0602 -0.0533
 3938TIP3    H133305   5.396   2.135  17.268 -1.6846  2.3688 -1.1344
 3938TIP3    H233306   5.542   2.130  17.226 -1.3105 -1.7705  0.1991
 3939TIP3   OH233307   2.120   2.566  11.515  0.5545 -0.5798 -0.2983
 3939TIP3    H133308   2.109   2.475  11.540  1.1973 -0.1630  1.7656
 3939TIP3    H233309   2.036   2.607  11.534  0.1401 -0.8045 -1.6047
 3940TIP3   OH233310   6.565   0.164  16.648  0.4142  0.5316 -0.0185
 3940TIP3    H133311   6.643   0.140  16.598  0.3745 -0.5613  0.4154
 3940TIP3    H233312   6.492   0.140  16.592  0.3783  0.6136 -0.0067
 3941TIP3   OH233313   6.227   6.419   3.695  0.4662  0.1735 -0.2445
 3941TIP3    H133314   6.135   6.421   3.669  0.4172 -2.8197 -0.6193
 3941TIP3    H233315   6.251   6.327   3.691  3.6541  0.9150 -0.6124
 3942TIP3   OH233316   4.240   5.138  12.720 -0.1119  0.3223 -0.1405
 3942TIP3    H133317   4.243   5.146  12.624 -2.8756 -1.4969 -0.4592
 3942TIP3    H233318   4.295   5.062  12.739  0.9221  1.0314 -0.1525
 3943TIP3   OH233319   0.533   5.572  14.091  0.2070 -0.7565  0.1119
 3943TIP3    H133320   0.602   5.590  14.027  0.5812  0.6408  0.8752
 3943TIP3    H233321   0.473   5.513  14.045  1.5513 -1.4698 -0.7889
 3944TIP3   OH233322   6.077   2.965  13.815  0.2757 -0.0185 -0.0782
 3944TIP3    H133323   6.006   2.958  13.751 -0.6762 -0.4776  0.9918
 3944TIP3    H233324   6.106   3.056  13.809 -1.2057  0.5009  0.2784
 3945TIP3   OH233325   4.397   2.869   0.538  0.1416 -0.4061  0.3717
 3945TIP3    H133326   4.319   2.842   0.586  0.1652 -0.8718  0.1582
 3945TIP3    H233327   4.462   2.802   0.559  0.3091 -0.3266  0.1056
 3946TIP3   OH233328   6.340   3.129   6.375  0.1696 -0.1901 -0.2469
 3946TIP3    H133329   6.410   3.084   6.423 -0.6366 -0.1393  1.0190
 3946TIP3    H233330   6.358   3.222   6.387 -0.3119 -0.1777  0.3712
 3947TIP3   OH233331   0.692   3.158  15.435  0.2369 -0.0443 -0.0179
 3947TIP3    H133332   0.785   3.178  15.448  0.0505 -0.0439  1.6116
 3947TIP3    H233333   0.663   3.126  15.521 -1.4939  0.9050 -0.1999
 3948TIP3   OH233334   2.252   3.700   4.984  0.1522  0.5202  0.2318
 3948TIP3    H133335   2.217   3.631   5.039  2.2685 -0.2327  0.7167
 3948TIP3    H233336   2.260   3.776   5.042 -1.7388  1.0873 -0.1883
 3949TIP3   OH233337   3.840   4.142  15.882 -0.1311  0.0522 -0.3928
 3949TIP3    H133338   3.872   4.168  15.795  2.1557  1.3120  0.7518
 3949TIP3    H233339   3.869   4.051  15.892  2.2458  0.8162  0.1652
 3950TIP3   OH233340   0.303   1.307   4.048 -0.5206 -0.1587  0.1434
 3950TIP3    H133341   0.281   1.370   4.116 -0.1819 -0.6386  0.7041
 3950TIP3    H233342   0.296   1.222   4.091  0.1072 -0.4465 -0.3053
 3951TIP3   OH233343   5.139   5.403  15.938 -0.1175 -0.2825 -0.2032
 3951TIP3    H133344   5.108   5.317  15.909  0.4781 -0.4143 -0.4604
 3951TIP3    H233345   5.079   5.465  15.895  0.3263 -0.5069 -1.1742
 3952TIP3   OH233346   4.067   3.498   2.305 -0.2690 -0.2056  0.5423
 3952TIP3    H133347   3.993   3.553   2.282 -0.0586 -0.4804 -0.8984
 3952TIP3    H233348   4.030   3.410   2.311  0.2856 -0.8226 -2.8760
 3953TIP3   OH233349   4.718   1.152  16.206  0.0417 -0.0426 -0.3830
 3953TIP3    H133350   4.751   1.241  16.199  0.7742  0.0944  3.1187
 3953TIP3    H233351   4.623   1.161  16.204  0.0957  0.5326 -1.9584
 3954TIP3   OH233352   6.458   5.994   5.814  0.1929  0.5533 -0.3333
 3954TIP3    H133353   6.392   5.932   5.784  0.0479  0.8011 -0.5395
 3954TIP3    H233354   6.523   5.995   5.745 -1.7644  3.6248 -2.4173
 3955TIP3   OH233355   6.096   6.643  14.351 -0.1175  0.3439  0.3335
 3955TIP3    H133356   6.140   6.722  14.383 -1.6536  1.1481  0.5928
 3955TIP3    H233357   6.027   6.626  14.415  0.8858 -1.9251  0.9068
 3956TIP3   OH233358   3.581   6.511   0.874 -0.1503 -0.1553  0.0251
 3956TIP3    H133359   3.594   6.501   0.968  0.5305  0.0024 -0.0475
 3956TIP3    H233360   3.669   6.515   0.837 -0.3904  1.1069 -0.4703
 3957TIP3   OH233361   2.509   6.264   3.223  0.3533 -0.2511 -0.3175
 3957TIP3    H133362   2.474   6.317   3.151  1.4348  0.1963 -0.5271
 3957TIP3    H233363   2.570   6.322   3.269 -1.3716 -0.0447  1.8780
 3958TIP3   OH233364   0.422   5.957   5.672 -0.2016 -0.0861 -0.2026
 3958TIP3    H133365   0.393   5.991   5.588 -2.7727 -0.8159  0.2953
 3958TIP3    H233366   0.438   6.035   5.725  0.8398  0.3670 -1.1514
 3959TIP3   OH233367   3.088   1.744   2.360  0.1253  0.2687 -0.0879
 3959TIP3    H133368   3.044   1.820   2.400  0.3379  0.3356  0.0216
 3959TIP3    H233369   3.121   1.776   2.277  1.3076  0.6502  0.5094
 3960TIP3   OH233370   2.699   4.151  13.667  0.3533  0.2769  0.2765
 3960TIP3    H133371   2.790   4.124  13.678 -0.3032 -1.4132  2.1148
 3960TIP3    H233372   2.676   4.124  13.578  1.6314  0.7746 -0.2342
 3961TIP3   OH233373   4.475   2.642   3.202  0.7734  0.0842 -0.3394
 3961TIP3    H133374   4.527   2.582   3.255  0.3064 -0.1914 -0.1825
 3961TIP3    H233375   4.418   2.686   3.265  0.0723 -0.3920 -0.6311
 3962TIP3   OH233376   3.867   4.709  14.692  0.0894 -0.2103 -0.4140
 3962TIP3    H133377   3.912   4.629  14.718  0.1377 -0.8534 -2.3033
 3962TIP3    H233378   3.892   4.722  14.600 -1.1452  1.1153 -0.6098
 3963TIP3   OH233379   1.887   5.754  13.892 -0.6316 -0.4663  0.1046
 3963TIP3    H133380   1.894   5.736  13.798  1.6512  1.7738 -0.2533
 3963TIP3    H233381   1.929   5.679  13.935 -0.3429 -0.7965 -0.7411
 3964TIP3   OH233382   6.637   5.118   0.683  0.1407 -0.2542 -0.3878
 3964TIP3    H133383   6.693   5.195   0.674  0.9493 -0.7720  0.0495
 3964TIP3    H233384   6.590   5.113   0.600 -0.9300  1.4537  0.0702
 3965TIP3   OH233385   5.959   3.002  12.887  0.2079  0.3792  0.4071
 3965TIP3    H133386   5.956   2.930  12.950  1.3157  0.2507  0.3173
 3965TIP3    H233387   5.885   3.058  12.912 -0.0903 -0.2921  1.0621
 3966TIP3   OH233388   0.052   0.106   2.010  0.1335 -0.6542  0.5081
 3966TIP3    H133389   0.040   0.100   1.915 -3.4822 -3.4961  0.9242
 3966TIP3    H233390   0.004   0.185   2.035 -0.5643 -0.9519  0.1330
 3967TIP3   OH233391   4.140   6.359   5.451 -0.3070 -0.0716  0.3679
 3967TIP3    H133392   4.220   6.308   5.449 -0.6501 -0.6521  1.0891
 3967TIP3    H233393   4.163   6.440   5.498 -0.1375 -0.2236  0.5455
 3968TIP3   OH233394   0.338   1.997  16.543  0.5000 -0.2267  0.4404
 3968TIP3    H133395   0.304   2.012  16.631 -1.2805  0.4816 -0.3149
 3968TIP3    H233396   0.294   1.918  16.513 -1.1093  1.0641 -0.7995
 3969TIP3   OH233397   1.760   2.917   3.836  0.2000 -0.4493  0.5549
 3969TIP3    H133398   1.749   2.823   3.818  0.4222 -0.3141 -0.3493
 3969TIP3    H233399   1.678   2.957   3.807  0.3795 -0.2796  0.2782
 3970TIP3   OH233400   4.587   2.363  11.856  0.5367  0.2526 -0.6317
 3970TIP3    H133401   4.515   2.316  11.815  0.0842  0.6109 -0.2484
 3970TIP3    H233402   4.545   2.424  11.916  1.1319  0.9525 -0.9222
 3971TIP3   OH233403   0.119   0.896  15.756 -0.5755 -0.6214  0.1778
 3971TIP3    H133404   0.140   0.985  15.782  0.3618 -0.4717 -1.0375
 3971TIP3    H233405   0.056   0.866  15.822  0.8003  0.1355  1.8975
 3972TIP3   OH233406   0.705   4.002  13.458  0.2882  0.1499 -0.5088
 3972TIP3    H133407   0.791   3.974  13.488 -0.0791  0.1266  0.5749
 3972TIP3    H233408   0.722   4.073  13.396  1.0586  0.6555  0.2643
 3973TIP3   OH233409   0.440   1.042   1.757 -0.1673  0.3202 -0.0247
 3973TIP3    H133410   0.435   0.983   1.832 -0.1562 -0.4114 -0.5935
 3973TIP3    H233411   0.383   1.115   1.781 -0.2865  0.0233  0.6298
 3974TIP3   OH233412   2.182   4.037   3.613 -0.1670  0.4739  0.0124
 3974TIP3    H133413   2.120   3.974   3.577 -0.7951  2.2266 -2.2055
 3974TIP3    H233414   2.268   4.006   3.584 -0.3229 -0.1009  0.1551
 3975TIP3   OH233415   4.768   5.481   0.475  0.2955  0.1088 -0.4657
 3975TIP3    H133416   4.737   5.442   0.556  2.4533  2.6892  1.8089
 3975TIP3    H233417   4.722   5.565   0.469  2.7843  1.6221  0.1968
 3976TIP3   OH233418   2.350   4.596   5.683  0.0126  0.5674 -0.8765
 3976TIP3    H133419   2.441   4.567   5.692  0.4786  1.8607 -1.1032
 3976TIP3    H233420   2.331   4.586   5.590 -0.7893 -1.6284 -0.5097
 3977TIP3   OH233421   3.226   0.597  11.987 -0.4485  0.2779  0.0230
 3977TIP3    H133422   3.238   0.585  12.081  1.8579 -1.1486 -0.3704
 3977TIP3    H233423   3.199   0.511  11.955 -0.5831  0.5777 -0.6986
 3978TIP3   OH233424   2.554   3.768  14.078  0.0518 -0.2015 -0.1221
 3978TIP3    H133425   2.629   3.829  14.074 -1.3788  1.5955 -0.9461
 3978TIP3    H233426   2.558   3.721  13.995  2.0413 -2.4630  1.1228
 3979TIP3   OH233427   4.013   4.995   5.220 -0.0239  0.3342  0.3760
 3979TIP3    H133428   4.105   4.995   5.246  0.2381  2.2387 -0.3826
 3979TIP3    H233429   3.964   5.001   5.302  0.5811  0.8171  0.7051
 3980TIP3   OH233430   4.962   5.332   4.647  0.0452 -0.5109  0.4155
 3980TIP3    H133431   5.004   5.347   4.562  0.0510 -0.8932  0.3506
 3980TIP3    H233432   5.015   5.264   4.688  0.2977 -0.0246  0.9081
 3981TIP3   OH233433   0.169   0.547  17.046 -0.0553  0.2025  0.8135
 3981TIP3    H133434   0.239   0.563  16.984 -0.3311  1.3586  0.7894
 3981TIP3    H233435   0.099   0.607  17.021  0.5859  2.2731  3.4479
 3982TIP3   OH233436   3.923   4.900   2.944  0.3460  0.3831 -0.1624
 3982TIP3    H133437   3.937   4.805   2.950  2.1580  0.4593 -2.2211
 3982TIP3    H233438   3.962   4.935   3.024  1.1856 -0.4854 -0.1717
 3983TIP3   OH233439   4.396   3.790   5.297 -0.3410 -0.2999 -0.4422
 3983TIP3    H133440   4.312   3.833   5.306 -0.8658 -1.3300 -0.2373
 3983TIP3    H233441   4.394   3.750   5.210 -0.4195 -1.0221 -0.1215
 3984TIP3   OH233442   5.192   2.470  13.451  0.2307 -0.4350 -0.4425
 3984TIP3    H133443   5.283   2.459  13.482  0.0581  0.6654  0.5057
 3984TIP3    H233444   5.143   2.405  13.501  0.2930 -0.1397  0.0050
 3985TIP3   OH233445   2.410   1.182   4.861 -0.8951  0.1782 -0.5686
 3985TIP3    H133446   2.380   1.237   4.933 -1.1453  0.6703 -1.0406
 3985TIP3    H233447   2.433   1.244   4.792  0.0092 -0.2586 -0.6700
 3986TIP3   OH233448   2.408   0.436   2.486 -0.0587  0.0169  0.4888
 3986TIP3    H133449   2.375   0.501   2.425 -0.6969 -0.5787  0.1888
 3986TIP3    H233450   2.354   0.448   2.565  2.6980  2.8527  2.1934
 3987TIP3   OH233451   3.816   6.736   3.042  0.0555  0.2595 -0.1122
 3987TIP3    H133452   3.806   6.700   3.130  1.2803  0.7426  0.2507
 3987TIP3    H233453   3.786   6.667   2.984  0.5262 -0.6015  0.6378
 3988TIP3   OH233454   5.902   5.297  14.624 -0.0051  0.7884  0.1250
 3988TIP3    H133455   5.847   5.376  14.616  0.0629  0.9820  1.3394
 3988TIP3    H233456   5.971   5.323  14.684 -0.4499 -0.4384  1.1970
 3989TIP3   OH233457   4.687   0.698  14.691 -0.5783  0.7208  0.1641
 3989TIP3    H133458   4.632   0.642  14.747  0.6780  0.2860  0.9952
 3989TIP3    H233459   4.754   0.639  14.657 -0.5963  1.2592 -0.8312
 3990TIP3   OH233460   2.489   3.337   0.219 -0.4452 -0.1685 -0.3238
 3990TIP3    H133461   2.584   3.336   0.205 -0.4553 -1.8105 -0.5482
 3990TIP3    H233462   2.467   3.429   0.229  1.3429  0.2003  0.8558
 3991TIP3   OH233463   1.778   5.827   2.971 -0.3847  0.0916 -0.7713
 3991TIP3    H133464   1.783   5.910   2.925  1.0770  0.0028 -0.8269
 3991TIP3    H233465   1.860   5.822   3.021 -0.7909 -0.9663 -0.1688
 3992TIP3   OH233466   6.388   3.588  13.149 -0.2420  0.3448  0.4230
 3992TIP3    H133467   6.319   3.622  13.093  0.8897  1.1919 -0.5230
 3992TIP3    H233468   6.360   3.610  13.238 -2.2068 -1.2985  0.2719
 3993TIP3   OH233469   2.002   4.781   5.168  0.0760  0.2513 -0.7697
 3993TIP3    H133470   2.034   4.781   5.258  0.3217 -2.0523 -0.7811
 3993TIP3    H233471   1.906   4.782   5.177  0.0308 -1.8455 -0.3240
 3994TIP3   OH233472   0.622   2.084   2.220  0.1307 -0.0967  0.1481
 3994TIP3    H133473   0.685   2.074   2.149 -2.2828  1.7669 -2.4630
 3994TIP3    H233474   0.651   2.162   2.268  0.2530  0.2970 -0.5562
 3995TIP3   OH233475   1.234   2.258  15.739  0.4331 -0.0254 -0.1074
 3995TIP3    H133476   1.251   2.290  15.650  1.8186  0.2827  0.2530
 3995TIP3    H233477   1.301   2.191  15.753  0.2124 -0.0755  0.7112
 3996TIP3   OH233478   6.355   5.274   0.023 -0.5467 -0.0424 -0.4101
 3996TIP3    H133479   6.388   5.208  -0.038  0.6468  0.5894 -0.4727
 3996TIP3    H233480   6.261   5.278   0.006 -0.3180 -0.2793 -1.8116
 3997TIP3   OH233481   0.582   5.950   0.999  0.4424  0.4748 -0.2019
 3997TIP3    H133482   0.500   5.901   0.996  0.9354 -0.6441  2.0101
 3997TIP3    H233483   0.568   6.024   0.940 -0.3835 -2.1558 -3.6465
 3998TIP3   OH233484   2.483   3.257   6.438 -0.0788 -0.0300  0.2498
 3998TIP3    H133485   2.427   3.216   6.504 -0.3980 -0.0974 -0.0595
 3998TIP3    H233486   2.513   3.184   6.383 -0.3143  0.1005 -0.0528
 3999TIP3   OH233487   6.311   0.051   1.814 -0.2367  0.1802 -0.1261
 3999TIP3    H133488   6.288  -0.001   1.737 -1.3981  0.4689  0.0029
 3999TIP3    H233489   6.399   0.082   1.797  0.7218 -2.2062  0.0008
 4000TIP3   OH233490   5.365   5.976  11.898  0.2348  0.7667  0.4641
 4000TIP3    H133491   5.298   5.912  11.923  1.0472  0.3686  1.7272
 4000TIP3    H233492   5.315   6.057  11.882 -0.5982  0.3662  0.9404
 4001TIP3   OH233493   4.382   0.683   4.404  0.3287 -0.0814  0.1544
 4001TIP3    H133494   4.316   0.724   4.347 -1.1483 -1.9798  0.3952
 4001TIP3    H233495   4.457   0.743   4.400  0.1651  0.1146 -3.4114
 4002TIP3   OH233496   6.546   0.466  17.138 -0.1884 -0.0586 -0.3195
 4002TIP3    H133497   6.513   0.405  17.204 -0.3467 -1.4184 -1.5779
 4002TIP3    H233498   6.582   0.539  17.188 -0.8202 -0.7606  1.2347
 4003TIP3   OH233499   2.243   1.524  15.178 -0.7459  0.5595 -0.3993
 4003TIP3    H133500   2.264   1.431  15.188 -0.7740  0.4415 -1.3854
 4003TIP3    H233501   2.150   1.530  15.199 -0.2439  0.7741  2.0469
 4004TIP3   OH233502   3.836   4.712   5.708  0.1994  0.2817 -0.6598
 4004TIP3    H133503   3.788   4.632   5.729 -0.6086  0.6316 -1.1165
 4004TIP3    H233504   3.907   4.682   5.651 -0.8201  0.0220 -1.8455
 4005TIP3   OH233505   3.144   5.492  14.824  0.4990 -0.8554  0.0955
 4005TIP3    H133506   3.127   5.402  14.799  0.7012 -0.8511 -0.0621
 4005TIP3    H233507   3.105   5.501  14.911  0.2842 -1.0301  0.0169
 4006TIP3   OH233508   3.710   1.386  14.626  0.2241  0.4530  0.4168
 4006TIP3    H133509   3.788   1.366  14.575 -1.0031 -0.6638 -1.1319
 4006TIP3    H233510   3.721   1.337  14.707  0.7255 -0.4721 -0.1893
 4007TIP3   OH233511   2.315   5.574  14.071 -0.1441 -0.5064 -0.1211
 4007TIP3    H133512   2.274   5.652  14.109 -0.9579 -0.8586 -0.2458
 4007TIP3    H233513   2.408   5.594  14.071 -0.4459  1.5225 -2.4399
 4008TIP3   OH233514   1.939   0.843   0.615 -0.2456 -0.0319 -0.4248
 4008TIP3    H133515   2.035   0.852   0.618 -0.2802  1.0471 -1.7430
 4008TIP3    H233516   1.908   0.899   0.686  0.0627  0.6472 -0.8171
 4009TIP3   OH233517   1.260   0.623   5.295 -0.1856 -0.3418 -0.1080
 4009TIP3    H133518   1.326   0.634   5.226 -1.0433 -0.1651 -0.9241
 4009TIP3    H233519   1.271   0.701   5.351 -0.2129  0.0788 -0.6765
 4010TIP3   OH233520   0.050   4.460  15.020 -0.0720 -0.2015 -0.2962
 4010TIP3    H133521   0.127   4.414  15.053 -0.5659 -0.8835 -0.0790
 4010TIP3    H233522   0.075   4.552  15.022  0.7851 -0.4191 -0.3493
 4011TIP3   OH233523   5.897   1.183   4.548 -0.2693  0.1647 -0.2150
 4011TIP3    H133524   5.940   1.183   4.634  0.5473 -0.9940 -0.5858
 4011TIP3    H233525   5.943   1.251   4.498 -0.0510  0.1386 -0.0508
 4012TIP3   OH233526   3.382   2.088  16.638  0.1527  0.4317  0.2592
 4012TIP3    H133527   3.466   2.042  16.633  0.8771  1.6380  0.7965
 4012TIP3    H233528   3.316   2.020  16.625  1.2434 -0.1761 -3.0997
 4013TIP3   OH233529   2.028   0.438  13.380 -0.6532  0.4100  0.1701
 4013TIP3    H133530   2.039   0.532  13.396 -2.8696  1.2069 -2.1570
 4013TIP3    H233531   1.977   0.406  13.454 -0.6287  1.2428  0.5564
 4014TIP3   OH233532   0.402   5.657   3.149  0.4965 -0.4113  0.2046
 4014TIP3    H133533   0.436   5.743   3.171 -0.6189  0.0384  0.2370
 4014TIP3    H233534   0.363   5.625   3.230  2.0596 -1.5301  0.5485
 4015TIP3   OH233535   5.149   4.478   1.501  0.3588 -0.1554 -0.2578
 4015TIP3    H133536   5.073   4.535   1.490  0.2412  0.1730  1.8540
 4015TIP3    H233537   5.114   4.390   1.489 -0.4316 -0.0237  0.9460
 4016TIP3   OH233538   2.515   4.664  13.138 -0.0545  0.3538 -0.1738
 4016TIP3    H133539   2.506   4.730  13.069 -1.0492  0.3730 -0.0536
 4016TIP3    H233540   2.517   4.715  13.219  2.7498  0.4447 -0.2145
 4017TIP3   OH233541   3.499   6.398  15.383 -0.1411 -0.9018  0.1377
 4017TIP3    H133542   3.534   6.322  15.429  0.9736 -0.1263  0.6237
 4017TIP3    H233543   3.511   6.379  15.290  1.5479 -0.7070  0.2821
 4018TIP3   OH233544   3.079   2.589   3.725 -0.8836 -0.1035  0.6672
 4018TIP3    H133545   3.035   2.504   3.737 -0.5091 -0.0208  3.1054
 4018TIP3    H233546   3.019   2.653   3.763 -0.6896  0.6178 -0.2033
 4019TIP3   OH233547   2.923   4.256  12.744 -0.6328  0.4241  0.2006
 4019TIP3    H133548   2.920   4.193  12.671 -1.9505 -0.4601  0.9617
 4019TIP3    H233549   3.010   4.246  12.781 -0.8984 -1.1964  0.4701
 4020TIP3   OH233550   6.658   0.875   5.704  0.1534  0.0383  0.1839
 4020TIP3    H133551   6.631   0.831   5.784 -1.2548 -0.2931 -0.4385
 4020TIP3    H233552   6.582   0.927   5.678  0.3298 -0.3562 -1.2642
 4021TIP3   OH233553   1.274   2.005  11.572  0.2604 -0.4799  0.0164
 4021TIP3    H133554   1.223   2.080  11.602  3.0107  0.7167  2.1726
 4021TIP3    H233555   1.336   2.042  11.509  1.3705 -0.9964  0.7749
 4022TIP3   OH233556   3.246   5.097  13.609  0.2508 -0.0992 -0.1899
 4022TIP3    H133557   3.175   5.037  13.631  0.4726 -0.1121  0.5037
 4022TIP3    H233558   3.209   5.184  13.619  0.2434 -0.1096 -0.1241
 4023TIP3   OH233559   5.335   6.229   1.141 -0.5066 -0.1988 -0.0606
 4023TIP3    H133560   5.289   6.270   1.214  1.6083  1.2316  0.5240
 4023TIP3    H233561   5.307   6.278   1.064 -1.6115 -0.7740 -0.0514
 4024TIP3   OH233562   1.176   4.522  16.303  0.3290  0.2179  0.5271
 4024TIP3    H133563   1.129   4.561  16.229  1.7927  1.9956  0.4616
 4024TIP3    H233564   1.108   4.501  16.367 -0.7975  0.2079 -0.6238
 4025TIP3   OH233565   2.656   4.316  14.063  0.4103 -0.0673 -0.3701
 4025TIP3    H133566   2.614   4.402  14.057  0.0325 -0.3129 -4.7409
 4025TIP3    H233567   2.585   4.256  14.085  0.0515  0.3844 -0.2741
 4026TIP3   OH233568   4.353   3.082  13.103  0.0970  0.4360 -0.3303
 4026TIP3    H133569   4.308   3.094  13.187  1.1835  1.5336  0.1191
 4026TIP3    H233570   4.443   3.107  13.120  0.9318 -1.7308 -1.2094
 4027TIP3   OH233571   5.024   3.094   0.563 -0.0677 -0.2081 -0.1883
 4027TIP3    H133572   4.936   3.115   0.594  0.3570  1.1505  0.1515
 4027TIP3    H233573   5.011   3.037   0.487 -1.2049 -0.6643  0.3325
 4028TIP3   OH233574   5.305   1.403  16.914 -0.0386 -0.4001 -0.0323
 4028TIP3    H133575   5.393   1.415  16.879  0.2871 -0.9060  0.5909
 4028TIP3    H233576   5.316   1.341  16.987 -0.7451  0.3480  0.7371
 4029TIP3   OH233577   1.236   0.382  14.097 -0.2439 -0.2944  0.0318
 4029TIP3    H133578   1.191   0.443  14.155  0.8521  0.7687 -0.1959
 4029TIP3    H233579   1.266   0.312  14.155 -1.3450 -0.5348  0.3287
 4030TIP3   OH233580   0.911   1.479   2.615 -0.4838  0.2735  0.7291
 4030TIP3    H133581   0.972   1.529   2.669  0.3685 -1.1349  1.0937
 4030TIP3    H233582   0.965   1.439   2.548 -1.0576 -0.6263  0.7841
 4031TIP3   OH233583   5.461   2.979   2.728  0.1199 -0.1088  0.4700
 4031TIP3    H133584   5.470   3.046   2.795 -0.7281  1.7288 -1.1574
 4031TIP3    H233585   5.544   2.980   2.681  0.1903 -0.3908  0.5828
 4032TIP3   OH233586   3.514   4.075  11.185 -0.1151  0.0693 -0.3221
 4032TIP3    H133587   3.467   3.992  11.178 -0.5871  0.2018  1.0945
 4032TIP3    H233588   3.478   4.128  11.114 -0.1627 -0.7496 -0.9331
 4033TIP3   OH233589   3.498   1.760   5.224  0.7059  0.2050  0.5033
 4033TIP3    H133590   3.576   1.706   5.240  0.2671 -0.4828  0.3792
 4033TIP3    H233591   3.471   1.736   5.136 -1.2123 -1.6141  1.5073
 4034TIP3   OH233592   2.446   0.535  10.927  0.0071 -0.1756  0.4272
 4034TIP3    H133593   2.449   0.477  10.852  1.0009 -0.2502  0.5097
 4034TIP3    H233594   2.353   0.542  10.949 -0.2440 -0.5486 -0.4917
 4035TIP3   OH233595   1.790   5.061   0.709 -0.4925 -0.2683  0.6281
 4035TIP3    H133596   1.705   5.018   0.714 -0.2189 -1.0012 -0.6611
 4035TIP3    H233597   1.777   5.134   0.648 -0.1135 -0.5953  0.1543
 4036TIP3   OH233598   0.407   1.133  15.756 -0.5411  0.0476 -0.3331
 4036TIP3    H133599   0.473   1.203  15.755 -0.9752  0.4894  0.4832
 4036TIP3    H233600   0.441   1.068  15.817 -0.6541  0.0831 -0.2293
 4037TIP3   OH233601   0.202   1.853   2.259 -0.7787 -0.0088 -0.6997
 4037TIP3    H133602   0.148   1.919   2.216 -1.3707 -0.5693 -0.8326
 4037TIP3    H233603   0.169   1.849   2.349 -0.6170  0.0111 -0.6388
 4038TIP3   OH233604   2.310   4.303   6.134  0.0943 -0.9509 -0.6219
 4038TIP3    H133605   2.380   4.349   6.180 -0.4905 -1.0290  0.3752
 4038TIP3    H233606   2.309   4.342   6.046 -1.0332  1.6729  0.4578
 4039TIP3   OH233607   3.077   4.034  11.035  0.0220 -0.3509  0.6297
 4039TIP3    H133608   3.071   3.974  10.960 -2.2228  1.0823 -0.4300
 4039TIP3    H233609   2.987   4.051  11.061  0.5988  1.8660  1.4611
 4040TIP3   OH233610   1.290   3.724   5.160 -0.1001 -0.6761  0.4808
 4040TIP3    H133611   1.340   3.806   5.157 -1.6148  0.2822 -0.3022
 4040TIP3    H233612   1.217   3.739   5.100  0.3904 -3.2017 -0.8529
 4041TIP3   OH233613   4.524   4.026  14.120  0.5120 -0.4407 -0.2875
 4041TIP3    H133614   4.480   4.093  14.172  1.4038  0.6338 -0.8712
 4041TIP3    H233615   4.610   4.017  14.160  0.4531 -1.1169 -0.3147
 4042TIP3   OH233616   2.038   6.767   3.118  0.1172 -0.2875 -0.7107
 4042TIP3    H133617   1.952   6.746   3.082  1.5849 -2.2771 -3.5420
 4042TIP3    H233618   2.062   6.850   3.077 -1.2339  1.4867  1.8444
 4043TIP3   OH233619   5.299   0.645   0.861 -0.7196 -0.2367  0.4221
 4043TIP3    H133620   5.319   0.634   0.954 -0.3117 -2.8432  0.1054
 4043TIP3    H233621   5.374   0.607   0.816 -0.5304  1.7135 -1.0389
 4044TIP3   OH233622   5.667   6.408   1.450 -0.1443  0.3426  0.0005
 4044TIP3    H133623   5.669   6.377   1.359  1.0876  2.7894 -0.9165
 4044TIP3    H233624   5.721   6.346   1.498 -1.4289 -1.4349 -0.7333
 4045TIP3   OH233625   2.839   6.011  13.618  0.1912 -0.5250 -0.1922
 4045TIP3    H133626   2.835   6.087  13.676 -3.2759 -0.9417  0.3178
 4045TIP3    H233627   2.816   6.046  13.532  1.5678 -0.5445 -0.5850
 4046TIP3   OH233628   3.051   3.761   5.239 -0.8913  0.3374  0.0711
 4046TIP3    H133629   3.145   3.744   5.232 -1.2530 -2.3793  0.8798
 4046TIP3    H233630   3.035   3.829   5.173  1.5135  0.4058 -0.5463
 4047TIP3   OH233631   0.149   6.043  11.795 -0.0065 -0.7170 -0.2281
 4047TIP3    H133632   0.097   6.105  11.846 -1.7058 -1.7199 -0.6851
 4047TIP3    H233633   0.240   6.065  11.817 -0.5202  1.9680 -0.4541
 4048TIP3   OH233634   1.162   2.106   2.448 -0.0526 -0.0394  0.3617
 4048TIP3    H133635   1.164   2.086   2.542 -1.2027 -2.3789 -0.0309
 4048TIP3    H233636   1.071   2.131   2.431 -0.2436 -1.1948 -0.3834
 4049TIP3   OH233637   5.247   6.424  16.461  0.1082  0.0977  0.4560
 4049TIP3    H133638   5.314   6.484  16.491 -0.3360  1.1216 -0.5360
 4049TIP3    H233639   5.190   6.476  16.404 -0.9734 -0.9664  0.4949
 4050TIP3   OH233640   0.946   3.303  13.326 -0.0791  0.5865 -0.2432
 4050TIP3    H133641   0.969   3.345  13.408 -1.3149  4.3870 -1.6127
 4050TIP3    H233642   0.916   3.375  13.270 -0.3067 -1.9258 -3.6778
 4051TIP3   OH233643   5.028   5.607   5.739  0.1856 -0.4348 -1.4479
 4051TIP3    H133644   4.956   5.651   5.783  0.3566 -0.6980 -0.8921
 4051TIP3    H233645   4.995   5.588   5.651 -0.3185 -0.3098 -1.2885
 4052TIP3   OH233646   0.815   1.131   3.037  0.2829 -0.0593  0.5066
 4052TIP3    H133647   0.898   1.164   3.003  1.0841 -0.9279  1.5845
 4052TIP3    H233648   0.795   1.056   2.982  0.2390  0.1031  0.2970
 4053TIP3   OH233649   5.022   1.231   5.107  0.1886 -0.1446 -0.7071
 4053TIP3    H133650   5.029   1.322   5.080 -2.5537 -0.0611 -1.4144
 4053TIP3    H233651   5.005   1.234   5.201  0.3125  0.0418 -0.6904
 4054TIP3   OH233652   1.469   6.019   3.907  0.0189 -0.3600 -0.2456
 4054TIP3    H133653   1.434   6.039   3.821 -1.4723 -1.2756  0.1133
 4054TIP3    H233654   1.445   6.094   3.961  1.3589  0.4328 -0.6899
 4055TIP3   OH233655   4.347   2.958   4.264  0.3203  0.3380 -0.0403
 4055TIP3    H133656   4.368   3.043   4.301 -1.6097  0.3882  1.0781
 4055TIP3    H233657   4.291   2.978   4.189 -1.4232  0.0697  1.1331
 4056TIP3   OH233658   5.930   3.833  15.875  0.0180 -0.0076  0.3829
 4056TIP3    H133659   5.928   3.871  15.963  2.1777  0.7615  0.1672
 4056TIP3    H233660   5.968   3.746  15.887 -3.8407 -1.8295  0.7165
 4057TIP3   OH233661   5.895   5.755   1.019 -0.4894 -0.2364  0.4275
 4057TIP3    H133662   5.934   5.743   0.933 -1.3360 -0.4593  0.0716
 4057TIP3    H233663   5.939   5.691   1.075  0.3161  0.1513  0.2584
 4058TIP3   OH233664   1.452   4.090   1.839  0.0476 -0.3337 -1.0645
 4058TIP3    H133665   1.435   4.132   1.924  0.3163 -2.6496  0.2358
 4058TIP3    H233666   1.464   4.162   1.778  3.8624  1.6067  1.5886
 4059TIP3   OH233667   3.400   3.686   1.514  0.1849 -0.1421 -0.0901
 4059TIP3    H133668   3.405   3.668   1.420 -1.8623 -1.2390 -0.0466
 4059TIP3    H233669   3.434   3.606   1.555  1.9479  0.6847  0.1495
 4060TIP3   OH233670   5.429   5.394  12.526 -0.0371 -0.3640  0.0995
 4060TIP3    H133671   5.360   5.460  12.523  0.9361  0.7351  1.2317
 4060TIP3    H233672   5.388   5.316  12.487 -0.7403  1.2678 -2.7605
 4061TIP3   OH233673   5.205   2.641   2.915  0.3746  0.3249  0.6093
 4061TIP3    H133674   5.222   2.559   2.962  0.2967 -0.6558 -0.9898
 4061TIP3    H233675   5.148   2.691   2.974  1.3754 -0.2284  2.1289
 4062TIP3   OH233676   0.428   4.682   2.739 -0.2606  0.3984  0.6212
 4062TIP3    H133677   0.489   4.645   2.802 -0.3359 -1.4014 -0.3020
 4062TIP3    H233678   0.480   4.696   2.660 -1.2080 -2.3920 -0.6081
 4063TIP3   OH233679   2.550   4.298   5.866 -0.1426  0.0979 -0.1663
 4063TIP3    H133680   2.583   4.374   5.914  2.8952 -1.1877  0.0101
 4063TIP3    H233681   2.514   4.334   5.785 -1.5140  1.9255  1.1637
 4064TIP3   OH233682   6.660   5.777  14.157 -0.0864  0.2144  0.2137
 4064TIP3    H133683   6.737   5.830  14.137 -0.6664  0.7652 -0.6269
 4064TIP3    H233684   6.676   5.694  14.112 -1.2573  1.3466 -2.5343
 4065TIP3   OH233685   2.112   4.265   4.067  0.1283  0.0824  0.0667
 4065TIP3    H133686   2.020   4.262   4.040  0.2654 -0.6540 -0.3617
 4065TIP3    H233687   2.149   4.340   4.021  0.1012 -0.5267 -0.9554
 4066TIP3   OH233688   4.488   2.339  16.916  0.2543 -0.1731  0.1536
 4066TIP3    H133689   4.506   2.394  16.840  1.2202 -2.1602 -1.1410
 4066TIP3    H233690   4.417   2.281  16.888  2.0065 -2.3519 -0.0938
 4067TIP3   OH233691   4.328   5.539   5.201 -0.1601 -0.2681 -0.0494
 4067TIP3    H133692   4.337   5.558   5.107  3.4308  0.8836  0.3763
 4067TIP3    H233693   4.261   5.601   5.231 -0.8872 -0.1886 -1.7164
 4068TIP3   OH233694   1.766   6.223  16.454 -0.2912 -0.4400 -0.1195
 4068TIP3    H133695   1.675   6.221  16.426 -0.3662 -0.1200  0.1010
 4068TIP3    H233696   1.762   6.222  16.550 -0.1046  0.8559 -0.0860
 4069TIP3   OH233697   2.326   1.647  11.982  0.0452  0.0242 -0.2272
 4069TIP3    H133698   2.421   1.654  11.982 -0.0168  1.0184  1.0379
 4069TIP3    H233699   2.309   1.556  12.007  0.6509 -0.1112 -0.2861
 4070TIP3   OH233700   5.606   1.867  15.532 -0.2123 -0.2661 -0.3967
 4070TIP3    H133701   5.672   1.877  15.601 -0.3814  0.4407 -0.3329
 4070TIP3    H233702   5.528   1.909  15.568 -1.0563 -2.1016  0.0030
 4071TIP3   OH233703   3.305   1.164  10.092  0.7932  0.0009 -0.0828
 4071TIP3    H133704   3.229   1.214  10.121 -0.8575 -2.2767 -0.2237
 4071TIP3    H233705   3.374   1.230  10.081 -0.4333  1.8595  2.3233
 4072TIP3   OH233706   0.484   2.893   0.522 -0.0476  0.6351  0.2594
 4072TIP3    H133707   0.522   2.812   0.556 -0.4245  1.2824  2.3749
 4072TIP3    H233708   0.392   2.889   0.549 -0.6254  0.7843 -1.5520
 4073TIP3   OH233709   6.303   6.314  10.976 -0.3855  0.0716 -1.0905
 4073TIP3    H133710   6.242   6.250  11.013 -0.2767  0.8248  0.4749
 4073TIP3    H233711   6.248   6.390  10.957 -0.1409  0.3423 -0.7367
 4074TIP3   OH233712   6.163   5.245  15.328  0.1283 -0.1365  0.2442
 4074TIP3    H133713   6.109   5.270  15.403 -0.1425  0.9007 -0.2825
 4074TIP3    H233714   6.116   5.172  15.289 -0.4089  0.1629  0.3274
 4075TIP3   OH233715   5.291   1.644  11.152 -0.6218  0.7535 -0.1060
 4075TIP3    H133716   5.345   1.721  11.169  0.9683 -0.3433 -0.0810
 4075TIP3    H233717   5.345   1.588  11.097 -0.5108 -1.7068  2.2849
 4076TIP3   OH233718   4.782   2.831   4.882  0.0837 -0.1873  0.1617
 4076TIP3    H133719   4.829   2.894   4.827  0.8484 -1.9071 -1.2640
 4076TIP3    H233720   4.752   2.883   4.957  0.3856  1.9165 -1.0788
 4077TIP3   OH233721   3.752   6.440  12.489 -0.0072 -0.3170 -0.1413
 4077TIP3    H133722   3.684   6.374  12.502 -0.9588  0.8279  0.9709
 4077TIP3    H233723   3.821   6.415  12.550 -0.1552 -0.5480 -0.0652
 4078TIP3   OH233724   6.279   1.876  14.852 -0.1737  0.0146  0.3841
 4078TIP3    H133725   6.288   1.784  14.879 -1.5895 -0.3736 -0.3954
 4078TIP3    H233726   6.218   1.914  14.915 -0.3741  0.1587  0.1044
 4079TIP3   OH233727   3.941   6.300   6.566  0.0540 -0.6481 -0.0657
 4079TIP3    H133728   3.863   6.314   6.621 -0.0490 -1.9227  0.1499
 4079TIP3    H233729   3.941   6.374   6.505 -1.1638 -0.4638  0.1260
 4080TIP3   OH233730   2.726   3.465  15.096 -0.2266  0.1410  0.5981
 4080TIP3    H133731   2.743   3.388  15.150 -2.8400 -2.4594 -1.9281
 4080TIP3    H233732   2.632   3.481  15.108 -0.7038 -0.0082 -2.4014
 4081TIP3   OH233733   1.483   1.891  14.808 -0.0763  0.4370 -0.2614
 4081TIP3    H133734   1.389   1.874  14.797 -0.2422 -0.9981  2.3661
 4081TIP3    H233735   1.519   1.806  14.834  1.2496  1.6818  2.3337
 4082TIP3   OH233736   4.518   1.089  12.217  0.4096 -0.3867  0.0387
 4082TIP3    H133737   4.566   1.167  12.245  0.2459  0.3173 -1.5412
 4082TIP3    H233738   4.579   1.042  12.160 -0.2110 -0.3230 -0.6886
 4083TIP3   OH233739   6.232   0.032  13.577  0.5157 -0.0432 -0.3649
 4083TIP3    H133740   6.302   0.017  13.640 -0.1143  0.7216  0.5489
 4083TIP3    H233741   6.158  -0.018  13.611  0.1032  0.5645 -0.3574
 4084TIP3   OH233742   4.186   6.335  13.644 -0.1402 -0.0078 -0.2313
 4084TIP3    H133743   4.245   6.365  13.713 -0.2185  4.2230 -1.7245
 4084TIP3    H233744   4.235   6.348  13.562 -1.5941 -0.5952 -1.2488
 4085TIP3   OH233745   4.722   3.699  17.194 -0.4612  0.8653  0.0447
 4085TIP3    H133746   4.813   3.672  17.208 -0.4240  1.2023  0.4728
 4085TIP3    H233747   4.703   3.673  17.104  0.1404  1.0099 -0.1310
 4086TIP3   OH233748   5.510   1.615   1.252  0.1213 -0.8389 -0.2675
 4086TIP3    H133749   5.422   1.652   1.244 -0.0803 -0.7809  1.6412
 4086TIP3    H233750   5.558   1.651   1.177 -1.3016 -0.3719 -0.9930
 4087TIP3   OH233751   3.346   0.592   3.527 -0.0164 -0.0533 -0.1096
 4087TIP3    H133752   3.417   0.635   3.575 -2.5240  2.1949  1.9270
 4087TIP3    H233753   3.318   0.658   3.463 -2.1244  0.3729  1.1610
 4088TIP3   OH233754   4.358   4.580   1.628 -0.5470 -0.7646  0.5912
 4088TIP3    H133755   4.413   4.653   1.602 -0.5295 -0.9783  0.0228
 4088TIP3    H233756   4.368   4.516   1.558  1.1343 -2.2421  2.0608
 4089TIP3   OH233757   6.476   4.914  10.659  0.4206  0.3026  0.2086
 4089TIP3    H133758   6.525   4.843  10.700  3.4389  0.8535 -2.0386
 4089TIP3    H233759   6.407   4.935  10.721  0.9764 -2.8378  2.1034
 4090TIP3   OH233760   1.409   2.396  15.497 -0.1315 -1.0024 -0.5497
 4090TIP3    H133761   1.450   2.356  15.420 -0.8788 -0.7915 -1.0620
 4090TIP3    H233762   1.476   2.457  15.531 -0.3109 -0.0138 -1.8919
 4091TIP3   OH233763   0.267   5.712  15.859 -0.4602 -0.0224  0.3186
 4091TIP3    H133764   0.322   5.705  15.780  0.1711 -1.1454  0.8312
 4091TIP3    H233765   0.283   5.630  15.906 -2.1578 -0.1208  0.7798
 4092TIP3   OH233766   5.701   1.871   3.173  0.5510  0.3277  0.3664
 4092TIP3    H133767   5.643   1.818   3.228  0.8071  0.9778  1.2884
 4092TIP3    H233768   5.651   1.887   3.093 -0.8553  1.4900  1.4290
 4093TIP3   OH233769   5.214   3.295   4.428 -0.0542 -1.0670 -0.1859
 4093TIP3    H133770   5.215   3.321   4.336  1.0897 -0.3239  0.0100
 4093TIP3    H233771   5.147   3.227   4.433 -3.3705  1.8445 -0.7233
 4094TIP3   OH233772   2.492   5.294  13.736 -0.0625  0.0111  0.0530
 4094TIP3    H133773   2.474   5.237  13.660  0.9032 -2.4769  1.5495
 4094TIP3    H233774   2.581   5.326  13.721 -0.2544  0.3686 -0.3403
 4095TIP3   OH233775   5.754   0.080   2.620  0.7839  0.2902  0.6081
 4095TIP3    H133776   5.778   0.168   2.651  2.1805  0.4096 -0.6898
 4095TIP3    H233777   5.736   0.092   2.526  0.0270 -0.6477  0.6212
 4096TIP3   OH233778   6.160   3.776   1.586  0.7276  0.2373  0.6071
 4096TIP3    H133779   6.172   3.742   1.497  0.0264 -2.5758  1.4690
 4096TIP3    H233780   6.180   3.701   1.642 -0.4116  1.4736  2.7721
 4097TIP3   OH233781   0.068   1.271  12.208  0.1044 -0.4127 -1.1947
 4097TIP3    H133782   0.162   1.263  12.198  0.0999 -0.8518 -0.8830
 4097TIP3    H233783   0.055   1.296  12.299 -0.0102  0.9874 -1.5646
 4098TIP3   OH233784   3.906   1.861  14.966 -0.0478  0.5709  0.4209
 4098TIP3    H133785   3.938   1.771  14.962  0.8461  0.8811  0.3045
 4098TIP3    H233786   3.906   1.890  14.875 -1.6323  0.2665  0.2983
 4099TIP3   OH233787   2.360   3.811   5.976 -0.2059  0.0631  0.0477
 4099TIP3    H133788   2.288   3.783   5.919 -0.6251 -1.1406  1.1233
 4099TIP3    H233789   2.389   3.894   5.939 -2.1266  0.5637 -0.4239
 4100TIP3   OH233790   3.988   0.542  13.268 -0.1981  0.4847  0.0235
 4100TIP3    H133791   3.945   0.626  13.285  0.2953  0.5839  0.8214
 4100TIP3    H233792   3.998   0.502  13.354  2.4633  1.0270  0.0382
 4101TIP3   OH233793   2.115   5.456  10.984  0.2069  0.2549  0.1808
 4101TIP3    H133794   2.029   5.449  11.025 -0.5500  1.5509 -1.0555
 4101TIP3    H233795   2.122   5.548  10.959  2.2549  0.3295  0.8287
 4102TIP3   OH233796   5.379   2.326  14.638 -0.3566  0.1986  0.3785
 4102TIP3    H133797   5.458   2.379  14.635 -1.0724  1.4299  1.7843
 4102TIP3    H233798   5.355   2.312  14.546  0.6067  1.1612 -0.0368
 4103TIP3   OH233799   2.813   2.047  14.856 -0.3660 -0.0955 -0.1003
 4103TIP3    H133800   2.724   2.030  14.824  0.1997 -2.0314 -0.7569
 4103TIP3    H233801   2.834   1.971  14.910  0.3501  1.0713  1.3610
 4104TIP3   OH233802   5.638   5.826   1.161 -0.3846  0.1400 -0.4308
 4104TIP3    H133803   5.581   5.833   1.084  0.2999  0.8348 -0.8804
 4104TIP3    H233804   5.718   5.786   1.129  0.1179  0.9366 -0.2013
 4105TIP3   OH233805   4.201   0.945  15.269 -0.5588 -0.2028 -0.0469
 4105TIP3    H133806   4.222   1.016  15.329 -0.2865  0.9434 -1.4608
 4105TIP3    H233807   4.279   0.890  15.267  0.8296  1.7041 -2.0171
 4106TIP3   OH233808   4.485   0.087  10.842  0.5040  0.4971 -0.0148
 4106TIP3    H133809   4.483   0.183  10.852  2.4340  0.6586 -0.8239
 4106TIP3    H233810   4.507   0.054  10.929 -0.2396  0.7662  0.2849
 4107TIP3   OH233811   6.159   5.787   4.977 -0.1101 -0.0613  0.5130
 4107TIP3    H133812   6.073   5.749   4.992  0.0830 -0.4827  0.5670
 4107TIP3    H233813   6.193   5.806   5.064 -0.2805  0.4017  0.4778
 4108TIP3   OH233814   0.441   1.510  13.488  0.2545  0.0404 -0.3969
 4108TIP3    H133815   0.493   1.445  13.533 -0.6848 -0.7497 -0.4190
 4108TIP3    H233816   0.350   1.491  13.513 -0.1114  0.8261 -1.0450
 4109TIP3   OH233817   3.637   1.138  16.801  0.5441 -0.1549 -0.6560
 4109TIP3    H133818   3.611   1.146  16.893  1.3513 -1.2467 -0.3054
 4109TIP3    H233819   3.663   1.046  16.792 -0.1268 -0.2293 -2.1415
 4110TIP3   OH233820   4.403   4.080   6.102  0.3992 -0.9053 -1.0041
 4110TIP3    H133821   4.454   4.144   6.052 -0.5439  0.3783 -0.3660
 4110TIP3    H233822   4.347   4.132   6.160  0.1504 -2.3140  0.1079
 4111TIP3   OH233823   6.076   6.296   0.274 -0.1475 -0.3047 -0.2451
 4111TIP3    H133824   6.070   6.300   0.370  1.9186  0.2163 -0.0857
 4111TIP3    H233825   6.042   6.381   0.244 -1.9312 -0.9368 -0.0781
 4112TIP3   OH233826   3.051   2.017  13.986  0.2509  0.5322 -0.0727
 4112TIP3    H133827   3.019   2.107  13.985 -0.8163  0.1756  0.4425
 4112TIP3    H233828   3.038   1.986  13.896  1.9478  1.3106 -0.6299
 4113TIP3   OH233829   4.214   5.941   3.987  0.4511  0.3349 -0.3609
 4113TIP3    H133830   4.248   5.902   3.907  1.9866 -0.2788  0.5323
 4113TIP3    H233831   4.270   5.905   4.057 -1.3076  0.2365  1.0858
 4114TIP3   OH233832   0.353   2.386   4.750  0.1291  0.0425 -0.3668
 4114TIP3    H133833   0.295   2.388   4.674 -1.6478 -3.3060  0.7165
 4114TIP3    H233834   0.323   2.457   4.806 -0.8672  0.3070 -1.2162
 4115TIP3   OH233835   1.684   5.029  17.205 -0.4164 -0.0982  0.7010
 4115TIP3    H133836   1.728   5.114  17.202 -0.9015  0.1362  0.0874
 4115TIP3    H233837   1.663   5.010  17.114  2.0690 -2.1636  0.4550
 4116TIP3   OH233838   3.539   1.487  14.274  0.3514  0.2460 -0.2812
 4116TIP3    H133839   3.629   1.494  14.307 -0.2335 -0.4576  1.5661
 4116TIP3    H233840   3.546   1.512  14.182  2.5451 -0.3379 -0.3357
 4117TIP3   OH233841   3.208   2.002   0.120  0.0714 -0.6256 -0.6723
 4117TIP3    H133842   3.138   1.940   0.140 -2.0007  1.6858 -0.2258
 4117TIP3    H233843   3.249   2.021   0.205  0.9525 -1.5983 -0.8614
 4118TIP3   OH233844   3.416   3.459   3.114  0.1560 -0.0594  0.0546
 4118TIP3    H133845   3.386   3.459   3.205  1.8545 -0.3094  0.6533
 4118TIP3    H233846   3.421   3.551   3.090 -1.8947 -0.0143 -0.3866
 4119TIP3   OH233847   2.761   0.490  16.585 -0.2645  0.5188 -0.2214
 4119TIP3    H133848   2.745   0.582  16.607  2.1904  0.8435  0.5968
 4119TIP3    H233849   2.755   0.444  16.669  1.0053  0.3884 -0.1821
 4120TIP3   OH233850   1.232   0.997  13.419  0.2981  0.1541 -0.5419
 4120TIP3    H133851   1.215   0.903  13.427  0.5090  0.1173 -0.5212
 4120TIP3    H233852   1.298   1.015  13.485  0.6274  0.2185 -0.8830
 4121TIP3   OH233853   4.602   0.806  13.948  0.1409  0.2643  0.1483
 4121TIP3    H133854   4.613   0.840  13.859  0.4143 -0.9854 -0.3062
 4121TIP3    H233855   4.612   0.711  13.940  0.0787  0.1175  1.5001
 4122TIP3   OH233856   3.753   3.969   0.528  0.2928  0.5467 -0.2666
 4122TIP3    H133857   3.679   4.014   0.568  0.5507  0.5535  0.2012
 4122TIP3    H233858   3.765   4.013   0.444  0.7341  1.5629  0.3059
 4123TIP3   OH233859   4.429   5.426   4.704  0.0953  0.3192  0.4396
 4123TIP3    H133860   4.518   5.399   4.683  0.0033  0.4681 -0.1566
 4123TIP3    H233861   4.408   5.493   4.639 -0.4547  0.2824  0.5703
 4124TIP3   OH233862   1.753   6.475  13.714  0.1208  0.4242  0.2051
 4124TIP3    H133863   1.796   6.517  13.639  1.6845 -1.9779 -0.3402
 4124TIP3    H233864   1.819   6.415  13.749 -0.7286  1.1411  3.2792
 4125TIP3   OH233865   3.203   0.521  16.722  0.1715 -0.7292  0.5631
 4125TIP3    H133866   3.129   0.571  16.756 -1.0357 -1.2150 -1.2351
 4125TIP3    H233867   3.221   0.457  16.790 -2.2269 -1.7309  0.3452
 4126TIP3   OH233868   2.210   6.115  14.512  0.3533 -0.0744  0.2267
 4126TIP3    H133869   2.205   6.199  14.466 -0.8142  0.1112  0.6711
 4126TIP3    H233870   2.300   6.111  14.543  0.4373  0.9932  0.1665
 4127TIP3   OH233871   2.842   5.120  16.886 -0.0186 -0.5868  0.3038
 4127TIP3    H133872   2.891   5.074  16.954  1.2467 -1.4833 -1.1547
 4127TIP3    H233873   2.891   5.201  16.871 -0.6294 -0.1064  0.8577
 4128TIP3   OH233874   4.158   3.516  15.620 -0.2628  0.5845 -0.2015
 4128TIP3    H133875   4.219   3.583  15.588  0.1798  0.4751  0.3898
 4128TIP3    H233876   4.207   3.434  15.613 -1.1688  0.1347 -1.9390
 4129TIP3   OH233877   1.962   1.724   4.424 -0.0997 -0.5105  0.0641
 4129TIP3    H133878   2.013   1.738   4.504  0.8530 -0.6131 -0.5030
 4129TIP3    H233879   1.893   1.791   4.427  0.9232  0.5735  0.1795
 4130TIP3   OH233880   5.399   1.550  11.419 -0.4910  0.0688 -0.0732
 4130TIP3    H133881   5.426   1.641  11.431  0.0999 -0.3001  1.7008
 4130TIP3    H233882   5.308   1.555  11.391 -0.3502  1.2167 -0.3629
 4131TIP3   OH233883   0.611   4.581  15.376  0.3243  0.4492 -0.6151
 4131TIP3    H133884   0.541   4.537  15.423 -0.5818 -0.1618 -2.4312
 4131TIP3    H233885   0.612   4.539  15.290  3.6985 -0.3797 -0.3119
 4132TIP3   OH233886   4.518   3.101   3.857  0.1040  0.1072  0.4550
 4132TIP3    H133887   4.494   3.111   3.949 -2.9931  0.4891 -0.2791
 4132TIP3    H233888   4.511   3.007   3.841  0.4064  0.0690  0.5367
 4133TIP3   OH233889   5.357   4.313   2.335  0.4190 -0.2368  0.4204
 4133TIP3    H133890   5.442   4.354   2.348 -0.6311  1.8818  0.9813
 4133TIP3    H233891   5.294   4.385   2.336 -1.6701 -1.8885  2.6268
 4134TIP3   OH233892   6.767   6.442   0.923 -0.1895  0.5923  0.2442
 4134TIP3    H133893   6.809   6.400   0.998 -1.6868 -0.1072  0.7269
 4134TIP3    H233894   6.676   6.456   0.951 -0.4947  1.3478 -1.0364
 4135TIP3   OH233895   4.312   6.341  13.026  0.0233  0.1943 -0.0312
 4135TIP3    H133896   4.282   6.352  13.117 -0.1880  0.8099 -0.1677
 4135TIP3    H233897   4.341   6.250  13.021 -0.5808 -0.0347  0.4756
 4136TIP3   OH233898   6.228   6.633   0.248 -0.5481 -0.1900  0.0385
 4136TIP3    H133899   6.155   6.612   0.191 -0.5212  0.2768 -0.1693
 4136TIP3    H233900   6.303   6.588   0.209 -1.0592 -2.2532  1.2885
 4137TIP3   OH233901   2.522   4.155  13.074 -0.7963 -0.0432  1.0138
 4137TIP3    H133902   2.468   4.221  13.030 -1.1347  1.1248  3.0447
 4137TIP3    H233903   2.604   4.201  13.094  0.5528 -1.4271 -0.9066
 4138TIP3   OH233904   4.266   4.015   1.322  0.6054 -0.2212 -0.0587
 4138TIP3    H133905   4.297   4.036   1.410 -0.2869  0.1768  0.1682
 4138TIP3    H233906   4.177   4.049   1.319  0.1972 -1.3102 -0.7198
 4139TIP3   OH233907   5.252   4.488  13.083  0.0355 -0.8967  0.1409
 4139TIP3    H133908   5.207   4.430  13.144 -1.5888  0.1179 -0.0092
 4139TIP3    H233909   5.292   4.430  13.019 -0.3214 -1.8850  0.7950
 4140TIP3   OH233910   2.927   3.544  16.579 -0.9603 -0.0913  0.5259
 4140TIP3    H133911   2.862   3.611  16.596 -0.3345  0.9985 -1.1320
 4140TIP3    H233912   2.877   3.462  16.574 -1.9614  0.4899  0.8663
 4141TIP3   OH233913   6.106   3.406   2.158 -0.1941  0.6985  0.4575
 4141TIP3    H133914   6.134   3.315   2.147 -1.3292 -0.0971  3.2800
 4141TIP3    H233915   6.149   3.435   2.238 -3.5912  0.9088  2.4117
 4142TIP3   OH233916   1.071   5.443  14.247 -0.0096 -0.4572  0.0664
 4142TIP3    H133917   1.024   5.387  14.309 -0.7644  2.6636  2.5634
 4142TIP3    H233918   1.157   5.402  14.238 -0.3603 -1.7592  2.0949
 4143TIP3   OH233919   1.898   2.001   0.941 -0.3176 -0.4023  0.1863
 4143TIP3    H133920   1.921   2.079   0.891  0.2330 -0.8145 -0.2129
 4143TIP3    H233921   1.803   1.996   0.936 -0.2438 -0.7641 -1.3382
 4144TIP3   OH233922   2.515   2.753   1.358 -0.4244  0.7524 -0.0471
 4144TIP3    H133923   2.457   2.787   1.426  0.5222  1.0717  0.6313
 4144TIP3    H233924   2.595   2.729   1.405 -0.7094 -1.5598 -0.6539
 4145TIP3   OH233925   0.468   4.908  11.157 -0.1589 -0.5513 -0.4299
 4145TIP3    H133926   0.454   4.980  11.218  1.4515 -1.5375  1.2017
 4145TIP3    H233927   0.476   4.950  11.071 -1.2728  0.9773  0.1761
 4146TIP3   OH233928   5.821   1.886  14.578  0.1009 -0.5235 -0.0318
 4146TIP3    H133929   5.786   1.861  14.664 -0.2501  0.7331  0.2108
 4146TIP3    H233930   5.746   1.922  14.531  0.9480  1.9121  0.3758
 4147TIP3   OH233931   0.214   0.399   6.154 -0.4801  0.4508  0.3163
 4147TIP3    H133932   0.249   0.401   6.243  0.5953 -1.9683  0.0272
 4147TIP3    H233933   0.129   0.356   6.163  0.1872 -0.9822  0.0727
 4148TIP3   OH233934   0.015   1.132  14.717 -0.7145 -0.5163  0.1408
 4148TIP3    H133935   0.064   1.145  14.798 -0.9656  2.4467 -0.0570
 4148TIP3    H233936   0.025   1.039  14.697  1.1674 -0.8885  2.3822
 4149TIP3   OH233937   4.156   3.190  15.323 -0.5166 -0.2490  0.1306
 4149TIP3    H133938   4.207   3.197  15.403  0.2699 -0.9148 -0.3098
 4149TIP3    H233939   4.148   3.280  15.292  0.6670 -0.1695  0.0345
 4150TIP3   OH233940   1.214   3.973   6.481 -0.1279 -0.0236 -0.0018
 4150TIP3    H133941   1.204   3.922   6.562 -1.2908  0.6295  0.2981
 4150TIP3    H233942   1.128   4.012   6.467  0.2448  0.4049 -1.2091
 4151TIP3   OH233943   6.732   1.754   0.476 -0.1110  0.4380 -0.3353
 4151TIP3    H133944   6.661   1.743   0.539  1.6093 -0.6565  1.5128
 4151TIP3    H233945   6.739   1.669   0.433 -0.3110  0.7468 -1.0015
 4152TIP3   OH233946   1.911   4.886   3.989 -0.1005  0.4799 -0.4105
 4152TIP3    H133947   1.884   4.970   4.027  0.2857  0.5281 -0.2403
 4152TIP3    H233948   1.981   4.909   3.928  0.3334  0.2286 -0.0099
 4153TIP3   OH233949   6.706   4.317  11.209 -0.4078  0.1538 -0.3621
 4153TIP3    H133950   6.764   4.243  11.223 -0.5091  0.3572  1.4310
 4153TIP3    H233951   6.706   4.331  11.115 -1.3442 -2.8805 -0.9166
 4154TIP3   OH233952   3.106   2.189  11.599  0.0673  0.0935 -0.4256
 4154TIP3    H133953   3.028   2.208  11.547  1.6843  0.9604 -2.6613
 4154TIP3    H233954   3.090   2.234  11.683 -2.0102 -0.1694 -0.6287
 4155TIP3   OH233955   3.454   5.957   5.650 -0.2174  0.0620 -0.2363
 4155TIP3    H133956   3.360   5.973   5.646  0.0018  2.1303  1.3315
 4155TIP3    H233957   3.462   5.867   5.681 -1.6398 -0.4565 -1.2662
 4156TIP3   OH233958   4.128   3.860  13.944  0.4706  0.5333  0.2213
 4156TIP3    H133959   4.056   3.909  13.983  0.0673 -1.3324  1.9987
 4156TIP3    H233960   4.085   3.794  13.890  0.9222  0.4645 -0.0601
 4157TIP3   OH233961   5.093   6.147  14.520 -0.3111  0.0899  0.1651
 4157TIP3    H133962   5.055   6.119  14.436 -1.0111  0.3569  0.3812
 4157TIP3    H233963   5.094   6.068  14.573  1.0990 -0.3142 -0.4283
 4158TIP3   OH233964   3.077   5.880  12.650 -0.2863 -0.3131  0.2771
 4158TIP3    H133965   3.114   5.858  12.564 -1.1129 -0.6772 -0.0010
 4158TIP3    H233966   3.151   5.877  12.710  0.0185 -1.8431 -0.1178
 4159TIP3   OH233967   5.965   2.989  10.711 -0.6844  0.5849  0.6024
 4159TIP3    H133968   5.930   2.961  10.626  2.7168 -1.4489 -0.3310
 4159TIP3    H233969   5.991   3.080  10.698  0.4329  0.0953 -0.8478
 4160TIP3   OH233970   5.414   0.136  13.940 -0.6354 -0.1721  0.6826
 4160TIP3    H133971   5.498   0.147  13.894 -0.2357 -1.7399  0.9702
 4160TIP3    H233972   5.351   0.117  13.871  0.3047 -4.4847  0.6825
 4161TIP3   OH233973   4.006   3.105   2.668  0.2865  0.1113 -0.2009
 4161TIP3    H133974   4.050   3.115   2.753  0.4124 -1.2340 -0.0953
 4161TIP3    H233975   4.077   3.111   2.604  0.5100 -1.0119 -0.0833
 4162TIP3   OH233976   1.422   5.588  12.622 -0.1292  0.0340  0.4256
 4162TIP3    H133977   1.422   5.683  12.622 -2.4386  0.0877  1.0022
 4162TIP3    H233978   1.332   5.563  12.644  0.1098 -2.2844 -0.8337
 4163TIP3   OH233979   4.422   2.552  15.180  0.7064 -0.0166  0.1170
 4163TIP3    H133980   4.334   2.522  15.204  0.1138  1.3101 -0.2735
 4163TIP3    H233981   4.443   2.618  15.246  0.9958  0.3605 -0.3471
 4164TIP3   OH233982   4.519   2.526   0.799  0.2927 -0.5656  0.1517
 4164TIP3    H133983   4.481   2.449   0.840  0.1145 -0.4413  0.2199
 4164TIP3    H233984   4.613   2.514   0.807  0.3059 -1.4304 -1.0263
 4165TIP3   OH233985   0.490   3.704  13.425 -0.1195  0.4070 -0.6610
 4165TIP3    H133986   0.534   3.753  13.494  1.0331 -0.1255 -0.9883
 4165TIP3    H233987   0.514   3.750  13.344 -1.3306  0.9332 -0.7355
 4166TIP3   OH233988   1.257   6.295  15.298 -0.1914 -0.0742  0.1576
 4166TIP3    H133989   1.345   6.300  15.335 -0.0981 -0.8660  0.0484
 4166TIP3    H233990   1.199   6.318  15.371  0.0295 -0.9395  0.6129
 4167TIP3   OH233991   1.892   1.595  17.103  0.3537 -0.2435 -0.0103
 4167TIP3    H133992   1.963   1.646  17.062 -0.2746  1.8378  1.3017
 4167TIP3    H233993   1.916   1.592  17.195 -0.7246 -0.4910  0.2670
 4168TIP3   OH233994   5.374   4.188   1.068 -0.4214 -0.3496 -0.0542
 4168TIP3    H133995   5.368   4.264   1.127 -1.3710  0.7194 -1.4369
 4168TIP3    H233996   5.327   4.119   1.114  0.5042 -0.1424  1.2684
 4169TIP3   OH233997   2.350   6.115   4.299  0.0312  0.4639 -0.1467
 4169TIP3    H133998   2.391   6.067   4.226 -1.8165 -0.3414 -0.7173
 4169TIP3    H233999   2.259   6.086   4.298 -0.4553  1.8194  1.3721
 4170TIP3   OH234000   6.819   2.571  12.143  0.0393 -0.3733 -0.6388
 4170TIP3    H134001   6.799   2.536  12.230  0.7955  1.3382  0.2878
 4170TIP3    H234002   6.734   2.578  12.100 -0.3501 -1.2422 -0.0349
 4171TIP3   OH234003   6.548   0.436  13.216 -0.0698 -0.5040 -0.1252
 4171TIP3    H134004   6.529   0.399  13.130 -1.9723 -0.9407  0.4299
 4171TIP3    H234005   6.556   0.531  13.200 -1.0485 -0.5088 -0.7033
 4172TIP3   OH234006   0.572   3.259   0.818  0.0232  0.4914  0.1279
 4172TIP3    H134007   0.519   3.182   0.841  1.1379 -0.3849 -0.1353
 4172TIP3    H234008   0.525   3.300   0.746  0.0321 -0.6676 -0.5620
 4173TIP3   OH234009   1.097   0.557   4.743  0.2217 -0.3887  0.1105
 4173TIP3    H134010   1.166   0.610   4.703 -0.3307 -1.0749 -1.8713
 4173TIP3    H234011   1.144   0.482   4.780  0.5360 -1.3585 -2.0910
 4174TIP3   OH234012   0.874   3.890   4.549 -0.1285 -0.2192 -0.3235
 4174TIP3    H134013   0.828   3.819   4.594 -0.5924 -0.0201 -0.4798
 4174TIP3    H234014   0.956   3.850   4.519 -0.7109 -0.8908 -1.0418
 4175TIP3   OH234015   4.243   4.839  13.058  0.1427  0.8260 -0.1940
 4175TIP3    H134016   4.317   4.880  13.012 -0.1750  2.2231  0.4761
 4175TIP3    H234017   4.262   4.852  13.151  0.3355 -1.1734  0.0787
 4176TIP3   OH234018   1.811   2.433  13.059 -0.3904 -0.5414 -0.0502
 4176TIP3    H134019   1.834   2.482  13.137  0.1954  0.3640 -0.7684
 4176TIP3    H234020   1.885   2.374  13.045 -0.7914 -1.1788  0.4295
 4177TIP3   OH234021   4.781   2.134  14.753  0.1023  0.3242  0.0950
 4177TIP3    H134022   4.866   2.121  14.712 -0.8156 -1.8151 -1.2782
 4177TIP3    H234023   4.723   2.161  14.681 -1.4982 -3.3345 -0.1707
 4178TIP3   OH234024   2.440   6.229  13.414  0.3108 -0.3320  0.0322
 4178TIP3    H134025   2.409   6.281  13.488  2.2424  1.1785 -0.1314
 4178TIP3    H234026   2.449   6.140  13.450  0.0602  0.1162  1.2744
 4179TIP3   OH234027   6.290   0.176   2.378 -0.3479 -0.4865 -0.2979
 4179TIP3    H134028   6.340   0.246   2.418 -2.1049 -0.7099  2.5531
 4179TIP3    H234029   6.199   0.198   2.396 -1.0002 -2.9239 -0.2192
 4180TIP3   OH234030   0.855   0.353   3.646 -0.5833  0.8297 -0.1574
 4180TIP3    H134031   0.875   0.286   3.580 -2.2047 -0.6711  0.7681
 4180TIP3    H234032   0.934   0.358   3.700 -0.6173 -0.8702  0.1260
 4181TIP3   OH234033   6.102   4.160  12.070  0.0945  0.8673 -0.3010
 4181TIP3    H134034   6.084   4.107  12.148  0.4695 -0.8650 -1.3350
 4181TIP3    H234035   6.186   4.203  12.089 -0.1403  0.9942  0.4990
 4182TIP3   OH234036   0.409   4.085   1.541  0.2275  0.6603  0.1740
 4182TIP3    H134037   0.469   4.140   1.591  0.4199  0.2716  0.3830
 4182TIP3    H234038   0.431   3.996   1.568 -1.0357  0.5550  0.9181
 4183TIP3   OH234039   0.154   3.096  16.873  0.2392  0.9462  0.1214
 4183TIP3    H134040   0.125   3.086  16.964 -0.7115 -1.2182 -0.3544
 4183TIP3    H234041   0.235   3.046  16.867  0.0901  0.7471 -0.2990
 4184TIP3   OH234042   5.248   0.828  13.152  0.0483  0.3627 -0.1054
 4184TIP3    H134043   5.337   0.831  13.117 -0.4411  0.8207 -1.3612
 4184TIP3    H234044   5.209   0.911  13.126 -0.4463  0.6004  1.3152
 4185TIP3   OH234045   2.070   6.079  15.753 -0.5454  0.8006 -0.7081
 4185TIP3    H134046   2.101   6.076  15.843  1.8332  0.5504 -1.4651
 4185TIP3    H234047   2.012   6.003  15.745  1.5686 -0.9569 -0.1536
 4186TIP3   OH234048   0.744   6.498  12.855 -0.4714  0.0427 -0.3976
 4186TIP3    H134049   0.775   6.415  12.819  0.7624  1.0079 -1.6800
 4186TIP3    H234050   0.695   6.539  12.783 -0.4969  0.7077 -0.0113
 4187TIP3   OH234051   2.773   6.383   1.252  0.6392 -0.2808 -0.2700
 4187TIP3    H134052   2.823   6.382   1.170 -0.7210 -1.8649 -1.1320
 4187TIP3    H234053   2.683   6.367   1.226  0.1267 -0.5298  1.5134
 4188TIP3   OH234054   1.375   0.143   1.582 -0.0347  0.4551 -0.7377
 4188TIP3    H134055   1.338   0.142   1.670  0.3119 -1.2557 -0.5744
 4188TIP3    H234056   1.442   0.211   1.585 -0.0874  0.4765  0.2767
 4189TIP3   OH234057   3.594   0.193  17.009 -0.2353  0.0852 -0.0504
 4189TIP3    H134058   3.630   0.213  17.095  0.3488  1.7066 -0.6334
 4189TIP3    H234059   3.663   0.141  16.966 -0.4474 -0.5572  0.3705
 4190TIP3   OH234060   1.182   0.640  13.089  0.1084  0.0125  0.4454
 4190TIP3    H134061   1.153   0.605  13.005  0.3489 -0.6832  0.6432
 4190TIP3    H234062   1.115   0.704  13.113  0.6942  1.1819 -0.8782
 4191TIP3   OH234063   1.352   2.617   0.637 -0.1143  0.2877  0.0836
 4191TIP3    H134064   1.328   2.553   0.704  0.2350  0.5196  0.4321
 4191TIP3    H234065   1.436   2.585   0.603 -0.4012  0.0446 -0.4079
 4192TIP3   OH234066   5.350   6.407   3.394 -0.1771 -0.5628 -0.0231
 4192TIP3    H134067   5.356   6.498   3.424  2.3647 -0.5871 -0.2293
 4192TIP3    H234068   5.275   6.406   3.335  0.0498  1.5423 -0.4314
 4193TIP3   OH234069   4.411   4.432   4.214  0.1381  0.1550 -0.4128
 4193TIP3    H134070   4.368   4.517   4.209 -0.9111 -0.3133  0.2921
 4193TIP3    H234071   4.350   4.377   4.263  2.1584 -0.1428  1.9798
 4194TIP3   OH234072   3.436   6.644   6.333 -0.3344  0.2724  0.1915
 4194TIP3    H134073   3.381   6.619   6.407  0.6003  0.1110  0.8554
 4194TIP3    H234074   3.501   6.703   6.371 -0.0629  0.4730 -0.5788
 4195TIP3   OH234075   5.213   3.524  11.776  0.6782 -0.2479 -0.3374
 4195TIP3    H134076   5.132   3.566  11.747  0.2467 -0.0699  1.0409
 4195TIP3    H234077   5.272   3.529  11.700 -0.0652  1.0180 -0.8530
 4196TIP3   OH234078   6.682   0.025  12.082 -0.0380  0.4594 -0.2490
 4196TIP3    H134079   6.647  -0.042  12.141  2.3288 -0.5289  0.1216
 4196TIP3    H234080   6.677  -0.016  11.995 -2.3904  1.4507 -0.6518
 4197TIP3   OH234081   4.505   2.419   3.801 -0.3017 -0.4509 -0.4564
 4197TIP3    H134082   4.413   2.441   3.788 -1.4287 -3.3514  1.5925
 4197TIP3    H234083   4.523   2.444   3.892  0.1448 -2.1617 -0.0486
 4198TIP3   OH234084   0.470   1.313  13.923  0.4999  0.6696 -0.3738
 4198TIP3    H134085   0.489   1.392  13.974  0.3971  0.5289 -0.1189
 4198TIP3    H234086   0.396   1.338  13.868 -1.1570  0.0174  1.4477
 4199TIP3   OH234087   4.991   2.591   6.294 -0.0871  0.0774 -0.7704
 4199TIP3    H134088   5.041   2.516   6.263 -0.0656  0.6505 -2.2098
 4199TIP3    H234089   4.910   2.554   6.329 -0.8018 -0.5316 -2.9430
 4200TIP3   OH234090   1.974   1.643  13.939 -0.2300  0.2219 -0.1948
 4200TIP3    H134091   1.981   1.549  13.922 -0.6455  0.4063 -1.5005
 4200TIP3    H234092   2.020   1.684  13.866 -0.2708  1.0445  0.2308
 4201TIP3   OH234093   0.344   2.525   5.126  0.1947  0.0050 -0.1805
 4201TIP3    H134094   0.328   2.589   5.195 -0.7998 -0.8105  0.3605
 4201TIP3    H234095   0.400   2.460   5.167 -0.5515 -0.5792 -0.0719
 4202TIP3   OH234096   3.907   2.342   3.310  0.4453 -0.1188  0.2458
 4202TIP3    H134097   3.863   2.367   3.392 -0.3717 -1.4157  0.2261
 4202TIP3    H234098   3.987   2.297   3.339 -0.4620 -1.7204  0.4096
 4203TIP3   OH234099   6.317   0.082  16.203 -0.0738  0.1071 -0.0869
 4203TIP3    H134100   6.248   0.016  16.190  0.7834 -0.9231  0.4593
 4203TIP3    H234101   6.380   0.064  16.133 -0.1299  0.7533 -0.3059
 4204TIP3   OH234102   5.549   0.493  16.201 -0.4591 -0.3721 -0.9217
 4204TIP3    H134103   5.632   0.539  16.194  0.1246 -1.3633 -0.6517
 4204TIP3    H234104   5.504   0.513  16.119 -0.9798  2.0626 -0.1378
 4205TIP3   OH234105   4.309   2.926   5.983 -0.3446 -0.5168 -0.7190
 4205TIP3    H134106   4.342   2.929   5.893  0.5372 -0.3880 -0.3980
 4205TIP3    H234107   4.387   2.935   6.037 -0.8734 -0.5960  0.0627
 4206TIP3   OH234108   6.266   2.543   1.250  0.0251 -0.0883  0.5841
 4206TIP3    H134109   6.254   2.491   1.171 -1.4306  1.4095 -0.2616
 4206TIP3    H234110   6.308   2.623   1.220  2.2267 -0.6959  1.8525
 4207TIP3   OH234111   2.834   6.157  11.419 -0.1229  0.2039  0.1095
 4207TIP3    H134112   2.907   6.196  11.370  1.2983 -0.7832  1.3536
 4207TIP3    H234113   2.830   6.208  11.500 -1.9572  1.3309 -0.6452
 4208TIP3   OH234114   1.490   5.319  13.248 -0.2843 -0.0847  0.0304
 4208TIP3    H134115   1.538   5.395  13.214 -2.2162  1.0694 -0.2323
 4208TIP3    H234116   1.484   5.259  13.174  0.0534  0.1048 -0.1551
 4209TIP3   OH234117   3.706   0.007   1.405  0.1709 -0.0924 -0.2607
 4209TIP3    H134118   3.692   0.093   1.447 -0.1192  0.1007 -0.7534
 4209TIP3    H234119   3.774   0.024   1.340  0.9079 -0.4801  0.3822
 4210TIP3   OH234120   6.173   3.944  10.922  0.5512 -0.4248 -0.3893
 4210TIP3    H134121   6.088   3.956  10.881  0.2467 -0.2032  0.2896
 4210TIP3    H234122   6.234   3.993  10.866  0.1701 -0.2461 -0.6506
 4211TIP3   OH234123   6.616   6.596   4.461 -0.1864 -0.6040  0.3051
 4211TIP3    H134124   6.524   6.597   4.487 -0.4032 -0.3336 -0.4450
 4211TIP3    H234125   6.664   6.582   4.542 -0.9981 -3.2116  0.3998
 4212TIP3   OH234126   5.614   6.270  12.465  0.4228 -0.1104  0.7263
 4212TIP3    H134127   5.546   6.203  12.462  0.0757  0.1768  1.8574
 4212TIP3    H234128   5.616   6.306  12.376 -0.4441 -0.5630  0.5179
 4213TIP3   OH234129   3.828   2.972   2.071  0.3621 -0.4680 -0.2690
 4213TIP3    H134130   3.747   2.924   2.057  0.7624 -1.5856  1.0267
 4213TIP3    H234131   3.817   3.054   2.022 -1.4403 -0.6904 -0.2780
 4214TIP3   OH234132   3.703   4.458   5.738  0.2651 -0.8803 -0.1113
 4214TIP3    H134133   3.723   4.399   5.810  1.5112  0.9861  1.1775
 4214TIP3    H234134   3.610   4.476   5.746  0.3455 -0.8694  0.9211
 4215TIP3   OH234135   5.470   1.631  13.451 -0.1507 -0.1666  0.6617
 4215TIP3    H134136   5.379   1.602  13.441 -0.7149  0.9464  2.2426
 4215TIP3    H234137   5.522   1.556  13.423 -1.5320 -0.6878 -0.6735
 4216TIP3   OH234138   1.069   3.431  14.097 -0.1663 -0.0822 -0.2753
 4216TIP3    H134139   1.044   3.428  14.189 -1.7136  0.7996 -0.6354
 4216TIP3    H234140   1.134   3.361  14.087  0.4021  0.1368  1.5799
 4217TIP3   OH234141   1.965   4.102  14.491 -0.6891 -0.0316  0.2837
 4217TIP3    H134142   1.920   4.151  14.561 -0.0413  1.0703 -0.0375
 4217TIP3    H234143   1.954   4.010  14.515 -1.8411  0.2648  0.9916
 4218TIP3   OH234144   4.363   6.307   4.047 -0.3497 -0.1015  0.6899
 4218TIP3    H134145   4.402   6.379   3.996 -0.0120 -0.5654  0.2839
 4218TIP3    H234146   4.272   6.303   4.015  0.1550 -1.1178 -0.7242
 4219TIP3   OH234147   1.586   2.861  11.459  0.0530 -0.0607 -0.1829
 4219TIP3    H134148   1.530   2.939  11.462  0.0186 -0.0913 -0.0100
 4219TIP3    H234149   1.658   2.881  11.518 -0.0792 -0.2540  0.0462
 4220TIP3   OH234150   5.675   6.676   1.505 -0.3507 -0.4141 -0.4478
 4220TIP3    H134151   5.758   6.722   1.495 -0.6999 -0.0100 -1.5772
 4220TIP3    H234152   5.694   6.586   1.480  0.2328 -0.8508  1.3702
 4221TIP3   OH234153   5.218   6.575  12.334 -0.2234  0.8633 -0.5122
 4221TIP3    H134154   5.187   6.600  12.247  0.2047  0.5045 -0.7724
 4221TIP3    H234155   5.313   6.571  12.326 -0.2623 -1.3077 -0.6373
 4222TIP3   OH234156   1.033   1.430  14.332  0.1054  0.3403 -0.4638
 4222TIP3    H134157   1.042   1.501  14.268 -2.2720 -0.7422 -2.1423
 4222TIP3    H234158   1.009   1.354  14.279  0.3206 -1.1858  1.5293
 4223TIP3   OH234159   4.507   1.689   0.223 -0.3223 -0.1226  0.2314
 4223TIP3    H134160   4.553   1.712   0.304  1.7768 -0.9590 -0.6621
 4223TIP3    H234161   4.416   1.714   0.240  0.6087  2.9238  1.6072
 4224TIP3   OH234162   3.806   4.817   2.513 -0.1031  0.5453  0.0952
 4224TIP3    H134163   3.746   4.743   2.506  0.0309  0.2317  1.7553
 4224TIP3    H234164   3.752   4.893   2.491 -1.0479  0.2318  1.1681
 4225TIP3   OH234165   5.891   5.229  14.328 -0.0421  0.0245 -0.1130
 4225TIP3    H134166   5.818   5.229  14.265 -0.5054  0.1501  0.4163
 4225TIP3    H234167   5.856   5.184  14.405 -0.1233  1.5856  0.7908
 4226TIP3   OH234168   3.855   2.671  12.497 -0.1630  0.5583  0.0157
 4226TIP3    H134169   3.896   2.679  12.411  0.4571 -0.0751  0.2319
 4226TIP3    H234170   3.924   2.633  12.552 -0.5187  1.0396  0.8154
 4227TIP3   OH234171   5.019   5.054   1.005 -0.0676 -0.5043  0.0595
 4227TIP3    H134172   5.106   5.063   0.967 -0.2273  0.5058 -0.0940
 4227TIP3    H234173   4.978   5.140   0.992  0.0727  0.1150  2.9801
 4228TIP3   OH234174   2.436   3.549   5.193 -0.1309  0.0200  0.5620
 4228TIP3    H134175   2.498   3.523   5.124  1.0234 -1.9940  2.2428
 4228TIP3    H234176   2.481   3.620   5.239  0.4097 -0.5919  1.0000
 4229TIP3   OH234177   3.206   6.030   6.137 -0.5613 -0.1406 -0.2246
 4229TIP3    H134178   3.160   6.023   6.221 -0.7450 -1.6434 -0.4241
 4229TIP3    H234179   3.294   6.060   6.161 -0.0498 -2.2239  0.7345
 4230TIP3   OH234180   4.903   4.480   3.476  0.1434 -0.2132 -0.2220
 4230TIP3    H134181   4.844   4.410   3.506 -0.2824  0.6562  1.0632
 4230TIP3    H234182   4.942   4.514   3.557  2.8504 -1.1047 -1.0637
 4231TIP3   OH234183   5.147   6.565  10.383 -0.2465 -0.2634  0.0667
 4231TIP3    H134184   5.068   6.550  10.331 -1.6589  0.5543  1.8553
 4231TIP3    H234185   5.128   6.645  10.432  2.1103  0.5148 -0.1598
 4232TIP3   OH234186   3.765   4.462   4.168 -0.1694 -0.0158  0.2662
 4232TIP3    H134187   3.782   4.460   4.262  1.4605 -0.6869 -0.0121
 4232TIP3    H234188   3.688   4.407   4.156 -1.2587  1.1942  1.3307
 4233TIP3   OH234189   6.245   6.170   3.796  0.0856 -0.5252 -0.2162
 4233TIP3    H134190   6.329   6.123   3.800  0.0732 -0.7678 -1.8245
 4233TIP3    H234191   6.218   6.179   3.887  2.8353  1.3713  0.5523
 4234TIP3   OH234192   6.754   0.410   2.802 -0.2665 -0.0389  0.0329
 4234TIP3    H134193   6.675   0.380   2.847 -1.4111 -0.3622 -2.0237
 4234TIP3    H234194   6.800   0.329   2.778 -2.0600 -0.2601 -3.2941
 4235TIP3   OH234195   1.461   4.976  15.692  0.1093 -0.9535  0.4027
 4235TIP3    H134196   1.394   5.038  15.720  0.9949 -0.5649  1.7655
 4235TIP3    H234197   1.440   4.896  15.739  0.4056 -0.9304  0.5757
 4236TIP3   OH234198   0.056   5.211   3.979  0.1745  0.0588  0.3827
 4236TIP3    H134199   0.063   5.241   3.888 -1.2595  1.4295  0.6742
 4236TIP3    H234200   0.119   5.140   3.986 -0.2344 -0.6039 -1.9028
 4237TIP3   OH234201   4.460   2.635  12.658 -0.7146 -0.3377  0.6936
 4237TIP3    H134202   4.552   2.621  12.635 -0.5995  2.1518 -0.6652
 4237TIP3    H234203   4.461   2.656  12.751  0.0368 -0.6194  0.7552
 4238TIP3   OH234204   0.250   4.741   1.119 -0.1385 -0.0393 -0.1903
 4238TIP3    H134205   0.230   4.826   1.156 -0.5780 -0.0899 -0.3120
 4238TIP3    H234206   0.212   4.678   1.181  2.0207 -0.2264  1.0561
 4239TIP3   OH234207   4.090   5.660   5.285 -0.6019  0.1550 -1.0906
 4239TIP3    H134208   4.131   5.731   5.335 -2.0183  0.8523 -0.8749
 4239TIP3    H234209   4.000   5.690   5.269 -1.2876 -1.6636 -0.8574
 4240TIP3   OH234210   6.577   4.696   0.050 -0.5252 -0.1940  0.5393
 4240TIP3    H134211   6.656   4.715   0.101  0.3152  1.3678 -1.2285
 4240TIP3    H234212   6.607   4.638  -0.020 -0.8732  0.6124 -0.2931
 4241TIP3   OH234213   3.679   1.625  16.851 -0.7253 -1.0966 -0.1500
 4241TIP3    H134214   3.702   1.610  16.943  0.1184 -0.2668 -0.2044
 4241TIP3    H234215   3.678   1.538  16.812  0.2839 -1.3428  0.3418
 4242TIP3   OH234216   0.256   5.012  10.584  0.3411 -0.5909  0.6350
 4242TIP3    H134217   0.336   5.062  10.600 -0.2918  0.4240  0.6991
 4242TIP3    H234218   0.287   4.927  10.552  1.4181  0.6548 -1.9461
 4243TIP3   OH234219   0.230   1.825  13.083 -0.2939 -0.4228  0.0901
 4243TIP3    H134220   0.235   1.736  13.048  1.2951  0.0061 -0.9046
 4243TIP3    H234221   0.314   1.837  13.128 -1.0679  0.1030  1.4324
 4244TIP3   OH234222   0.526   2.160  12.400 -0.0040  0.0354 -0.6740
 4244TIP3    H134223   0.583   2.099  12.353 -0.0715 -0.6439  0.1074
 4244TIP3    H234224   0.585   2.231  12.427  1.0920 -1.7521  2.1672
 4245TIP3   OH234225   1.705   2.431   3.910 -0.3067  0.2404  0.3643
 4245TIP3    H134226   1.697   2.342   3.876  1.0285 -0.5109  1.8580
 4245TIP3    H234227   1.665   2.427   3.997  2.9401  0.0300  2.0264
 4246TIP3   OH234228   1.218   3.533   0.025  0.3196 -0.9903  0.4515
 4246TIP3    H134229   1.187   3.579  -0.053  1.1403 -0.6370  0.3179
 4246TIP3    H234230   1.139   3.516   0.076  0.0302  1.0924  0.7809
 4247TIP3   OH234231   0.268   5.130   3.655  0.1481  0.3382 -0.0229
 4247TIP3    H134232   0.248   5.208   3.707 -0.2643 -0.1900  0.6337
 4247TIP3    H234233   0.270   5.059   3.719 -1.7855 -0.5757 -0.8780
 4248TIP3   OH234234   6.333   4.178  10.869 -0.1972  0.0987  0.0927
 4248TIP3    H134235   6.293   4.175  10.955  0.2112  1.0013  0.3315
 4248TIP3    H234236   6.375   4.264  10.865 -1.5854  0.7829 -1.6119
 4249TIP3   OH234237   3.545   6.760  12.945 -0.2354  0.1203  0.4976
 4249TIP3    H134238   3.569   6.851  12.933  1.8041 -0.3119  0.8920
 4249TIP3    H234239   3.451   6.762  12.964 -0.4636  2.0089 -0.5590
 4250TIP3   OH234240   1.506   4.974   2.856  0.0383 -0.5260 -0.2700
 4250TIP3    H134241   1.598   4.968   2.829  0.4530  0.4073  0.8253
 4250TIP3    H234242   1.487   5.068   2.853 -1.3546 -0.8210 -1.8977
 4251TIP3   OH234243   4.169   1.535   1.503  0.1008  0.0135 -0.4888
 4251TIP3    H134244   4.149   1.572   1.589  0.1094 -0.5315 -0.2485
 4251TIP3    H234245   4.109   1.461   1.494  0.2558 -0.0696 -0.8540
 4252TIP3   OH234246   2.653   0.781   0.511  0.4030  0.9160  0.3617
 4252TIP3    H134247   2.605   0.732   0.578 -0.8659  0.0817 -1.0752
 4252TIP3    H234248   2.603   0.766   0.431  1.7786  2.0059 -0.7510
 4253TIP3   OH234249   5.730   2.538   2.271 -0.3572 -0.8588  0.1576
 4253TIP3    H134250   5.757   2.456   2.230 -0.8727 -0.3419 -1.2954
 4253TIP3    H234251   5.673   2.580   2.205  0.1736  0.8109  0.7087
 4254TIP3   OH234252   2.158   1.178  10.775  0.3052 -0.1744 -0.1574
 4254TIP3    H134253   2.125   1.096  10.737 -0.1625  0.1857 -0.5380
 4254TIP3    H234254   2.199   1.223  10.701  0.8438 -0.2044  0.1193
 4255TIP3   OH234255   2.949   6.090   4.020  0.7979  0.6939 -0.3224
 4255TIP3    H134256   3.044   6.098   4.034  1.2161 -0.8097 -1.8912
 4255TIP3    H234257   2.941   6.024   3.951 -1.4242  0.5907 -0.0274
 4256TIP3   OH234258   2.363   5.698   1.532 -0.1468 -0.5670 -0.1640
 4256TIP3    H134259   2.449   5.700   1.490  0.7082 -2.2945  1.3780
 4256TIP3    H234260   2.373   5.751   1.611 -0.7188 -0.2058 -0.3249
 4257TIP3   OH234261   3.964   0.018   0.269  0.6400 -0.7634 -0.0600
 4257TIP3    H134262   3.991   0.107   0.294 -2.4773  0.8026 -1.6250
 4257TIP3    H234263   3.943  -0.024   0.353  2.3638 -0.1351  0.7284
 4258TIP3   OH234264   3.823   5.207   5.436  0.0018 -0.7231 -0.2578
 4258TIP3    H134265   3.800   5.288   5.391  1.4568 -1.4441 -2.4741
 4258TIP3    H234266   3.746   5.186   5.489 -1.1821  1.0374 -1.1821
 4259TIP3   OH234267   0.675   2.080   6.056  0.3014  0.7397  0.3331
 4259TIP3    H134268   0.717   2.162   6.031  2.7706 -0.6570 -0.4003
 4259TIP3    H234269   0.649   2.094   6.147  0.2970  2.4607  0.1042
 4260TIP3   OH234270   1.331   1.234   4.035 -0.0112  0.1586 -0.0891
 4260TIP3    H134271   1.385   1.268   4.107  0.5873 -0.1313 -0.3960
 4260TIP3    H234272   1.243   1.228   4.073  0.4979 -1.0645  0.9803
 4261TIP3   OH234273   1.112   5.482  15.594 -0.2563 -0.1159  0.1643
 4261TIP3    H134274   1.049   5.545  15.561  0.3920 -0.7761 -2.5721
 4261TIP3    H234275   1.186   5.487  15.533  0.9272 -1.6908  1.3656
 4262TIP3   OH234276   6.373   6.659   0.498 -0.0409  0.4273 -0.0028
 4262TIP3    H134277   6.312   6.655   0.425 -0.0123  0.7535 -0.0481
 4262TIP3    H234278   6.354   6.743   0.541  0.3087  0.4883  0.0386
 4263TIP3   OH234279   0.713   2.843  17.113 -0.0511  0.1410 -0.2136
 4263TIP3    H134280   0.773   2.909  17.149 -1.5461  0.2371  2.3584
 4263TIP3    H234281   0.752   2.818  17.030  0.9716  3.7123 -0.9581
 4264TIP3   OH234282   2.712   2.270   1.345  0.2567  0.3817  0.0948
 4264TIP3    H134283   2.622   2.270   1.379  0.9685  1.0857  2.1179
 4264TIP3    H234284   2.752   2.348   1.382  1.9356 -0.3179 -0.1327
 4265TIP3   OH234285   0.015   1.719   4.549  0.2668 -0.3032 -0.0755
 4265TIP3    H134286  -0.057   1.706   4.612  0.3121 -0.0649  0.0250
 4265TIP3    H234287   0.035   1.812   4.555  0.1698 -0.2513 -0.5562
 4266TIP3   OH234288   1.871   2.642  15.332 -0.3376 -0.4747  0.0181
 4266TIP3    H134289   1.943   2.659  15.272  0.9089 -0.2913  1.4765
 4266TIP3    H234290   1.864   2.723  15.384 -2.3292 -0.0906 -0.7959
 4267TIP3   OH234291   3.289   3.222  14.884 -0.5638 -0.3849 -0.0868
 4267TIP3    H134292   3.289   3.210  14.979 -2.4279 -1.3870 -0.1600
 4267TIP3    H234293   3.196   3.228  14.860 -0.1929 -1.1062 -1.9399
 4268TIP3   OH234294   6.072   0.237  12.263  0.6116  0.0217 -0.1880
 4268TIP3    H134295   6.124   0.316  12.277  0.9903 -0.3245  0.3840
 4268TIP3    H234296   6.033   0.249  12.176  1.5728  0.3256 -0.5870
 4269TIP3   OH234297   1.619   3.438   4.422  0.3409 -0.4440 -0.5910
 4269TIP3    H134298   1.673   3.362   4.446  1.4405 -0.2503 -2.2302
 4269TIP3    H234299   1.648   3.459   4.333 -2.6383 -0.4527 -1.6529
 4270TIP3   OH234300   2.807   2.737   0.635  0.1756 -0.4896  0.6498
 4270TIP3    H134301   2.792   2.643   0.622 -3.1806 -0.3687  2.3684
 4270TIP3    H234302   2.855   2.742   0.717  0.3030 -0.6968  0.5896
 4271TIP3   OH234303   5.319   2.891  13.712  0.1703 -0.1485 -0.2518
 4271TIP3    H134304   5.266   2.839  13.773  0.0016 -0.6266 -0.7972
 4271TIP3    H234305   5.275   2.881  13.627 -0.2905  1.4977 -0.2429
 4272TIP3   OH234306   2.652   0.883   4.961 -0.4528 -0.2136  0.3821
 4272TIP3    H134307   2.593   0.812   4.986  1.4116 -1.6759  0.9250
 4272TIP3    H234308   2.632   0.953   5.022 -2.4903 -0.1369 -0.3018
 4273TIP3   OH234309   1.518   5.165   5.625  0.2509 -0.1381 -0.1531
 4273TIP3    H134310   1.571   5.179   5.704  1.4097 -1.5587 -0.6473
 4273TIP3    H234311   1.431   5.198   5.649  0.8137  0.2993  1.4044
 4274TIP3   OH234312   2.046   4.230  15.614 -0.6433  0.0043  0.6493
 4274TIP3    H134313   2.052   4.167  15.542 -0.6254 -1.4599  1.8933
 4274TIP3    H234314   2.054   4.316  15.571  1.2553 -0.8582 -0.8855
 4275TIP3   OH234315   6.685   6.264  13.183 -0.2338 -0.5799  0.1469
 4275TIP3    H134316   6.663   6.173  13.162 -2.0860 -0.7338  2.3729
 4275TIP3    H234317   6.764   6.258  13.236  0.3792 -0.7648 -0.7720
 4276TIP3   OH234318   2.882   0.109  10.241  0.3705 -0.4674  0.1450
 4276TIP3    H134319   2.943   0.125  10.168 -0.9053 -1.9521 -1.3257
 4276TIP3    H234320   2.898   0.018  10.264 -0.7291 -0.6247  0.2928
 4277TIP3   OH234321   0.056   2.862  12.850  0.2921  0.1688 -0.2256
 4277TIP3    H134322   0.133   2.881  12.797 -0.6307  1.2850 -1.2282
 4277TIP3    H234323  -0.013   2.843  12.787 -0.7884  1.3537  0.5560
 4278TIP3   OH234324   4.238   0.956  16.264 -0.2283 -0.2493  0.2880
 4278TIP3    H134325   4.147   0.975  16.287  0.2256  0.2540  1.8455
 4278TIP3    H234326   4.241   0.861  16.257 -1.1120 -0.2119 -1.0022
 4279TIP3   OH234327   4.035   3.059   5.124 -0.0275 -0.4453 -0.2452
 4279TIP3    H134328   4.058   3.011   5.204  1.2070 -0.1179 -0.3721
 4279TIP3    H234329   3.987   3.136   5.156 -0.0635 -0.6220  0.1362
 4280TIP3   OH234330   1.174   5.234   0.513  0.1115  0.1307 -0.4700
 4280TIP3    H134331   1.122   5.262   0.588  0.4324  1.7634 -0.8034
 4280TIP3    H234332   1.133   5.277   0.438  0.0399 -1.1470 -1.1832
 4281TIP3   OH234333   0.552   3.206  11.585  0.1754 -0.4928  0.1124
 4281TIP3    H134334   0.578   3.245  11.502  1.7470  1.1776  1.3118
 4281TIP3    H234335   0.499   3.273  11.628 -2.0191 -1.9623 -0.1660
 4282TIP3   OH234336   2.307   0.041   3.164  0.2778 -0.2527 -0.6324
 4282TIP3    H134337   2.320   0.094   3.242 -1.7266  2.8977 -2.2515
 4282TIP3    H234338   2.243  -0.025   3.191 -0.1578  0.5870  0.4862
 4283TIP3   OH234339   0.919   3.744  16.693 -0.3576  0.2276  0.2487
 4283TIP3    H134340   0.890   3.658  16.663 -0.5812  0.3475  0.1199
 4283TIP3    H234341   0.946   3.790  16.613  2.0822 -0.5597  0.5210
 4284TIP3   OH234342   3.283   2.758   3.920 -0.4262  0.1014 -0.5485
 4284TIP3    H134343   3.239   2.724   3.842 -1.7415  0.7383 -0.1185
 4284TIP3    H234344   3.294   2.851   3.902  1.4738 -0.1625 -0.9482
 4285TIP3   OH234345   3.421   6.275  16.359 -0.2027  0.1154 -0.4779
 4285TIP3    H134346   3.397   6.283  16.267 -1.2234  0.2272 -0.2237
 4285TIP3    H234347   3.359   6.211  16.394 -0.6142  0.9414  0.3785
 4286TIP3   OH234348   4.520   0.732  15.610 -0.5823 -0.0272  0.4919
 4286TIP3    H134349   4.606   0.695  15.588  0.6103  2.1763  1.1852
 4286TIP3    H234350   4.479   0.665  15.665  0.9747 -0.8348  0.7341
 4287TIP3   OH234351   2.026   1.362  12.120  0.1840  0.0064  0.8381
 4287TIP3    H134352   2.079   1.390  12.195 -0.8106  0.0632  1.5333
 4287TIP3    H234353   2.007   1.270  12.137  0.4445 -0.1415  0.3507
 4288TIP3   OH234354   2.153   1.988  15.195 -0.4399 -0.3367  0.1400
 4288TIP3    H134355   2.065   1.952  15.209 -0.0782 -0.4768  2.4755
 4288TIP3    H234356   2.161   2.056  15.262  1.0827 -0.0061 -0.3492
 4289TIP3   OH234357   6.596   4.946  13.723  0.0201 -0.2014  0.4896
 4289TIP3    H134358   6.525   4.967  13.784 -0.5180  1.7323 -0.6980
 4289TIP3    H234359   6.577   4.858  13.692 -1.1771 -0.1889  1.1417
 4290TIP3   OH234360   4.303   2.788  11.509 -0.5854 -0.2737 -0.4866
 4290TIP3    H134361   4.287   2.879  11.486  1.4908  1.2774  3.2164
 4290TIP3    H234362   4.367   2.758  11.445 -0.9005  1.0633 -1.4691
 4291TIP3   OH234363   2.959   0.770  12.467 -0.5319 -0.0670  0.6273
 4291TIP3    H134364   2.961   0.819  12.385 -2.2142 -0.0334  0.5837
 4291TIP3    H234365   2.954   0.678  12.441 -0.3848 -0.0978  0.7044
 4292TIP3   OH234366   2.992   3.957   1.184 -0.0509  0.0726  0.2555
 4292TIP3    H134367   3.015   4.048   1.167 -0.3495 -0.0788 -1.0759
 4292TIP3    H234368   2.914   3.942   1.131  0.4990 -1.2012 -0.2246
 4293TIP3   OH234369   1.317   3.242   3.043 -0.1644 -0.0614 -0.4056
 4293TIP3    H134370   1.287   3.333   3.044  0.1371  0.0701 -1.3756
 4293TIP3    H234371   1.412   3.248   3.047 -0.0944 -0.2736 -1.3570
 4294TIP3   OH234372   6.231   0.062   2.103 -0.3802  0.6751 -0.1855
 4294TIP3    H134373   6.285   0.068   2.024  0.4572  1.8342  0.4413
 4294TIP3    H234374   6.284   0.102   2.172 -0.6211 -1.3197  1.2446
 4295TIP3   OH234375   4.787   3.646  16.936 -0.1898 -0.0301  0.0465
 4295TIP3    H134376   4.818   3.622  16.848 -1.0927  1.9662 -0.8598
 4295TIP3    H234377   4.859   3.620  16.994  0.5586 -1.1004 -1.3071
 4296TIP3   OH234378   6.180   1.258  16.061  0.0367  0.1001  0.5443
 4296TIP3    H134379   6.167   1.170  16.026  2.4253  0.2705 -0.9832
 4296TIP3    H234380   6.222   1.243  16.146  0.2404 -0.2323  0.3865
 4297TIP3   OH234381   1.225   4.512   4.722  0.2585 -0.0599 -0.0697
 4297TIP3    H134382   1.288   4.535   4.791  0.3543 -0.9075  0.1368
 4297TIP3    H234383   1.277   4.467   4.656  0.3793  1.6776 -1.2525
 4298TIP3   OH234384   5.953   1.946   1.991  0.3694  0.3648 -0.3267
 4298TIP3    H134385   5.978   1.939   1.899 -0.2425  1.2153 -0.5707
 4298TIP3    H234386   6.036   1.944   2.038  0.6593 -0.7091 -0.8365
 4299TIP3   OH234387   1.670   1.768   1.312 -0.5773  0.3570  0.7908
 4299TIP3    H134388   1.652   1.789   1.220  0.4359  1.1137  0.7432
 4299TIP3    H234389   1.596   1.715   1.340  0.1954 -1.8776 -1.1227
 4300TIP3   OH234390   5.229   6.160  15.643  0.4076 -0.3060  0.5278
 4300TIP3    H134391   5.148   6.132  15.599 -0.2463  0.2890  1.3182
 4300TIP3    H234392   5.205   6.241  15.688  1.1825 -0.6460  1.5895
 4301TIP3   OH234393   1.839   1.503  14.584  0.4221 -0.2541 -0.2586
 4301TIP3    H134394   1.812   1.575  14.526 -1.2667  0.5134  1.3704
 4301TIP3    H234395   1.764   1.444  14.586  0.9961 -0.9895  0.0744
 4302TIP3   OH234396   5.034   0.614  13.615 -0.0087 -1.1680  0.2185
 4302TIP3    H134397   4.978   0.672  13.563  0.7599 -1.1580 -0.6137
 4302TIP3    H234398   4.995   0.528  13.606 -0.8749 -0.8872  1.0616
 4303TIP3   OH234399   5.732   4.648  12.442  0.3523 -0.1195  0.1413
 4303TIP3    H134400   5.707   4.736  12.469 -0.9749  0.0999 -1.5531
 4303TIP3    H234401   5.668   4.625  12.374  0.4127 -2.5557  0.8134
 4304TIP3   OH234402   6.278   5.460  14.575 -0.8601 -0.1132  0.3081
 4304TIP3    H134403   6.264   5.391  14.640 -0.9055 -0.7312 -0.3437
 4304TIP3    H234404   6.355   5.508  14.606 -1.8592  0.6490  1.6872
 4305TIP3   OH234405   3.683   4.235   3.391 -0.5961  0.3053  0.0568
 4305TIP3    H134406   3.720   4.265   3.308 -1.2868  2.2090  0.3801
 4305TIP3    H234407   3.755   4.243   3.454 -0.8488  1.6786  0.1993
 4306TIP3   OH234408   0.523   1.667   2.815  0.2653  0.0785  0.1335
 4306TIP3    H134409   0.525   1.572   2.822  3.1839 -0.0038 -0.6157
 4306TIP3    H234410   0.486   1.696   2.898 -2.4189 -1.6643 -0.3188
 4307TIP3   OH234411   5.033   5.021   3.693  0.4112 -0.5609  0.6111
 4307TIP3    H134412   5.030   4.967   3.614  0.8833  0.0138  0.1881
 4307TIP3    H234413   5.003   4.963   3.763  0.1373 -1.1253  0.0367
 4308TIP3   OH234414   5.161   1.688  15.700 -0.0285 -0.2596  0.4426
 4308TIP3    H134415   5.083   1.638  15.725  0.1070 -0.2506  0.9026
 4308TIP3    H234416   5.233   1.644  15.745  0.1226  0.2126  0.6722
 4309TIP3   OH234417   3.750   2.484   5.145  0.5530 -0.2655  0.2685
 4309TIP3    H134418   3.817   2.522   5.089  0.9123 -0.8964  0.2661
 4309TIP3    H234419   3.798   2.427   5.205 -0.0553 -1.4382 -0.3255
 4310TIP3   OH234420   6.240   2.817   6.441  0.3803  0.2180  0.4135
 4310TIP3    H134421   6.246   2.860   6.355 -0.6364  0.4190  0.4358
 4310TIP3    H234422   6.156   2.773   6.441  0.5845 -0.1963  1.1298
 4311TIP3   OH234423   5.958   3.685  11.941 -0.3153 -0.2987  0.0203
 4311TIP3    H134424   6.011   3.749  11.893 -0.4389  0.1658  0.4913
 4311TIP3    H234425   5.888   3.737  11.981 -0.3015 -0.6957  0.5773
 4312TIP3   OH234426   1.352   6.300  13.497  0.5677  0.1133 -0.7527
 4312TIP3    H134427   1.435   6.311  13.544 -0.6224  0.8476  1.3310
 4312TIP3    H234428   1.290   6.356  13.545 -1.1635 -0.4940 -2.1744
 4313TIP3   OH234429   0.203   6.228   3.622 -0.3663 -0.1347 -0.8894
 4313TIP3    H134430   0.153   6.261   3.547  0.0118  2.2355 -0.1765
 4313TIP3    H234431   0.285   6.279   3.620 -0.4379  0.1413  1.2288
 4314TIP3   OH234432   3.543   5.265  12.702 -0.2775 -0.4312 -0.1636
 4314TIP3    H134433   3.551   5.239  12.794 -0.1078  0.5786  0.1180
 4314TIP3    H234434   3.450   5.253  12.682 -1.3453  3.4950  1.4961
 4315TIP3   OH234435   4.204   2.442   3.498 -0.5527 -0.2222 -0.3346
 4315TIP3    H134436   4.178   2.360   3.456 -2.5802 -0.8966  1.9605
 4315TIP3    H234437   4.279   2.418   3.553 -0.2102 -0.1789 -0.7786
 4316TIP3   OH234438   4.827   3.289  16.374  0.0702  0.3722 -0.0871
 4316TIP3    H134439   4.752   3.347  16.388  1.1537  2.0970 -1.0238
 4316TIP3    H234440   4.884   3.337  16.313  1.3372 -1.4273 -0.4133
 4317TIP3   OH234441   6.691   6.480  11.987 -0.0078 -0.4429 -0.4267
 4317TIP3    H134442   6.695   6.531  12.068  2.1270  0.1708 -0.8400
 4317TIP3    H234443   6.699   6.546  11.918  1.5434 -1.1834 -0.9972
 4318TIP3   OH234444   5.208   0.182  12.958  0.6819 -0.1304  0.2865
 4318TIP3    H134445   5.178   0.117  12.895  0.0128 -0.2450  0.7207
 4318TIP3    H234446   5.296   0.152  12.981  0.3039 -1.0168  0.6499
 4319TIP3   OH234447   5.826   3.252  13.756 -0.1038 -0.2275  0.7137
 4319TIP3    H134448   5.800   3.174  13.707  0.2591  0.7204 -1.0739
 4319TIP3    H234449   5.769   3.253  13.833 -2.0424 -0.7838 -0.6479
 4320TIP3   OH234450   5.251   6.408   0.952 -0.2368  0.4780  0.5291
 4320TIP3    H134451   5.249   6.501   0.973 -1.1314  0.1456  2.0273
 4320TIP3    H234452   5.335   6.396   0.908  0.4494  1.7743  1.4023
 4321TIP3   OH234453   2.027   2.321  13.656  0.2133  0.3123  0.4232
 4321TIP3    H134454   2.106   2.289  13.698 -0.4094 -1.9980 -0.0442
 4321TIP3    H234455   1.955   2.280  13.704 -0.6489  0.8937 -0.3164
 4322TIP3   OH234456   0.621   3.257   6.702  0.3293  0.2222 -1.0961
 4322TIP3    H134457   0.653   3.184   6.755  0.9529  1.3588  0.1855
 4322TIP3    H234458   0.695   3.318   6.700 -0.9010  1.8326 -0.1522
 4323TIP3   OH234459   1.355   1.055  13.773 -0.4975 -0.2019  0.4483
 4323TIP3    H134460   1.431   1.027  13.722 -0.9965 -1.8183  0.5415
 4323TIP3    H234461   1.390   1.076  13.859  0.0976  0.8572 -0.0370
 4324TIP3   OH234462   2.785   6.320  11.052 -0.0341 -0.1907 -0.3861
 4324TIP3    H134463   2.861   6.354  11.006  0.5122 -0.2664  0.4444
 4324TIP3    H234464   2.728   6.396  11.065 -1.0771 -0.4672 -2.7809
 4325TIP3   OH234465   1.507   1.542   1.047  0.5392 -0.6729  0.0849
 4325TIP3    H134466   1.530   1.589   1.127  1.0478 -1.3645  0.3587
 4325TIP3    H234467   1.586   1.493   1.026  0.1637 -1.0494 -0.4436
 4326TIP3   OH234468   3.577   5.306  15.477 -0.2051 -0.1002  0.5305
 4326TIP3    H134469   3.508   5.262  15.527 -0.8703  2.4910  2.0705
 4326TIP3    H234470   3.645   5.324  15.542  0.3384  0.5434 -0.2055
 4327TIP3   OH234471   5.257   1.028   4.100  0.1430  0.4061  0.7325
 4327TIP3    H134472   5.182   0.970   4.085 -0.0505  0.5801  1.0148
 4327TIP3    H234473   5.254   1.046   4.194  1.0817 -0.3205  0.9081
 4328TIP3   OH234474   1.169   2.697  12.453  0.0584  0.3222  0.2938
 4328TIP3    H134475   1.112   2.702  12.530 -2.2288  0.7323 -1.3200
 4328TIP3    H234476   1.165   2.605  12.426 -1.7044  0.7403 -1.0622
 4329TIP3   OH234477   0.657   0.688   5.953 -0.0287  0.6627 -0.4486
 4329TIP3    H134478   0.650   0.783   5.951  0.7253  0.7716  0.7544
 4329TIP3    H234479   0.694   0.668   6.039 -0.5812 -0.7527 -0.5020
 4330TIP3   OH234480   2.122   0.753  10.993 -0.3574 -0.0445  0.0233
 4330TIP3    H134481   2.158   0.664  10.993  0.9249  0.4442 -1.1787
 4330TIP3    H234482   2.192   0.808  10.957 -0.7708  1.6264  1.5971
 4331TIP3   OH234483   3.963   4.526   5.558  0.5112 -0.5726 -0.1662
 4331TIP3    H134484   3.947   4.432   5.570 -0.1932 -0.6556 -1.5886
 4331TIP3    H234485   3.920   4.547   5.475  0.6772  1.0121  0.1302
 4332TIP3   OH234486   2.174   4.545  14.209  0.3092 -0.1009  0.4387
 4332TIP3    H134487   2.099   4.559  14.267 -0.0991 -0.3390 -0.0346
 4332TIP3    H234488   2.136   4.521  14.125  0.8369  2.0944 -0.4916
 4333TIP3   OH234489   1.197   5.901  14.636 -0.3326  0.1936  0.0280
 4333TIP3    H134490   1.229   5.989  14.614  0.8883  0.0513  1.0835
 4333TIP3    H234491   1.236   5.883  14.722 -0.5903 -1.3629 -0.1609
 4334TIP3   OH234492   6.786   3.645  11.960  0.5534  0.8783 -0.1729
 4334TIP3    H134493   6.876   3.674  11.947  0.5755  0.1306 -2.0787
 4334TIP3    H234494   6.754   3.627  11.871 -1.1825  0.2697  0.5333
 4335TIP3   OH234495   4.246   5.753  11.803 -0.2947  0.3695  0.1237
 4335TIP3    H134496   4.307   5.817  11.766  1.9342 -1.1819  0.9112
 4335TIP3    H234497   4.239   5.776  11.895 -0.1816  0.0087  0.2252
 4336TIP3   OH234498   4.787   4.480  16.912  0.1799 -0.4629  0.2123
 4336TIP3    H134499   4.847   4.555  16.909 -0.9249  0.4548  0.0088
 4336TIP3    H234500   4.732   4.496  16.989  0.3075 -1.3778  0.5051
 4337TIP3   OH234501   2.966   0.185   1.061 -0.1328 -0.3348 -0.2269
 4337TIP3    H134502   3.034   0.250   1.078 -0.7995  0.5972 -1.0016
 4337TIP3    H234503   2.923   0.171   1.145  0.1476  0.0869 -0.0162
 4338TIP3   OH234504   5.718   2.765   2.643  0.3364  0.6574 -0.7566
 4338TIP3    H134505   5.656   2.767   2.570 -0.1800  1.6159 -0.3088
 4338TIP3    H234506   5.792   2.818   2.612 -0.0954  1.4820 -0.4205
 4339TIP3   OH234507   1.124   3.897  13.009  0.4990  0.5305 -0.5893
 4339TIP3    H134508   1.073   3.950  13.071  0.4182  0.8132 -0.8925
 4339TIP3    H234509   1.183   3.846  13.064 -0.7038 -0.4573 -0.1584
 4340TIP3   OH234510   0.274   0.986   2.601 -0.0782  0.1137  0.3942
 4340TIP3    H134511   0.189   1.028   2.593  1.0488  2.5463  0.2106
 4340TIP3    H234512   0.254   0.893   2.612 -2.7578  0.6863  1.1539
 4341TIP3   OH234513   4.346   5.331   3.476  0.0051  0.1836  0.2985
 4341TIP3    H134514   4.364   5.246   3.437  2.1991  1.0376 -0.6748
 4341TIP3    H234515   4.382   5.325   3.565 -0.9406 -0.2600  0.6724
 4342TIP3   OH234516   6.211   5.027   3.266 -0.8197  0.1571  0.4299
 4342TIP3    H134517   6.206   4.961   3.198  0.8247  0.8819 -0.4344
 4342TIP3    H234518   6.281   4.998   3.324  0.2989  1.3934 -0.2695
 4343TIP3   OH234519   4.718   1.092   1.174 -0.2434  0.0384  0.1352
 4343TIP3    H134520   4.749   1.122   1.260 -0.0579  0.6922 -0.1485
 4343TIP3    H234521   4.624   1.108   1.176 -0.1541  0.5995  0.0090
 4344TIP3   OH234522   2.188   6.567   0.751  0.0880 -0.0213 -0.7623
 4344TIP3    H134523   2.093   6.578   0.756  0.0408 -0.7693  0.4375
 4344TIP3    H234524   2.219   6.592   0.838  1.0489  0.6042 -1.2714
 4345TIP3   OH234525   1.703   0.221  15.051  0.1175  0.1572  0.3833
 4345TIP3    H134526   1.777   0.239  14.992 -0.0894  2.3988  0.7129
 4345TIP3    H234527   1.670   0.136  15.022  3.1377 -1.2155  0.5806
 4346TIP3   OH234528   1.072   1.620  15.718  0.2509  0.1215  0.0865
 4346TIP3    H134529   1.089   1.592  15.808  3.4870 -0.4060 -0.5779
 4346TIP3    H234530   1.086   1.714  15.719  1.3559 -0.0275 -0.0316
 4347TIP3   OH234531   3.625   5.658   4.856  0.5998 -0.0269  0.1019
 4347TIP3    H134532   3.654   5.675   4.766 -0.8046  2.4082 -0.0063
 4347TIP3    H234533   3.531   5.644   4.848  0.5250 -0.2036  1.1630
 4348TIP3   OH234534   6.235   1.507   5.724 -0.0746  0.2349  0.0353
 4348TIP3    H134535   6.234   1.597   5.691 -1.3734  0.0952 -0.3405
 4348TIP3    H234536   6.325   1.477   5.709  0.6417  1.7556  1.0023
 4349TIP3   OH234537   0.511   1.123   2.725  0.3265 -0.5298 -0.0466
 4349TIP3    H134538   0.426   1.080   2.719 -0.0493  0.1606  0.2967
 4349TIP3    H234539   0.544   1.122   2.635  0.0158 -0.9111 -0.1604
 4350TIP3   OH234540   5.020   0.118   4.567 -0.5218  0.5583 -0.2954
 4350TIP3    H134541   4.927   0.109   4.546 -0.5600  0.6793 -0.1747
 4350TIP3    H234542   5.026   0.096   4.660 -0.7611  2.7359  0.2771
 4351TIP3   OH234543   5.937   5.821   0.200  0.0720  0.1783  0.2531
 4351TIP3    H134544   5.912   5.914   0.202  2.1339  0.7790  1.9422
 4351TIP3    H234545   5.854   5.774   0.214 -0.9930  1.7336 -0.5245
 4352TIP3   OH234546   0.388   2.004   0.127  0.1351  0.1538  0.1415
 4352TIP3    H134547   0.473   1.974   0.096 -0.0932  1.9062 -2.5214
 4352TIP3    H234548   0.405   2.040   0.214  2.1358  0.5173 -0.3628
 4353TIP3   OH234549   5.804   6.179  12.220 -0.6152 -0.2684  0.1600
 4353TIP3    H134550   5.808   6.090  12.187 -1.7542  0.5408 -2.4722
 4353TIP3    H234551   5.872   6.184  12.287 -0.3969 -3.0132  0.2433
 4354TIP3   OH234552   4.135   3.780  12.461 -0.3828  0.1108  0.0941
 4354TIP3    H134553   4.099   3.701  12.501  0.5347  0.4719  1.6886
 4354TIP3    H234554   4.114   3.851  12.522  0.1275  0.8609 -0.5705
 4355TIP3   OH234555   4.105   5.968  12.928  0.0908  0.0546 -0.2241
 4355TIP3    H134556   4.197   5.987  12.910 -0.1259  0.1639 -1.2569
 4355TIP3    H234557   4.059   6.050  12.909  0.0473  0.8829  2.8515
 4356TIP3   OH234558   4.431   1.068  12.502  0.6746  0.1858  0.4522
 4356TIP3    H134559   4.527   1.062  12.500  0.5509 -2.2743 -0.0256
 4356TIP3    H234560   4.414   1.163  12.501  3.0483  0.7054 -1.4985
 4357TIP3   OH234561   3.105   6.260   1.315  0.6818  0.0431  0.0745
 4357TIP3    H134562   3.127   6.329   1.253  0.6210  1.0785  1.1832
 4357TIP3    H234563   3.015   6.277   1.341  1.3027  0.7730  1.8786
 4358TIP3   OH234564   2.315   1.403  14.604 -0.2928  0.0993  0.1606
 4358TIP3    H134565   2.265   1.450  14.537  1.6521  0.3353 -1.1987
 4358TIP3    H234566   2.333   1.468  14.671 -1.3738  0.1194  0.4560
 4359TIP3   OH234567   2.677   4.220   1.109 -0.1923 -0.4421 -0.0253
 4359TIP3    H134568   2.772   4.231   1.112 -0.3685  1.3571 -0.2324
 4359TIP3    H234569   2.664   4.125   1.099  1.5136 -0.9705  2.0863
 4360TIP3   OH234570   6.339   4.891   0.530  0.4890 -0.4566  0.0303
 4360TIP3    H134571   6.429   4.908   0.556  0.3670 -0.9259  0.7949
 4360TIP3    H234572   6.316   4.810   0.576  0.2385 -1.2770 -1.4921
 4361TIP3   OH234573   6.281   2.584  14.449  0.1545 -0.0870 -0.1583
 4361TIP3    H134574   6.342   2.587  14.376 -0.2489 -0.8974 -0.5504
 4361TIP3    H234575   6.282   2.672  14.486  1.2179  0.0201 -0.4318
 4362TIP3   OH234576   0.399   2.357   5.963  0.2894  0.4202  0.3008
 4362TIP3    H134577   0.357   2.402   6.036  0.8173  0.3587  0.6427
 4362TIP3    H234578   0.370   2.266   5.970 -0.3391  0.5792 -0.0722
 4363TIP3   OH234579   2.830   0.619  13.453 -0.3466  0.0665  0.2178
 4363TIP3    H134580   2.774   0.697  13.450  0.1177  0.4014  0.0167
 4363TIP3    H234581   2.806   0.569  13.375  0.3223  0.7081 -0.4218
 4364TIP3   OH234582   6.275   6.436  13.832 -0.3365 -0.2498  0.2547
 4364TIP3    H134583   6.249   6.359  13.782  2.0128 -0.5070 -0.7093
 4364TIP3    H234584   6.300   6.402  13.918 -0.2395 -0.4212  0.1576
 4365TIP3   OH234585   2.558   1.736   1.893 -0.2128 -0.0643  0.1933
 4365TIP3    H134586   2.559   1.825   1.858  0.5649 -0.8781 -2.0897
 4365TIP3    H234587   2.475   1.700   1.863 -0.7470  0.0237  1.5324
 4366TIP3   OH234588   1.405   6.556   0.136  0.1636 -0.6274  0.1114
 4366TIP3    H134589   1.410   6.489   0.204  1.3902 -1.1242 -0.4465
 4366TIP3    H234590   1.428   6.510   0.055 -2.6416 -0.3909 -0.9295
 4367TIP3   OH234591   5.801   5.648  15.884  0.4424  0.0855  0.9509
 4367TIP3    H134592   5.854   5.581  15.927 -0.8134 -1.5702  0.0163
 4367TIP3    H234593   5.832   5.648  15.793 -1.5201 -1.3939  0.2194
 4368TIP3   OH234594   3.603   3.535   4.130  0.6008 -0.3071  0.1625
 4368TIP3    H134595   3.687   3.489   4.129  0.5120 -0.5514 -1.9479
 4368TIP3    H234596   3.592   3.564   4.039 -0.5674  1.6530  0.8825
 4369TIP3   OH234597   2.762   4.844  10.622  0.2712 -0.5702 -1.1377
 4369TIP3    H134598   2.850   4.876  10.636  0.3040 -0.9596 -0.3843
 4369TIP3    H234599   2.731   4.890  10.544  0.8827  0.0816 -1.0010
 4370TIP3   OH234600   6.816   3.417   2.889 -0.1345 -0.2870  0.4399
 4370TIP3    H134601   6.888   3.401   2.950  0.7615 -0.5137 -0.6445
 4370TIP3    H234602   6.793   3.509   2.903  0.1656 -0.2964  1.0109
 4371TIP3   OH234603   3.920   2.812  14.675 -0.2843 -0.3914 -0.5068
 4371TIP3    H134604   3.898   2.891  14.724 -0.7973 -0.3385 -0.8223
 4371TIP3    H234605   3.835   2.773  14.653 -0.0798 -0.0331 -1.9784
 4372TIP3   OH234606   4.922   3.192   0.317  0.6620  0.2411  0.4477
 4372TIP3    H134607   4.848   3.212   0.374  1.6971  0.3160  1.7988
 4372TIP3    H234608   4.893   3.115   0.267 -0.7444  0.9558  0.1274
 4373TIP3   OH234609   3.540   4.289   5.052  0.3196 -0.1512 -0.3293
 4373TIP3    H134610   3.631   4.290   5.023 -0.0095 -0.0363 -1.4332
 4373TIP3    H234611   3.507   4.376   5.028  0.3440  0.4049  1.5401
 4374TIP3   OH234612   3.689   1.147  15.142 -0.0182 -0.2913  0.1686
 4374TIP3    H134613   3.633   1.075  15.170  0.1617 -0.4187  0.1980
 4374TIP3    H234614   3.688   1.208  15.216 -0.4499 -0.0952  0.0093
 4375TIP3   OH234615   1.648   6.801   2.239  0.0885 -0.0679 -0.6320
 4375TIP3    H134616   1.580   6.748   2.281  0.2985 -0.2110 -0.4760
 4375TIP3    H234617   1.729   6.752   2.251 -0.0553 -0.8244 -2.4261
 4376TIP3   OH234618   1.724   2.019   1.390  0.4867  0.5650 -0.1297
 4376TIP3    H134619   1.689   1.935   1.418 -1.5321  1.4913  0.2773
 4376TIP3    H234620   1.819   2.005   1.387  0.1678 -1.9238 -0.8338
 4377TIP3   OH234621   1.980   3.419   4.268 -0.1621  0.1976  0.1561
 4377TIP3    H134622   1.892   3.445   4.241 -0.7043 -1.8484 -0.2025
 4377TIP3    H234623   1.997   3.471   4.347 -2.0262  0.0708  0.6860
 4378TIP3   OH234624   1.130   6.809  13.011  0.0511 -0.0296  0.5556
 4378TIP3    H134625   1.118   6.902  12.993  1.1908  0.6629  2.9440
 4378TIP3    H234626   1.224   6.798  13.017 -0.0906 -1.2494  0.7588
 4379TIP3   OH234627   5.157   6.496  15.227  0.1721  0.1913  0.3405
 4379TIP3    H134628   5.091   6.431  15.202  0.5576 -0.0547 -0.0366
 4379TIP3    H234629   5.217   6.448  15.283 -0.2028  0.5244  1.0457
 4380TIP3   OH234630   6.420   4.945   1.495  0.3745  0.2377  0.8194
 4380TIP3    H134631   6.341   4.905   1.531  1.2695 -1.0882  1.4140
 4380TIP3    H234632   6.463   4.985   1.571  0.3405  0.8840  0.5129
 4381TIP3   OH234633   4.557   4.051   4.132  0.2198  0.1457  0.0200
 4381TIP3    H134634   4.522   3.990   4.067  0.4391  1.0346 -0.9615
 4381TIP3    H234635   4.545   4.137   4.093  1.5051  0.6248  0.6022
 4382TIP3   OH234636   6.109   0.458  10.649 -0.2491  0.5409 -0.2884
 4382TIP3    H134637   6.193   0.471  10.606 -0.5254 -1.0182 -1.4039
 4382TIP3    H234638   6.071   0.545  10.657  0.3151  0.9950 -2.1963
 4383TIP3   OH234639   0.668   5.372   6.273  0.4143  0.2203  0.5475
 4383TIP3    H134640   0.741   5.319   6.241 -0.4789 -2.1178  2.1170
 4383TIP3    H234641   0.691   5.393   6.363 -0.5101  0.0419  0.8363
 4384TIP3   OH234642   4.093   1.392   2.802  0.1947 -0.2616  0.3304
 4384TIP3    H134643   4.033   1.465   2.787  0.6387  0.6654  2.7451
 4384TIP3    H234644   4.148   1.390   2.724 -1.4306  0.3451 -0.8921
 4385TIP3   OH234645   5.896   5.964   4.624 -0.3288  0.1986 -0.4055
 4385TIP3    H134646   5.879   5.898   4.557 -2.0804 -1.0184  1.1268
 4385TIP3    H234647   5.850   5.932   4.702  0.4909  2.2138  1.0108
 4386TIP3   OH234648   0.921   3.878  12.490 -0.2358  0.2311 -0.3643
 4386TIP3    H134649   0.931   3.962  12.444 -0.5316  0.2474 -0.4022
 4386TIP3    H234650   0.996   3.826  12.461  0.4122  0.7765  0.3109
 4387TIP3   OH234651   3.289   2.018  11.160 -0.1384  0.2144 -0.8524
 4387TIP3    H134652   3.256   2.010  11.249 -0.8823  1.6403 -0.9677
 4387TIP3    H234653   3.210   2.024  11.106  0.2039  3.1344 -1.1883
 4388TIP3   OH234654   0.229   4.200  13.275  0.3533 -0.1513  0.0732
 4388TIP3    H134655   0.243   4.237  13.362 -2.7615  1.3482  0.0844
 4388TIP3    H234656   0.276   4.260  13.216  0.5011  0.2070  0.5433
 4389TIP3   OH234657   4.666   0.302  11.699  0.3554 -0.1230  0.3960
 4389TIP3    H134658   4.676   0.241  11.772  0.6626 -0.2576  0.2428
 4389TIP3    H234659   4.572   0.317  11.694  0.4550  1.6006  2.2342
 4390TIP3   OH234660   2.307   2.655   5.800  0.2210 -0.5116  0.2287
 4390TIP3    H134661   2.267   2.738   5.778  0.5712 -0.3181  0.3068
 4390TIP3    H234662   2.237   2.591   5.792  0.1277 -0.3214 -0.5704
 4391TIP3   OH234663   2.969   4.697  13.786  0.2569  0.0062  0.2574
 4391TIP3    H134664   3.058   4.679  13.816 -0.2611 -2.2354  0.6323
 4391TIP3    H234665   2.913   4.670  13.859 -0.7961 -0.5643 -0.7275
 4392TIP3   OH234666   5.063   1.280  12.678  0.0907 -0.3777  0.3947
 4392TIP3    H134667   5.039   1.189  12.696  0.0505  0.0259  2.5984
 4392TIP3    H234668   5.000   1.309  12.612  0.7991 -2.2350 -1.2145
 4393TIP3   OH234669   6.251   4.891   2.207  0.6966  0.2646  0.2518
 4393TIP3    H134670   6.198   4.848   2.139  1.3419 -0.0863 -0.0422
 4393TIP3    H234671   6.341   4.873   2.181  0.9616  0.9711  0.6736
 4394TIP3   OH234672   4.007   2.552   3.145 -0.4144 -0.0273 -0.4092
 4394TIP3    H134673   3.944   2.611   3.187 -1.2357  0.1954 -1.8712
 4394TIP3    H234674   4.001   2.470   3.195  1.4973  1.3380  2.3207
 4395TIP3   OH234675   0.555   1.137  17.033 -0.2176 -0.4453 -0.7227
 4395TIP3    H134676   0.496   1.122  17.107 -0.1793 -0.0056 -0.6033
 4395TIP3    H234677   0.642   1.114  17.067 -0.3696 -1.5318 -1.0375
 4396TIP3   OH234678   2.413   1.016   0.050  0.6310 -0.4926 -0.2102
 4396TIP3    H134679   2.490   1.061   0.085  1.5386 -2.2199  0.1751
 4396TIP3    H234680   2.423   0.925   0.080 -1.8739 -0.6598  0.3310
 4397TIP3   OH234681   6.799   0.451  11.452  0.4996  0.1797 -0.0547
 4397TIP3    H134682   6.771   0.491  11.370 -0.6533  0.2005  0.3257
 4397TIP3    H234683   6.746   0.495  11.519  1.7700  0.5190  0.7603
 4398TIP3   OH234684   5.518   5.101  12.191  0.1569  0.3019 -0.1252
 4398TIP3    H134685   5.504   5.122  12.099 -0.7033 -0.7629 -0.2652
 4398TIP3    H234686   5.598   5.049  12.192  1.0482  1.6431 -0.0550
 4399TIP3   OH234687   6.347   1.434  13.850  0.0817 -0.1613 -0.1152
 4399TIP3    H134688   6.280   1.440  13.918  0.7061 -2.1356  0.7678
 4399TIP3    H234689   6.428   1.419  13.899  0.3956 -2.7118 -1.2631
 4400TIP3   OH234690   5.727   2.910   0.228 -0.3342 -0.0800  0.1589
 4400TIP3    H134691   5.822   2.906   0.243 -0.3093  2.4908  1.0117
 4400TIP3    H234692   5.718   2.947   0.140 -0.5656  0.2407  0.3190
 4401TIP3   OH234693   1.636   1.828  16.495 -0.5282  0.1498 -0.6275
 4401TIP3    H134694   1.626   1.922  16.510  2.3377  0.6460 -1.1631
 4401TIP3    H234695   1.640   1.790  16.583 -1.2640  0.5628 -0.4037
 4402TIP3   OH234696   2.040   5.577  16.304 -0.4514  0.0635  0.0716
 4402TIP3    H134697   2.076   5.620  16.381 -2.1836  0.6901  0.5834
 4402TIP3    H234698   1.954   5.618  16.292 -0.9889 -1.3211 -1.0955
 4403TIP3   OH234699   1.303   4.321   4.494  0.0860 -0.8703 -0.3408
 4403TIP3    H134700   1.221   4.313   4.445 -0.9254  0.6187  0.9931
 4403TIP3    H234701   1.301   4.250   4.557  0.1820 -1.2753 -0.7912
 4404TIP3   OH234702   2.860   4.300   5.815  0.1025 -0.2168  0.2204
 4404TIP3    H134703   2.823   4.381   5.851 -0.2108 -0.7803  1.1766
 4404TIP3    H234704   2.954   4.317   5.811  0.1864 -0.2515  1.6186
 4405TIP3   OH234705   5.622   2.329   3.731  0.0650  0.1624  0.1404
 4405TIP3    H134706   5.631   2.330   3.826 -0.6050 -0.1557  0.2104
 4405TIP3    H234707   5.711   2.313   3.699  0.9759  3.5851  0.5845
 4406TIP3   OH234708   0.603   6.230  12.185 -0.0949  0.1693  0.2711
 4406TIP3    H134709   0.596   6.283  12.106  2.9920  0.2856 -0.0550
 4406TIP3    H234710   0.619   6.141  12.153  2.3702  0.4086  0.6318
 4407TIP3   OH234711   1.113   2.267  12.915 -0.3705  0.1517  0.0107
 4407TIP3    H134712   1.187   2.212  12.943 -1.7083 -0.1453  3.3751
 4407TIP3    H234713   1.052   2.265  12.989 -2.0176  3.5412 -1.0749
 4408TIP3   OH234714   2.988   5.083   3.628 -0.2386  1.0608 -0.2309
 4408TIP3    H134715   2.948   5.049   3.548  0.7331  1.1795 -0.7882
 4408TIP3    H234716   3.082   5.069   3.615 -0.1022  0.5832  1.1279
 4409TIP3   OH234717   4.326   0.321  12.414  0.2889 -0.3227  0.3011
 4409TIP3    H134718   4.244   0.365  12.437  2.3093  2.8434  2.2926
 4409TIP3    H234719   4.336   0.253  12.480 -0.6655 -0.6359  0.1319
 4410TIP3   OH234720   4.578   2.679  14.405  0.1562  0.1832  0.5763
 4410TIP3    H134721   4.662   2.690  14.450 -0.0982 -0.7118  1.2946
 4410TIP3    H234722   4.531   2.761  14.420  0.2954  0.1005  1.4840
 4411TIP3   OH234723   3.543   3.283  17.006  0.1158 -0.4619  0.3062
 4411TIP3    H134724   3.486   3.216  16.967 -0.0925 -0.2983  0.3262
 4411TIP3    H234725   3.520   3.283  17.099 -0.8520  0.5785  0.0853
 4412TIP3   OH234726   4.346   0.796  12.197 -0.2160  1.1494 -0.0854
 4412TIP3    H134727   4.276   0.832  12.143  0.5101  1.9398 -0.5217
 4412TIP3    H234728   4.424   0.847  12.174  0.6953 -0.2263 -0.2065
 4413TIP3   OH234729   2.183   2.288  11.552 -0.7084 -0.0700  0.0846
 4413TIP3    H134730   2.258   2.229  11.541  0.2989  1.2842 -0.6198
 4413TIP3    H234731   2.125   2.242  11.613  0.9926 -0.8612  1.1703
 4414TIP3   OH234732   4.093   0.400   1.636 -0.4196 -1.1464  0.2247
 4414TIP3    H134733   4.047   0.481   1.616 -0.5582 -1.4320 -0.6647
 4414TIP3    H234734   4.178   0.408   1.593 -0.1517 -1.1858  0.7303
 4415TIP3   OH234735   0.558   3.872  16.819 -0.6193 -0.1470  0.1568
 4415TIP3    H134736   0.529   3.956  16.784 -0.3497 -0.3379 -0.5478
 4415TIP3    H234737   0.486   3.812  16.800 -0.9285 -0.0188  0.9090
 4416TIP3   OH234738   1.327   3.903   6.216 -0.0157 -0.3233 -0.7501
 4416TIP3    H134739   1.423   3.900   6.215 -0.0278 -0.9539 -2.1982
 4416TIP3    H234740   1.305   3.921   6.307  1.5121  1.2192 -0.6279
 4417TIP3   OH234741   1.694   3.491   3.882 -0.3123  0.4632  0.0073
 4417TIP3    H134742   1.628   3.535   3.935  0.9405  0.8186  1.3440
 4417TIP3    H234743   1.645   3.450   3.811 -1.8953  1.1130  0.6857
 4418TIP3   OH234744   2.238   2.019   2.277  0.1441 -0.3557  0.3513
 4418TIP3    H134745   2.248   1.969   2.358  0.4067 -0.2136  0.4042
 4418TIP3    H234746   2.302   1.981   2.217  1.9002  1.3502  1.0723
 4419TIP3   OH234747   5.316   2.463  15.944  0.2703 -0.1487  0.0739
 4419TIP3    H134748   5.294   2.556  15.937  0.8876  0.3116  3.0490
 4419TIP3    H234749   5.248   2.426  16.001  1.5510 -0.8713  1.1957
 4420TIP3   OH234750   3.009   3.597   1.047 -0.2802 -0.3813 -0.3422
 4420TIP3    H134751   3.065   3.662   1.003 -2.8937  0.9712 -1.9478
 4420TIP3    H234752   2.955   3.562   0.976 -2.2483 -0.7497  1.2717
 4421TIP3   OH234753   3.406   2.600   2.735 -0.3668 -0.0087 -0.1276
 4421TIP3    H134754   3.395   2.559   2.821  2.4816  1.3264  0.9988
 4421TIP3    H234755   3.450   2.683   2.754  0.4719  0.2570 -2.8774
 4422TIP3   OH234756   6.394   4.669  12.154 -0.1080 -0.1804 -0.5627
 4422TIP3    H134757   6.364   4.619  12.078  0.1993 -0.0913 -0.7468
 4422TIP3    H234758   6.476   4.710  12.124  1.1476 -1.8267  0.4499
 4423TIP3   OH234759   0.535   0.618   1.306 -0.4382 -0.0509 -0.1232
 4423TIP3    H134760   0.477   0.543   1.318 -0.8900  0.6365  2.8307
 4423TIP3    H234761   0.483   0.680   1.255 -1.8734 -0.0022  1.2913
 4424TIP3   OH234762   6.128   5.423   1.741  0.4859 -0.3038 -0.0851
 4424TIP3    H134763   6.173   5.340   1.726  0.7000 -0.2734  0.3605
 4424TIP3    H234764   6.057   5.424   1.677  0.2180 -1.0300  0.1938
 4425TIP3   OH234765   5.491   1.191  12.839 -0.4185 -0.0972  0.3127
 4425TIP3    H134766   5.552   1.239  12.895  0.5021  0.1295 -0.8364
 4425TIP3    H234767   5.547   1.149  12.773 -1.5872  1.6792 -1.9556
 4426TIP3   OH234768   1.334   5.148  14.966  0.0196  0.0172  0.1022
 4426TIP3    H134769   1.407   5.201  14.933  1.0251 -2.2365 -1.5859
 4426TIP3    H234770   1.260   5.172  14.910 -0.1220  1.1788  0.7771
 4427TIP3   OH234771   3.335   0.515  12.728 -0.6393 -0.0764  0.0497
 4427TIP3    H134772   3.346   0.432  12.682 -0.7023 -0.5381  0.8624
 4427TIP3    H234773   3.240   0.531  12.726 -0.4334  1.3811 -2.5172
 4428TIP3   OH234774   2.365   0.956   1.452 -0.0036 -0.1239  0.8339
 4428TIP3    H134775   2.281   0.993   1.479 -1.1150 -0.3691 -1.9083
 4428TIP3    H234776   2.345   0.866   1.427  1.6198 -0.9841  2.3977
 4429TIP3   OH234777   0.260   1.442   2.535 -0.3998  0.2566  0.2852
 4429TIP3    H134778   0.296   1.500   2.468 -0.0586  0.0984  0.3285
 4429TIP3    H234779   0.239   1.500   2.609 -0.6358  0.4094  0.0990
 4430TIP3   OH234780   1.385   4.377   2.532 -0.0484  0.6228  0.8318
 4430TIP3    H134781   1.426   4.401   2.615  0.0336  0.9401  0.7038
 4430TIP3    H234782   1.440   4.308   2.496 -0.3873  0.1048  1.2919
 4431TIP3   OH234783   1.543   6.006  15.272 -0.0159 -1.1643 -0.2284
 4431TIP3    H134784   1.583   6.018  15.359  1.4366  0.3778 -1.0509
 4431TIP3    H234785   1.493   5.925  15.280  0.4320 -1.2997  1.9187
 4432TIP3   OH234786   4.794   3.536   5.566  0.0904 -0.4170  0.6151
 4432TIP3    H134787   4.758   3.509   5.481 -2.1743 -0.1721  1.4475
 4432TIP3    H234788   4.719   3.568   5.616  1.5735  0.6894  2.2707
 4433TIP3   OH234789   1.669   2.354  16.264 -0.1337 -0.1583  0.2860
 4433TIP3    H134790   1.621   2.399  16.195  0.9989 -0.9737 -1.0901
 4433TIP3    H234791   1.635   2.265  16.263 -0.1163 -0.1710  0.7809
 4434TIP3   OH234792   0.845   1.053  11.207 -0.0165 -0.4540  0.6108
 4434TIP3    H134793   0.924   1.071  11.157 -0.2069 -0.7232  0.2069
 4434TIP3    H234794   0.774   1.059  11.143 -0.1423 -2.2132  0.5208
 4435TIP3   OH234795   6.148   0.819  15.216  0.5699 -0.4933 -0.0406
 4435TIP3    H134796   6.127   0.726  15.227  0.7298 -0.4899  0.3119
 4435TIP3    H234797   6.219   0.821  15.153 -0.0240 -0.5508 -0.7285
 4436TIP3   OH234798   5.543   5.863  12.906  0.4445  0.1011 -0.3355
 4436TIP3    H134799   5.526   5.817  12.824 -0.7766  2.7287 -1.6697
 4436TIP3    H234800   5.608   5.929  12.885 -0.3452  1.2392  0.6272
 4437TIP3   OH234801   6.217   0.172   1.032  0.0837 -0.6038  0.0610
 4437TIP3    H134802   6.296   0.129   1.066 -0.2445 -1.1951  0.0958
 4437TIP3    H234803   6.147   0.109   1.049  0.1862 -1.9715 -3.5953
 4438TIP3   OH234804   0.078   5.825   2.876 -1.0045 -0.1116  0.3530
 4438TIP3    H134805   0.003   5.851   2.824  0.6357  2.7145 -0.8109
 4438TIP3    H234806   0.068   5.873   2.958 -0.2356  0.7553 -0.0391
 4439TIP3   OH234807   3.040   1.915  15.977 -0.2644 -0.4592  0.1330
 4439TIP3    H134808   3.013   1.965  15.900 -1.9312 -0.9733  0.3348
 4439TIP3    H234809   2.996   1.830  15.966 -0.2739 -0.6436  1.5027
 4440TIP3   OH234810   2.685   5.290   0.831 -0.1552  0.1638 -0.1621
 4440TIP3    H134811   2.729   5.205   0.828  1.5581  1.0349 -0.8002
 4440TIP3    H234812   2.756   5.354   0.833 -1.3655  1.6833 -2.1468
 4441TIP3   OH234813   1.855   4.574   1.936  0.2957  0.0010 -0.1046
 4441TIP3    H134814   1.876   4.633   2.008  1.1347  1.1907 -1.2742
 4441TIP3    H234815   1.794   4.624   1.881 -1.7739 -1.5541  0.6486
 4442TIP3   OH234816   0.486   0.271   1.579 -0.1677 -0.4289 -0.1186
 4442TIP3    H134817   0.538   0.191   1.573 -1.2042 -1.1342  0.0444
 4442TIP3    H234818   0.505   0.318   1.497  0.9692 -0.5031  0.0900
 4443TIP3   OH234819   4.129   2.469  10.689 -0.3244 -0.0816 -0.2557
 4443TIP3    H134820   4.071   2.491  10.616  1.4664  1.0010 -1.4254
 4443TIP3    H234821   4.146   2.553  10.732  1.6008 -0.0815 -0.9240
 4444TIP3   OH234822   4.353   3.517   2.318  0.0190  0.7317 -0.4220
 4444TIP3    H134823   4.257   3.515   2.323 -0.0269 -1.0672 -1.3671
 4444TIP3    H234824   4.372   3.595   2.265 -0.7411  2.5966  1.8815
 4445TIP3   OH234825   5.543   6.703   5.351 -0.0064  0.5341  0.3696
 4445TIP3    H134826   5.627   6.747   5.337 -0.2947  1.2208  0.7923
 4445TIP3    H234827   5.499   6.754   5.418 -0.4718 -0.2329  0.6657
 4446TIP3   OH234828   1.993   5.313  12.279  0.7261  0.4413  0.3429
 4446TIP3    H134829   2.058   5.291  12.211  0.6405 -0.6276  0.5811
 4446TIP3    H234830   2.033   5.284  12.361  0.3465  0.6701  0.6118
 4447TIP3   OH234831   0.428   6.417   0.970 -0.2474  0.2627  0.2054
 4447TIP3    H134832   0.501   6.429   0.909  0.4334 -0.5824  0.8159
 4447TIP3    H234833   0.369   6.358   0.924 -0.2866  0.5226 -0.0818
 4448TIP3   OH234834   4.259   0.777   3.002 -0.6692  0.1093 -0.2882
 4448TIP3    H134835   4.233   0.758   2.912  2.0752 -1.3026 -0.8725
 4448TIP3    H234836   4.323   0.848   2.993 -2.2663  1.7990  0.8695
 4449TIP3   OH234837   0.201   1.158  14.916  0.3961 -0.0595 -0.3081
 4449TIP3    H134838   0.244   1.243  14.911 -0.1008  0.1516 -1.3681
 4449TIP3    H234839   0.273   1.095  14.923  0.7325  0.4918  1.7790
 4450TIP3   OH234840   2.300   4.319  11.600  0.2499 -0.1280 -0.0079
 4450TIP3    H134841   2.320   4.230  11.630  0.2364  0.0522  0.5516
 4450TIP3    H234842   2.208   4.331  11.623  0.5057  0.3677  0.7884
 4451TIP3   OH234843   3.697   4.347  13.738  0.1496  0.2294  0.1231
 4451TIP3    H134844   3.664   4.427  13.696 -0.4196  1.1799  2.2284
 4451TIP3    H234845   3.619   4.308  13.779  0.5046 -1.1903 -0.5181
 4452TIP3   OH234846   3.427   2.904  14.193  0.1995  0.1715 -0.2017
 4452TIP3    H134847   3.454   2.970  14.129  1.6014 -0.1131  0.0729
 4452TIP3    H234848   3.468   2.823  14.163 -0.5034 -0.3285  0.1471
 4453TIP3   OH234849   6.677   2.754  16.131  0.2118 -0.0717 -0.3272
 4453TIP3    H134850   6.747   2.774  16.068 -1.2900  1.2132 -1.6685
 4453TIP3    H234851   6.599   2.744  16.077 -1.0451  0.5920  1.3050
 4454TIP3   OH234852   5.842   1.810   5.589  0.4288  0.1126  0.2936
 4454TIP3    H134853   5.811   1.899   5.576 -0.9853 -0.2730  0.8560
 4454TIP3    H234854   5.906   1.816   5.660  1.6499  0.9133 -0.8357
 4455TIP3   OH234855   5.907   3.664  14.838 -0.4873  0.3235 -0.9480
 4455TIP3    H134856   5.965   3.741  14.840 -0.8645  0.6086 -0.8887
 4455TIP3    H234857   5.829   3.694  14.793  0.6770 -0.9816 -4.1035
 4456TIP3   OH234858   1.834   5.723  16.582 -0.9392 -0.5397 -0.1219
 4456TIP3    H134859   1.910   5.665  16.582 -1.1448 -0.9035  2.2340
 4456TIP3    H234860   1.859   5.795  16.523  1.8899  0.1046  1.6608
 4457TIP3   OH234861   5.673   4.698   2.115  0.4648 -0.7436  0.0114
 4457TIP3    H134862   5.653   4.607   2.093 -0.4053 -0.5590 -0.0263
 4457TIP3    H234863   5.762   4.696   2.149  0.2304 -1.7055  0.6010
 4458TIP3   OH234864   3.593   0.632  16.988 -0.3937 -0.0739  0.4928
 4458TIP3    H134865   3.666   0.687  16.960  0.2869 -1.3511 -0.3296
 4458TIP3    H234866   3.535   0.629  16.913  0.7576 -2.3819 -0.3974
 4459TIP3   OH234867   0.079   2.050   3.797 -0.6472 -0.2390  0.6015
 4459TIP3    H134868   0.052   1.964   3.828  1.0294 -0.0753  2.6911
 4459TIP3    H234869   0.171   2.057   3.823 -0.3432  1.6305 -0.7932
 4460TIP3   OH234870   4.255   3.558   1.489  0.1575  0.1408 -0.6101
 4460TIP3    H134871   4.195   3.508   1.434 -1.1598 -0.7981  1.5481
 4460TIP3    H234872   4.200   3.627   1.527  0.0289 -1.3966  2.2623
 4461TIP3   OH234873   3.702   2.164   2.524 -0.0532 -0.5569 -0.1612
 4461TIP3    H134874   3.686   2.196   2.436 -1.1938 -2.4741 -0.7069
 4461TIP3    H234875   3.664   2.230   2.582  1.1092  0.9391 -1.0394
 4462TIP3   OH234876   5.721   0.769  13.937  0.0240 -0.4931 -0.0758
 4462TIP3    H134877   5.737   0.723  14.020 -0.3337 -0.4968 -0.0093
 4462TIP3    H234878   5.673   0.706  13.884 -1.8211  0.3074  0.5619
 4463TIP3   OH234879   6.025   4.079   5.292  0.1322  1.1484  0.4681
 4463TIP3    H134880   6.081   4.149   5.326  1.3463  0.7542 -0.6325
 4463TIP3    H234881   6.052   4.069   5.201 -0.8750  0.0734  0.2644
 4464TIP3   OH234882   1.835   4.329  16.727 -0.4525 -0.2012  0.4625
 4464TIP3    H134883   1.780   4.255  16.703 -0.8142  0.2859 -0.2366
 4464TIP3    H234884   1.815   4.396  16.662  1.4877 -0.2603 -0.2436
 4465TIP3   OH234885   5.586   1.622  16.343  0.2918 -0.5616  0.1859
 4465TIP3    H134886   5.563   1.532  16.368 -0.8556 -0.0703  0.9881
 4465TIP3    H234887   5.668   1.639  16.389  0.3766 -1.1102  0.2489
 4466TIP3   OH234888   5.645   1.355  16.044 -0.2760  0.2875  0.1243
 4466TIP3    H134889   5.731   1.361  16.086  0.2811 -0.2548 -0.8709
 4466TIP3    H234890   5.582   1.373  16.113  0.6600  1.3715  0.7316
 4467TIP3   OH234891   6.314   6.054   2.227  0.1415 -0.2373 -1.1267
 4467TIP3    H134892   6.377   5.988   2.197 -1.0221 -1.3579 -1.2011
 4467TIP3    H234893   6.251   6.004   2.278  0.7144  1.2556  1.1626
 4468TIP3   OH234894   4.019   0.355  12.094  0.2460 -0.1312 -0.0562
 4468TIP3    H134895   4.086   0.287  12.094 -1.5322 -1.9447  0.0323
 4468TIP3    H234896   4.064   0.433  12.127  2.1838 -1.3851  0.3824
 4469TIP3   OH234897   0.865   5.606  13.467 -0.0597  0.2165 -0.6470
 4469TIP3    H134898   0.934   5.546  13.437 -1.4667 -1.0319 -1.5123
 4469TIP3    H234899   0.819   5.557  13.535  2.2534  2.5129  2.9052
 4470TIP3   OH234900   0.425   0.784  14.416 -0.1543  0.6501 -0.0439
 4470TIP3    H134901   0.454   0.746  14.499 -0.3195 -0.2328 -0.3806
 4470TIP3    H234902   0.367   0.856  14.441  1.1399  1.4991  0.6178
 4471TIP3   OH234903   3.269   4.229  11.241  0.2042 -0.0973 -0.0612
 4471TIP3    H134904   3.236   4.249  11.154 -0.1739  0.3190  0.1748
 4471TIP3    H234905   3.237   4.140  11.259  0.8342 -0.4450 -0.6034
 4472TIP3   OH234906   1.476   6.462  14.589  0.1141 -0.6023 -0.3085
 4472TIP3    H134907   1.493   6.493  14.678 -0.1366  1.0809 -0.8109
 4472TIP3    H234908   1.381   6.450  14.585  0.1265 -0.6899 -0.3453
 4473TIP3   OH234909   5.110   4.271  14.941  0.3098 -0.1170 -0.0119
 4473TIP3    H134910   5.181   4.236  14.994  0.9899  2.2756  0.7692
 4473TIP3    H234911   5.139   4.359  14.916 -2.1397  0.7373 -0.1324
 4474TIP3   OH234912   2.533   1.420   5.713 -0.4300 -0.7522  0.1245
 4474TIP3    H134913   2.505   1.475   5.786 -0.4844 -0.9731  0.2700
 4474TIP3    H234914   2.565   1.482   5.647  3.2097 -0.6485  1.7559
 4475TIP3   OH234915   1.769   5.481  11.574 -0.0594  0.2641 -0.3376
 4475TIP3    H134916   1.678   5.507  11.591 -1.5160 -2.8596 -2.4835
 4475TIP3    H234917   1.786   5.410  11.636  1.2551  1.2284  0.4821
 4476TIP3   OH234918   4.982   5.749   0.265  0.1394 -0.1113 -0.7212
 4476TIP3    H134919   4.976   5.695   0.344 -0.6587  1.1302  0.0944
 4476TIP3    H234920   5.074   5.741   0.238  0.5270 -0.2375  0.5637
 4477TIP3   OH234921   0.706   4.352   3.593  0.2383  0.2013  0.2023
 4477TIP3    H134922   0.786   4.309   3.561 -0.2032  0.5820 -1.4900
 4477TIP3    H234923   0.724   4.445   3.585 -0.8559  0.2969 -1.5293
 4478TIP3   OH234924   6.790   0.922   2.339  0.2628  0.1331  0.5291
 4478TIP3    H134925   6.811   0.878   2.421 -0.9850  2.1939  2.0714
 4478TIP3    H234926   6.832   1.008   2.346 -0.1403  0.4696 -0.8457
 4479TIP3   OH234927   0.124   0.908  11.044  0.2564  0.0627 -0.1670
 4479TIP3    H134928   0.066   0.884  10.972  0.2932 -2.3678  0.5520
 4479TIP3    H234929   0.193   0.960  11.002 -0.4408 -0.1631 -1.6418
 4480TIP3   OH234930   3.189   4.954   2.730  0.5918 -1.1050 -0.5185
 4480TIP3    H134931   3.104   4.974   2.691  0.3984  0.6849  0.6846
 4480TIP3    H234932   3.169   4.901   2.807  0.6956 -1.8224 -0.9774
 4481TIP3   OH234933   6.326   5.601  13.987 -0.1269 -0.1261 -0.5928
 4481TIP3    H134934   6.334   5.613  13.892 -1.7943  0.5771 -0.6723
 4481TIP3    H234935   6.338   5.688  14.024 -4.7574  0.7526 -0.6232
 4482TIP3   OH234936   4.846   1.609   1.313  0.1236  0.2715 -0.4981
 4482TIP3    H134937   4.751   1.622   1.309  0.1766  1.3702  1.1059
 4482TIP3    H234938   4.882   1.697   1.309  0.9988 -0.0319  0.3904
 4483TIP3   OH234939   0.456   3.496  16.935 -0.1342  0.6970 -0.3601
 4483TIP3    H134940   0.381   3.446  16.903 -1.4675  1.5642  1.2628
 4483TIP3    H234941   0.435   3.587  16.916  0.1528  1.0165  0.7557
 4484TIP3   OH234942   1.259   3.910  13.529  0.3467  1.1569  0.0953
 4484TIP3    H134943   1.345   3.895  13.570  0.0111 -0.3054  0.2912
 4484TIP3    H234944   1.265   3.866  13.444 -0.0662  1.4181 -0.0707
 4485TIP3   OH234945   4.233   1.064  13.482  0.6585 -0.1244  0.1253
 4485TIP3    H134946   4.278   1.106  13.555  0.6731 -0.1226  0.1159
 4485TIP3    H234947   4.155   1.026  13.521  1.7108 -1.9603  0.5773
 4486TIP3   OH234948   5.831   4.578  13.191 -0.8087  0.4178  0.5662
 4486TIP3    H134949   5.825   4.562  13.096  0.8540 -0.9930  0.6480
 4486TIP3    H234950   5.774   4.512  13.230 -0.0926 -0.1870  0.6033
 4487TIP3   OH234951   1.825   3.361  16.083  0.3929  0.3368  0.1648
 4487TIP3    H134952   1.902   3.388  16.134  0.1979 -1.1904  1.3733
 4487TIP3    H234953   1.764   3.328  16.149 -0.9872  0.7668 -0.8554
 4488TIP3   OH234954   6.724   5.664   2.007 -0.7530 -0.8919  0.4862
 4488TIP3    H134955   6.759   5.753   2.013 -1.7071 -0.2516 -2.1441
 4488TIP3    H234956   6.659   5.659   2.077 -1.9729  1.1570 -0.4270
 4489TIP3   OH234957   5.500   5.038  14.900 -0.1230 -0.4090 -0.0317
 4489TIP3    H134958   5.514   5.116  14.954 -0.2421 -0.9924  0.8609
 4489TIP3    H234959   5.441   4.983  14.952 -0.2990 -0.9516 -0.7915
 4490TIP3   OH234960   6.765   2.120   4.861 -0.1523  0.0316 -0.0937
 4490TIP3    H134961   6.712   2.198   4.879  1.1590  0.7515  0.8321
 4490TIP3    H234962   6.708   2.064   4.810 -1.1587  1.5749 -0.7478
 4491TIP3   OH234963   1.653   0.022   0.230  0.5734  0.3470 -0.3718
 4491TIP3    H134964   1.579   0.028   0.170 -1.5019  2.0546  2.1781
 4491TIP3    H234965   1.693  -0.063   0.210 -1.9488 -0.5593 -1.9980
 4492TIP3   OH234966   5.160   4.595  13.831 -0.0366  0.4191 -0.5429
 4492TIP3    H134967   5.130   4.677  13.794 -0.1013  0.6751  0.0735
 4492TIP3    H234968   5.228   4.620  13.894 -1.7131  0.2102  1.4319
 4493TIP3   OH234969   5.313   0.792  11.278 -0.4924 -0.8690  0.1906
 4493TIP3    H134970   5.237   0.747  11.317  0.1439 -1.5817  0.6461
 4493TIP3    H234971   5.389   0.747  11.316  0.1546 -0.4993 -0.6429
 4494TIP3   OH234972   3.682   2.639  17.078 -0.2712  0.5275  0.3316
 4494TIP3    H134973   3.769   2.608  17.053 -0.7623  1.3549 -2.9646
 4494TIP3    H234974   3.629   2.559  17.085  0.1515  0.1417 -0.5897
 4495TIP3   OH234975   5.935   2.890   5.244  0.0156  0.7361 -0.6187
 4495TIP3    H134976   5.963   2.883   5.153  0.2084  3.9191 -0.9337
 4495TIP3    H234977   5.844   2.921   5.238  0.3594  1.9722  0.2136
 4496TIP3   OH234978   3.931   5.469   1.706 -0.2234 -0.0010 -0.3221
 4496TIP3    H134979   3.879   5.398   1.743 -1.2480  0.2429 -1.2376
 4496TIP3    H234980   3.868   5.522   1.657  0.6394  1.1652 -0.2133
 4497TIP3   OH234981   1.023   0.435  12.144 -0.0816  0.0491 -0.3657
 4497TIP3    H134982   0.940   0.387  12.148 -0.2524  0.2316 -1.4983
 4497TIP3    H234983   1.089   0.371  12.170 -0.6799  0.2319  1.7807
 4498TIP3   OH234984   2.389   6.784   5.022  0.7941 -0.5953  0.0260
 4498TIP3    H134985   2.429   6.868   5.044 -0.4612 -0.1739  0.8464
 4498TIP3    H234986   2.307   6.807   4.978 -1.9934 -1.1209  4.3446
 4499TIP3   OH234987   1.168   4.955   0.917  0.3567 -0.1361 -0.0304
 4499TIP3    H134988   1.097   4.910   0.963 -0.1908  0.7464  0.0203
 4499TIP3    H234989   1.128   4.987   0.836  1.1399 -1.0841 -0.8246
 4500TIP3   OH234990   4.036   2.972  14.998  0.4717 -0.6059  0.1813
 4500TIP3    H134991   4.100   2.949  14.930  0.6867 -1.4328  0.6543
 4500TIP3    H234992   4.087   2.974  15.079 -0.2286 -2.0697  0.6872
 4501TIP3   OH234993   6.222   0.512  17.117  0.4732  0.0087  0.9019
 4501TIP3    H134994   6.296   0.459  17.088  0.3453 -1.6561  3.3311
 4501TIP3    H234995   6.262   0.588  17.160  0.7110  0.4045 -0.0090
 4502TIP3   OH234996   1.240   5.847  16.867 -0.0397 -0.0812 -0.6851
 4502TIP3    H134997   1.223   5.836  16.773  0.4661  0.1253 -0.8069
 4502TIP3    H234998   1.216   5.763  16.906 -0.2323 -0.1763 -1.0052
 4503TIP3   OH234999   1.450   4.827   6.755 -0.0503 -0.1826  0.1456
 4503TIP3    H135000   1.381   4.860   6.813 -1.4992 -1.5957 -0.6927
 4503TIP3    H235001   1.408   4.817   6.670  1.4266 -0.3145 -0.6112
 4504TIP3   OH235002   4.384   4.517  16.571  0.3017  0.3283 -0.3245
 4504TIP3    H135003   4.379   4.597  16.624  0.1445 -1.7945  3.2000
 4504TIP3    H235004   4.452   4.464  16.614 -0.5308 -1.9970 -1.6784
 4505TIP3   OH235005   2.766   5.824   4.037 -0.3570 -0.5003 -0.0571
 4505TIP3    H135006   2.751   5.858   3.949 -1.1626  0.0560  0.2865
 4505TIP3    H235007   2.715   5.743   4.041 -1.9642  0.4970  0.5350
 4506TIP3   OH235008   6.028   2.365   4.187  0.1429 -0.7550 -0.3395
 4506TIP3    H135009   6.009   2.456   4.209 -0.8341 -0.7098 -1.3072
 4506TIP3    H235010   6.081   2.370   4.107 -1.7945 -1.0402 -1.7265
 4507TIP3   OH235011   3.365   1.256   3.671 -0.2516 -0.5278  0.3263
 4507TIP3    H135012   3.359   1.284   3.762  2.3816  1.0365  0.1234
 4507TIP3    H235013   3.277   1.272   3.635 -0.6208  1.4610  1.9290
 4508TIP3   OH235014   1.325   2.893   1.492 -0.0372 -0.1830 -0.0871
 4508TIP3    H135015   1.413   2.873   1.526  0.2060 -0.1156 -0.6665
 4508TIP3    H235016   1.294   2.810   1.455 -0.8692 -0.6183  1.5039
 4509TIP3   OH235017   3.997   6.164  11.603  0.5886 -0.1011 -0.1022
 4509TIP3    H135018   3.939   6.103  11.650  0.5881 -0.0178  0.0031
 4509TIP3    H235019   4.072   6.176  11.661  0.2810  0.5235  0.1718
 4510TIP3   OH235020   1.219   4.691  16.887 -0.2310 -1.0425 -0.1590
 4510TIP3    H135021   1.230   4.619  16.825  1.2801 -1.4645  0.5537
 4510TIP3    H235022   1.224   4.649  16.973 -1.3112 -0.3346  0.2660
 4511TIP3   OH235023   0.331   5.570  14.745 -0.4205 -0.2160 -0.1712
 4511TIP3    H135024   0.364   5.553  14.834 -1.8623  0.5462  0.5378
 4511TIP3    H235025   0.249   5.617  14.758  1.1898  3.4872 -1.9449
 4512TIP3   OH235026   2.813   5.714   2.948  0.5354 -0.1827  0.5137
 4512TIP3    H135027   2.732   5.726   2.997 -2.6319 -1.1677 -3.8999
 4512TIP3    H235028   2.859   5.644   2.994 -0.7672  0.7354  3.4638
 4513TIP3   OH235029   3.588   2.302  16.148 -0.0804 -0.0529 -0.2536
 4513TIP3    H135030   3.493   2.316  16.143 -0.0595 -0.1960 -1.3908
 4513TIP3    H235031   3.601   2.217  16.104  0.5008 -0.3604  0.5035
 4514TIP3   OH235032   0.746   4.748  15.072 -0.4520  0.1999  0.0493
 4514TIP3    H135033   0.656   4.729  15.047 -0.8264  0.2160  1.2997
 4514TIP3    H235034   0.741   4.831  15.119  0.0200 -0.3939  1.1865
 4515TIP3   OH235035   1.528   1.849   4.358 -0.0539  0.2453  0.1769
 4515TIP3    H135036   1.482   1.795   4.422  2.7928 -1.6648  0.7483
 4515TIP3    H235037   1.506   1.810   4.273  0.1186 -0.3600  0.4071
 4516TIP3   OH235038   1.238   3.454  10.503 -0.7187 -0.2244 -0.0253
 4516TIP3    H135039   1.284   3.372  10.523 -1.9829 -0.2435  3.3022
 4516TIP3    H235040   1.199   3.439  10.417  2.2787 -1.5783 -1.2975
 4517TIP3   OH235041   3.704   2.916   0.491 -0.0262  0.6414  0.4881
 4517TIP3    H135042   3.667   2.897   0.577 -1.9879 -1.4836 -0.7044
 4517TIP3    H235043   3.778   2.857   0.482 -0.0216  0.6294  0.6051
 4518TIP3   OH235044   2.213   4.304   2.576  0.6946 -0.7179  0.2820
 4518TIP3    H135045   2.203   4.389   2.619  1.8564 -0.9591  1.0731
 4518TIP3    H235046   2.251   4.247   2.643 -0.2845 -1.9435 -0.1539
 4519TIP3   OH235047   4.752   1.033   3.649  0.0070 -0.5921  0.2075
 4519TIP3    H135048   4.752   1.074   3.562  1.1351 -0.7868  0.1023
 4519TIP3    H235049   4.728   1.104   3.709  1.4771  0.1421 -0.0223
 4520TIP3   OH235050   6.295   6.129   4.414 -0.2247 -0.2284 -0.1480
 4520TIP3    H135051   6.252   6.197   4.363 -0.6471 -0.0591  0.4277
 4520TIP3    H235052   6.300   6.165   4.503  1.3921 -0.1113 -0.2610
 4521TIP3   OH235053   2.705   5.104   5.409  0.3248 -0.0882 -0.4812
 4521TIP3    H135054   2.713   5.198   5.396 -0.1759 -0.0733 -0.7076
 4521TIP3    H235055   2.795   5.072   5.412  0.5891  0.6752  1.8494
 4522TIP3   OH235056   2.383   5.055  14.849 -0.0147 -0.0081  0.4436
 4522TIP3    H135057   2.310   5.100  14.892  0.5191  1.9362 -0.5649
 4522TIP3    H235058   2.420   4.999  14.917 -1.4861  0.1410  1.4104
 4523TIP3   OH235059   1.141   0.741   2.388 -0.4496  0.1713 -0.0456
 4523TIP3    H135060   1.156   0.683   2.463 -0.4932 -0.7036 -0.7048
 4523TIP3    H235061   1.070   0.798   2.417 -1.0853 -0.7502  0.2668
 4524TIP3   OH235062   1.767   2.485  12.243  0.6293  0.0029  0.1359
 4524TIP3    H135063   1.811   2.487  12.328  0.7545  1.0110  0.0608
 4524TIP3    H235064   1.717   2.567  12.240  0.6490 -0.0075 -0.7611
 4525TIP3   OH235065   1.973   1.511  15.177 -0.0380  0.3263 -0.0171
 4525TIP3    H135066   1.888   1.503  15.220  0.0933  0.4496  0.2724
 4525TIP3    H235067   1.963   1.585  15.117  0.7057  2.3154  2.1296
 4526TIP3   OH235068   6.338   0.602   1.604  0.0781 -0.3716  0.3352
 4526TIP3    H135069   6.367   0.690   1.581  1.0645 -0.9230 -0.5960
 4526TIP3    H235070   6.348   0.597   1.699 -3.0282  1.5834  0.8984
 4527TIP3   OH235071   2.068   3.089   2.047  0.0041  0.2968  0.4826
 4527TIP3    H135072   2.155   3.054   2.068  0.0883 -0.5579 -1.1193
 4527TIP3    H235073   2.014   3.012   2.033 -0.5300  0.8129 -0.3649
 4528TIP3   OH235074   4.288   0.258  15.406 -0.4597  0.6279 -0.3526
 4528TIP3    H135075   4.220   0.325  15.415  0.7643  1.9395 -0.3620
 4528TIP3    H235076   4.328   0.253  15.493 -0.8860 -0.5167 -0.2073
 4529TIP3   OH235077   6.155   6.351  12.791  0.2397 -0.9963  0.5077
 4529TIP3    H135078   6.164   6.381  12.881 -0.1746 -0.1857  0.2842
 4529TIP3    H235079   6.165   6.429  12.737 -2.1301 -0.9768 -0.0255
 4530TIP3   OH235080   1.604   0.960   1.194 -0.0669  0.1731 -0.4640
 4530TIP3    H135081   1.685   0.914   1.216 -0.6749 -0.9044 -0.3498
 4530TIP3    H235082   1.558   0.969   1.277  0.1541  1.2279 -0.4526
 4531TIP3   OH235083   1.374   3.472  16.505  0.6461 -0.0827 -0.2716
 4531TIP3    H135084   1.364   3.449  16.413  0.0742 -0.8456 -0.0247
 4531TIP3    H235085   1.344   3.395  16.553  1.4540  0.0961  0.5580
 4532TIP3   OH235086   1.443   1.349   1.941  0.3468  0.0664  0.0869
 4532TIP3    H135087   1.445   1.422   1.878  0.4604 -0.6554 -0.7620
 4532TIP3    H235088   1.473   1.388   2.023  2.0110  0.6321 -0.7397
 4533TIP3   OH235089   2.196   5.951  14.053  0.2708  0.4017  0.3273
 4533TIP3    H135090   2.101   5.962  14.046  0.4249  0.9541 -1.2148
 4533TIP3    H235091   2.208   5.898  14.131 -1.4742 -1.8099 -0.8068
 4534TIP3   OH235092   3.812   5.813  12.220 -0.1479 -0.3325 -0.3830
 4534TIP3    H135093   3.756   5.786  12.147 -0.8930  0.9195 -0.2983
 4534TIP3    H235094   3.787   5.756  12.292 -1.5529  0.3981 -0.2617
 4535TIP3   OH235095   1.657   6.111   2.318 -0.0989 -0.6334 -0.6588
 4535TIP3    H135096   1.602   6.086   2.393  2.6245  0.3633  1.8744
 4535TIP3    H235097   1.595   6.126   2.247 -3.2948  1.7167  2.2902
 4536TIP3   OH235098   5.957   5.700   1.761  0.2296 -0.4511 -0.1437
 4536TIP3    H135099   5.970   5.771   1.824  1.2235 -0.5824 -0.1723
 4536TIP3    H235100   6.029   5.639   1.780  0.2207 -0.7553 -1.0566
 4537TIP3   OH235101   2.563   5.483   4.902  0.7094 -0.3431 -0.9901
 4537TIP3    H135102   2.575   5.519   4.990 -0.7858 -1.7644 -0.1515
 4537TIP3    H235103   2.651   5.481   4.865  1.3591  0.3746  0.4297
 4538TIP3   OH235104   6.077   1.132   3.891  0.6423  0.1819  0.1806
 4538TIP3    H135105   6.137   1.199   3.856  1.0400 -0.0307  0.4567
 4538TIP3    H235106   6.088   1.137   3.986  2.5664 -1.9980  0.1328
 4539TIP3   OH235107   5.075   2.061   1.396  0.2903  0.3047 -0.8753
 4539TIP3    H135108   5.170   2.064   1.384  0.6533 -1.1339  1.2426
 4539TIP3    H235109   5.062   2.003   1.471 -2.1906  1.5208 -0.2827
 4540TIP3   OH235110   0.726   0.801  13.307  0.3729  0.5916  0.3072
 4540TIP3    H135111   0.687   0.845  13.383  1.0196 -1.2527  1.7936
 4540TIP3    H235112   0.712   0.708  13.324  0.6515  0.1071 -1.8080
 4541TIP3   OH235113   3.307   6.531   2.417 -0.0423 -0.2257  0.0998
 4541TIP3    H135114   3.388   6.481   2.416 -1.1381 -2.0869 -0.1404
 4541TIP3    H235115   3.277   6.530   2.326 -0.9693 -0.6738  0.3946
 4542TIP3   OH235116   4.188   3.726  10.951 -0.2206  0.1486  0.3064
 4542TIP3    H135117   4.230   3.811  10.957 -2.3237  1.2652  0.2416
 4542TIP3    H235118   4.256   3.667  10.917  0.9988  2.0018 -0.6066
 4543TIP3   OH235119   3.731   1.306   2.730 -0.0965 -0.0591 -0.1032
 4543TIP3    H135120   3.689   1.272   2.809  0.4172 -2.6589 -0.8600
 4543TIP3    H235121   3.658   1.331   2.673 -0.5894 -1.5326 -0.1610
 4544TIP3   OH235122   4.133   6.629  16.913  0.2577  0.2705  0.4854
 4544TIP3    H135123   4.069   6.635  16.984 -1.0911  2.8102 -0.8329
 4544TIP3    H235124   4.085   6.653  16.834  2.6921  1.7705 -0.6690
 4545TIP3   OH235125   6.240   5.335  12.406 -0.0920 -0.6667  0.2357
 4545TIP3    H135126   6.236   5.349  12.501 -1.9977 -0.2029  0.1275
 4545TIP3    H235127   6.311   5.393  12.377 -0.9228  0.8590  1.1159
 4546TIP3   OH235128   3.578   3.286   4.595 -0.3666  0.0331 -0.2255
 4546TIP3    H135129   3.590   3.192   4.609 -2.3070 -0.2747 -0.3428
 4546TIP3    H235130   3.533   3.292   4.511 -0.0148  1.1010 -0.3555
 4547TIP3   OH235131   0.630   6.222   3.789  0.1749 -0.1968 -0.8988
 4547TIP3    H135132   0.644   6.130   3.810 -1.5321 -0.1088  0.9089
 4547TIP3    H235133   0.699   6.268   3.837 -1.8609 -0.2490  2.3646
 4548TIP3   OH235134   5.085   1.823  14.242  0.2721 -0.0187  0.1590
 4548TIP3    H135135   5.060   1.861  14.157  2.3718  1.4769  0.1289
 4548TIP3    H235136   5.064   1.730  14.234 -1.9884  0.5121 -1.0102
 4549TIP3   OH235137   2.312   6.651   1.925 -0.2823  0.3008  0.2579
 4549TIP3    H135138   2.348   6.656   1.837  2.2904  1.6044  1.2807
 4549TIP3    H235139   2.387   6.627   1.980 -2.2569 -2.8955  1.8932
 4550TIP3   OH235140   0.014   5.920  12.415  0.0349 -0.0487 -0.5585
 4550TIP3    H135141  -0.045   5.979  12.462  0.6990 -1.7078  2.6238
 4550TIP3    H235142   0.101   5.959  12.426  0.3281 -0.9903  0.5536
 4551TIP3   OH235143   1.825   1.256  15.363 -0.2220 -0.3618  0.2384
 4551TIP3    H135144   1.799   1.345  15.338 -1.2633 -0.5069  0.7194
 4551TIP3    H235145   1.898   1.268  15.424  0.3501  0.1143 -0.5313
 4552TIP3   OH235146   4.034   3.586  16.521 -0.3656 -0.1082 -0.0713
 4552TIP3    H135147   3.972   3.647  16.481  0.4730 -0.1459 -1.5187
 4552TIP3    H235148   4.010   3.584  16.613 -2.4236 -0.0181 -0.5579
 4553TIP3   OH235149   5.467   0.752  10.830 -0.0247  0.1286  0.5667
 4553TIP3    H135150   5.459   0.846  10.844  0.1255  0.3784 -0.7963
 4553TIP3    H235151   5.516   0.720  10.905 -0.4490  1.0722  1.2596
 4554TIP3   OH235152   3.643   2.703   3.199 -0.3768 -0.6452  0.0635
 4554TIP3    H135153   3.717   2.760   3.177 -0.5139 -0.4469  0.1142
 4554TIP3    H235154   3.567   2.750   3.167 -0.6027 -0.2594  1.1417
 4555TIP3   OH235155   3.113   2.051  12.478  0.1519 -0.2431  0.0166
 4555TIP3    H135156   3.195   2.076  12.435 -0.0447 -0.3080 -0.4127
 4555TIP3    H235157   3.097   2.119  12.543  0.9602 -0.6577  0.6637
 4556TIP3   OH235158   6.563   2.177  14.853 -0.0396  0.1993  0.0542
 4556TIP3    H135159   6.504   2.151  14.782 -0.6372  0.2100  0.5364
 4556TIP3    H235160   6.525   2.258  14.887  0.3715  0.3170  0.2331
 4557TIP3   OH235161   4.439   5.349  13.641 -0.9587  0.2791 -0.1205
 4557TIP3    H135162   4.472   5.259  13.635  1.1943  0.7870  2.1304
 4557TIP3    H235163   4.459   5.387  13.556  0.1282 -0.7980 -0.3831
 4558TIP3   OH235164   5.735   5.751   4.778  0.0629 -0.0569  0.0338
 4558TIP3    H135165   5.668   5.714   4.721 -0.3872  2.6632 -1.3860
 4558TIP3    H235166   5.818   5.723   4.740 -0.2378 -1.4341  0.3555
 4559TIP3   OH235167   4.250   3.270  16.304 -0.3217  0.4349 -0.7485
 4559TIP3    H135168   4.215   3.281  16.393 -1.3337  0.2553 -1.1063
 4559TIP3    H235169   4.264   3.175  16.296 -1.1852  0.3285 -1.1115
 4560TIP3   OH235170   3.490   4.017   1.797  0.3717 -0.1265 -0.4102
 4560TIP3    H135171   3.510   4.103   1.833  0.6799  0.0181 -0.9178
 4560TIP3    H235172   3.549   4.007   1.722 -1.1465  0.1466 -1.6962
 4561TIP3   OH235173   5.112   6.632  12.607  0.0807 -1.1274  0.1274
 4561TIP3    H135174   5.162   6.706  12.642 -0.6812  0.0495 -1.1940
 4561TIP3    H235175   5.155   6.611  12.524 -1.5758 -0.0571 -1.0667
 4562TIP3   OH235176   5.406   5.335  16.953  0.0949 -0.3688 -0.1559
 4562TIP3    H135177   5.393   5.375  17.040  2.3028  1.1178 -0.4226
 4562TIP3    H235178   5.325   5.354  16.906 -0.2069  0.9368  0.8159
 4563TIP3   OH235179   4.466   4.021  16.668  0.6283 -0.4158  0.1705
 4563TIP3    H135180   4.393   4.009  16.607  0.7063  1.4899 -0.3931
 4563TIP3    H235181   4.440   3.976  16.747 -1.0042 -0.1051 -0.1548
 4564TIP3   OH235182   1.773   4.063   5.793  0.6160  0.3058 -0.0177
 4564TIP3    H135183   1.790   4.156   5.779  1.0909  0.5336  1.8241
 4564TIP3    H235184   1.684   4.050   5.760  1.4578  0.7841 -2.7551
 4565TIP3   OH235185   4.766   0.168  14.305  0.6645 -0.1796 -0.1583
 4565TIP3    H135186   4.682   0.152  14.260  0.3110 -0.2130  0.5057
 4565TIP3    H235187   4.765   0.261  14.324  0.1713 -0.4092  1.0316
 4566TIP3   OH235188   6.303   1.346  10.870  0.7653 -0.2482  0.0858
 4566TIP3    H135189   6.280   1.335  10.962  0.5144 -0.4261  0.0056
 4566TIP3    H235190   6.287   1.259  10.831  0.5072 -0.0773 -0.1977
 4567TIP3   OH235191   0.013   2.993   1.464 -0.1468 -0.1602 -0.1229
 4567TIP3    H135192   0.008   3.048   1.386 -0.0746  0.0880  0.0454
 4567TIP3    H235193   0.000   2.904   1.432  0.2131 -0.0901 -0.4592
 4568TIP3   OH235194   3.773   0.262   5.236  0.3443 -0.0591 -0.2278
 4568TIP3    H135195   3.725   0.251   5.318  0.2867 -1.8303 -0.4568
 4568TIP3    H235196   3.706   0.255   5.168  0.4047  1.3053 -0.4497
 4569TIP3   OH235197   5.432   3.323   0.607  0.2400  0.4056  0.3802
 4569TIP3    H135198   5.422   3.412   0.572 -2.6165  0.5434  1.2473
 4569TIP3    H235199   5.376   3.269   0.552 -1.5790  0.0192  2.4800
 4570TIP3   OH235200   4.624   5.105  12.319 -0.7692  0.2109 -0.0615
 4570TIP3    H135201   4.539   5.077  12.284 -0.4934  1.1063 -1.5714
 4570TIP3    H235202   4.650   5.178  12.262  0.1748  1.1559  1.4959
 4571TIP3   OH235203   4.391   5.220   2.505  0.2710  0.2084  0.1143
 4571TIP3    H135204   4.408   5.243   2.597 -0.2962  0.5494  0.1407
 4571TIP3    H235205   4.425   5.131   2.496  0.0281  0.0466  0.7508
 4572TIP3   OH235206   2.875   4.599  14.044  0.2545 -0.0652  0.2729
 4572TIP3    H135207   2.786   4.603  14.080  1.0945 -0.4034  2.5180
 4572TIP3    H235208   2.926   4.658  14.098  1.3073  0.6889 -1.4402
 4573TIP3   OH235209   5.362   5.802  14.809 -0.4690 -0.1234  0.2311
 4573TIP3    H135210   5.363   5.761  14.722 -1.1018  0.4127 -0.0422
 4573TIP3    H235211   5.380   5.894  14.792 -1.4099  0.1352  0.5726
 4574TIP3   OH235212   5.997   3.442   1.590  0.0383 -0.0119  0.2421
 4574TIP3    H135213   5.977   3.519   1.643 -0.4251 -0.3141  0.5235
 4574TIP3    H235214   6.003   3.474   1.501  0.8907  0.5191  0.4846
 4575TIP3   OH235215   0.672   3.300  14.246  0.1521  0.0151 -0.2549
 4575TIP3    H135216   0.609   3.278  14.177  1.3230  1.2763 -1.7983
 4575TIP3    H235217   0.655   3.391  14.266 -0.0681 -0.3013  1.0587
 4576TIP3   OH235218   6.284   6.205  15.842  0.2584  0.1900 -0.3917
 4576TIP3    H135219   6.271   6.189  15.749 -1.3712 -0.6304 -0.0447
 4576TIP3    H235220   6.337   6.131  15.871 -0.4635 -0.3382 -0.3937
 4577TIP3   OH235221   6.569   1.331   2.785 -0.2495 -0.3012  0.4597
 4577TIP3    H135222   6.519   1.250   2.773 -0.2485 -0.2702  0.2238
 4577TIP3    H235223   6.523   1.395   2.730  1.7258 -0.9799 -2.2004
 4578TIP3   OH235224   0.132   6.785   5.762 -0.2701  0.5923 -0.3332
 4578TIP3    H135225   0.086   6.761   5.843  1.5789 -1.1129  0.2828
 4578TIP3    H235226   0.196   6.850   5.790 -1.9408  2.6994 -1.1313
 4579TIP3   OH235227   1.513   3.003   0.627 -0.6506 -0.0698  0.0716
 4579TIP3    H135228   1.420   2.993   0.646 -0.7548  2.9835  1.8286
 4579TIP3    H235229   1.516   3.033   0.536 -1.3393 -0.6384 -0.1470
 4580TIP3   OH235230   5.485   1.465   1.772 -0.5551  0.0845 -0.0458
 4580TIP3    H135231   5.414   1.406   1.749  0.3828 -1.5421  1.0258
 4580TIP3    H235232   5.442   1.550   1.787 -2.5081 -1.1624  1.9907
 4581TIP3   OH235233   4.432   1.040  13.907  0.1721  0.3309 -0.1031
 4581TIP3    H135234   4.517   1.001  13.923  0.6235  1.2824 -0.1085
 4581TIP3    H235235   4.437   1.127  13.948 -1.3144 -0.1690  1.2771
 4582TIP3   OH235236   6.532   1.321  13.270 -0.4600 -0.4774  0.7620
 4582TIP3    H135237   6.616   1.357  13.242 -1.4296  0.6716 -0.8323
 4582TIP3    H235238   6.522   1.351  13.360 -0.1349  1.2677  0.2598
 4583TIP3   OH235239   3.943   6.648   1.016 -0.3809 -0.2089 -0.8165
 4583TIP3    H135240   4.023   6.700   1.029  0.3544 -1.5631  0.3330
 4583TIP3    H235241   3.889   6.668   1.093 -0.1187 -1.0809 -0.3968
 4584TIP3   OH235242   6.805   4.578   5.077  1.0498 -0.0851  0.0363
 4584TIP3    H135243   6.832   4.660   5.037  1.0720 -0.5464 -0.9273
 4584TIP3    H235244   6.730   4.549   5.026 -1.7738  1.4219  2.9729
 4585TIP3   OH235245   1.137   1.764  17.094 -0.2393  0.0180 -0.1583
 4585TIP3    H135246   1.073   1.707  17.137  1.2446 -0.9865  0.8397
 4585TIP3    H235247   1.094   1.850  17.090 -1.9824 -0.8082 -0.3995
 4586TIP3   OH235248   5.181   0.641  16.455  0.3259 -0.8151 -0.4545
 4586TIP3    H135249   5.224   0.556  16.450  1.0436 -0.4421 -0.8119
 4586TIP3    H235250   5.228   0.695  16.391  0.9680  0.3208  0.9349
 4587TIP3   OH235251   2.449   1.065   2.587 -0.4594 -0.0511  0.1145
 4587TIP3    H135252   2.510   1.100   2.522  0.9411  3.9881  3.1609
 4587TIP3    H235253   2.363   1.098   2.559 -0.1880  0.0458 -0.6399
 4588TIP3   OH235254   4.609   1.416   5.672  0.7997 -0.1541  0.0386
 4588TIP3    H135255   4.621   1.332   5.716  0.2808 -0.7077 -0.8582
 4588TIP3    H235256   4.539   1.460   5.721 -0.7678 -1.3568 -1.0140
 4589TIP3   OH235257   1.047   5.269  13.178  0.0734  0.1237  0.4191
 4589TIP3    H135258   1.050   5.356  13.139  0.2564  0.6409  1.5244
 4589TIP3    H235259   1.003   5.215  13.113  0.8896  0.7926 -0.7309
 4590TIP3   OH235260   6.740   4.389   2.696  0.4186 -0.0829 -0.0149
 4590TIP3    H135261   6.810   4.398   2.631  0.6320  1.7055  0.4011
 4590TIP3    H235262   6.775   4.328   2.761  0.2865 -1.7212 -1.4328
 4591TIP3   OH235263   0.914   1.739  16.234 -0.1713 -0.0886 -0.4824
 4591TIP3    H135264   0.952   1.815  16.277 -2.3502  2.1739 -2.2508
 4591TIP3    H235265   0.974   1.718  16.163 -0.1368  0.7542 -0.7053
 4592TIP3   OH235266   2.679   0.491  16.025  0.3017 -0.1004 -0.1453
 4592TIP3    H135267   2.663   0.432  15.951  1.0445 -2.3481  1.3945
 4592TIP3    H235268   2.591   0.519  16.051  0.0041  0.4077 -1.5852
 4593TIP3   OH235269   0.023   3.471  13.619  0.0051  0.0467 -0.0591
 4593TIP3    H135270  -0.039   3.435  13.556  0.1291 -0.6280  0.1963
 4593TIP3    H235271   0.015   3.414  13.696  0.6547  0.1913  0.1232
 4594TIP3   OH235272   4.196   3.110  13.328 -0.0602 -0.0684  0.7095
 4594TIP3    H135273   4.236   3.053  13.393  0.3441  0.1294  0.6367
 4594TIP3    H235274   4.123   3.152  13.373  0.1687  0.0058  1.0104
 4595TIP3   OH235275   0.602   5.542   0.023 -0.3280  0.0796 -0.2804
 4595TIP3    H135276   0.689   5.579   0.014 -0.4596  0.8888  1.4348
 4595TIP3    H235277   0.546   5.599  -0.031  0.0791 -0.0270 -0.8230
 4596TIP3   OH235278   6.192   4.839  13.568 -0.2919  0.1986  0.0912
 4596TIP3    H135279   6.233   4.865  13.650  1.7507 -2.1152 -0.0685
 4596TIP3    H235280   6.137   4.764  13.592 -0.7643  0.3589 -0.4651
 4597TIP3   OH235281   0.764   0.278  13.837  0.0453  0.5992  0.6106
 4597TIP3    H135282   0.805   0.342  13.896  1.0766  1.2851 -0.7970
 4597TIP3    H235283   0.688   0.325  13.801  0.7642  1.0159 -0.3726
 4598TIP3   OH235284   5.796   3.404   1.873 -0.4201  0.1974 -0.1471
 4598TIP3    H135285   5.787   3.322   1.825 -3.0197  0.0151  0.4805
 4598TIP3    H235286   5.816   3.469   1.805  0.2564 -0.7272 -0.8514
 4599TIP3   OH235287   5.877   5.268  12.597  0.1809  0.1338 -0.6471
 4599TIP3    H135288   5.875   5.187  12.649  1.0593 -0.2577 -1.1892
 4599TIP3    H235289   5.952   5.317  12.633  0.2718  0.2426 -0.9793
 4600TIP3   OH235290   0.601   0.990   3.438  0.0288  0.3474 -0.3264
 4600TIP3    H135291   0.529   1.028   3.388 -0.6524 -0.7607 -0.2035
 4600TIP3    H235292   0.671   0.979   3.374  0.3454  1.9888 -0.3257
 4601TIP3   OH235293   6.340   3.068   0.636 -0.7659  0.2005 -0.5566
 4601TIP3    H135294   6.307   3.158   0.645  1.5438  1.2268 -1.4364
 4601TIP3    H235295   6.358   3.041   0.726  2.4674  2.3401 -0.3717
 4602TIP3   OH235296   3.315   0.693  16.984  0.2600  0.1627  0.0648
 4602TIP3    H135297   3.396   0.744  16.997  0.0293  0.4399  0.4548
 4602TIP3    H235298   3.329   0.612  17.033  0.4047  0.0985 -0.0823
 4603TIP3   OH235299   6.225   0.763   5.413  0.0369  0.2040  0.0533
 4603TIP3    H135300   6.224   0.851   5.375  0.2365  0.0015 -0.4375
 4603TIP3    H235301   6.316   0.751   5.442  0.5520 -0.5760 -1.6955
 4604TIP3   OH235302   6.704   3.003  11.703  0.2971  0.6828  0.2491
 4604TIP3    H135303   6.792   3.013  11.740 -0.0230  0.5340  1.0691
 4604TIP3    H235304   6.702   2.913  11.671  0.3931  0.6373  0.3704
 4605TIP3   OH235305   4.969   0.329   0.521  0.0100  0.2584  0.0390
 4605TIP3    H135306   4.913   0.393   0.563  2.0184  1.5740  0.9001
 4605TIP3    H235307   4.931   0.316   0.434 -0.3752  2.7885 -0.2455
 4606TIP3   OH235308   6.732   1.163   3.369 -0.1986  0.0659  0.7209
 4606TIP3    H135309   6.777   1.086   3.404  0.1999 -0.2162 -0.3657
 4606TIP3    H235310   6.698   1.134   3.284 -0.5022  0.9356  0.5369
 4607TIP3   OH235311   6.621   6.086   1.641 -1.1629  0.8856 -0.2616
 4607TIP3    H135312   6.538   6.086   1.592  0.0527 -0.1647 -2.4854
 4607TIP3    H235313   6.688   6.074   1.573  0.5000 -4.2613  1.8641
 4608TIP3   OH235314   6.299   4.166  11.615 -0.4455  0.1158 -0.1124
 4608TIP3    H135315   6.294   4.083  11.663  0.8246 -0.1753 -0.4590
 4608TIP3    H235316   6.226   4.162  11.553 -1.1564 -0.1844  0.7301
 4609TIP3   OH235317   3.284   2.960   6.051 -0.1794  1.1863  0.1939
 4609TIP3    H135318   3.375   2.938   6.029  0.3897 -0.1967  3.4511
 4609TIP3    H235319   3.234   2.934   5.974  1.7752 -1.5987 -0.2776
 4610TIP3   OH235320   5.112   3.137  16.852  0.4454  0.4366 -0.7454
 4610TIP3    H135321   5.078   3.154  16.940  1.2329 -1.5964 -0.0054
 4610TIP3    H235322   5.042   3.088  16.809 -0.1146  1.7820 -1.4595
 4611TIP3   OH235323   3.772   3.684   1.317  0.9109 -0.0944 -0.1763
 4611TIP3    H135324   3.803   3.707   1.404  0.4508  1.1306 -0.3161
 4611TIP3    H235325   3.845   3.639   1.276  1.5320  0.3332  0.4525
 4612TIP3   OH235326   4.546   1.124  14.444  0.2731 -0.7497 -0.1676
 4612TIP3    H135327   4.507   1.093  14.526 -0.8731  0.3489 -0.2705
 4612TIP3    H235328   4.587   1.046  14.406  0.6156 -1.3258  1.3196
 4613TIP3   OH235329   5.248   0.249  16.129 -0.9536 -0.2491  0.3032
 4613TIP3    H135330   5.233   0.314  16.060  1.6490  0.6509  0.4646
 4613TIP3    H235331   5.259   0.301  16.209 -0.1938 -0.9550  0.6851
 4614TIP3   OH235332   1.137   6.568  12.261  0.0826 -1.0946 -0.3958
 4614TIP3    H135333   1.208   6.632  12.253 -0.6907 -0.2620 -0.9145
 4614TIP3    H235334   1.078   6.590  12.188 -1.8139 -0.3155  1.2795
 4615TIP3   OH235335   5.765   5.661  15.427 -0.5432 -0.1014  0.0844
 4615TIP3    H135336   5.805   5.748  15.438 -0.4554 -0.3692  2.3092
 4615TIP3    H235337   5.705   5.672  15.353  0.5208  1.4500 -0.6198
 4616TIP3   OH235338   5.185   6.722  14.488 -0.0830  0.0133  0.0346
 4616TIP3    H135339   5.182   6.799  14.431  1.5962 -1.0325 -1.5956
 4616TIP3    H235340   5.107   6.672  14.464 -0.8770  0.9055  0.6943
 4617TIP3   OH235341   1.827   4.480   5.143  0.1511 -0.5500  0.7786
 4617TIP3    H135342   1.803   4.559   5.094  1.9294 -0.7580 -0.5189
 4617TIP3    H235343   1.868   4.423   5.078  2.3005 -0.9851  2.4206
 4618TIP3   OH235344   2.897   4.011   5.576  0.1700  0.1929 -0.5070
 4618TIP3    H135345   2.849   4.089   5.605  1.2078  0.2114  1.3574
 4618TIP3    H235346   2.909   3.960   5.656  0.6344 -1.2656 -1.4772
 4619TIP3   OH235347   4.519   3.839   2.811  0.1478  0.1666 -0.0212
 4619TIP3    H135348   4.566   3.846   2.895  0.9483 -3.7328  0.0592
 4619TIP3    H235349   4.427   3.829   2.836  0.4859 -2.0437  0.6154
 4620TIP3   OH235350   0.951   2.894  12.180 -0.6886  0.0451 -0.0469
 4620TIP3    H135351   0.912   2.876  12.265 -0.2276  0.0265  0.1656
 4620TIP3    H235352   0.878   2.887  12.118 -0.9997 -0.0783  0.3279
 4621TIP3   OH235353   2.956   5.145   0.070 -0.5472 -0.0179 -0.9395
 4621TIP3    H135354   2.992   5.084   0.134 -2.7634  0.1734  0.6170
 4621TIP3    H235355   2.900   5.092   0.014 -2.0674  0.4443  0.0892
 4622TIP3   OH235356   4.755   4.831   1.661  0.1176 -0.0938 -0.2934
 4622TIP3    H135357   4.826   4.865   1.716 -1.0679  2.9485 -0.4465
 4622TIP3    H235358   4.732   4.747   1.701  2.0825  0.0495  1.2977
 4623TIP3   OH235359   1.957   3.213  17.087 -0.6547  0.4752  0.1318
 4623TIP3    H135360   1.984   3.182  17.173 -0.1540  1.2539  0.2578
 4623TIP3    H235361   1.862   3.222  17.093 -0.6425  0.3415  0.5316
 4624TIP3   OH235362   4.289   0.300  14.391 -0.1524 -0.0697  0.0957
 4624TIP3    H135363   4.270   0.321  14.482 -1.2984  1.3016 -0.4191
 4624TIP3    H235364   4.208   0.264  14.357  0.1078 -0.0980 -0.5151
 4625TIP3   OH235365   3.803   1.282   1.959  0.2237  0.1947 -0.3189
 4625TIP3    H135366   3.863   1.218   1.997 -0.8715  0.5203  2.1545
 4625TIP3    H235367   3.763   1.237   1.885  0.3011 -1.5834  0.6785
 4626TIP3   OH235368   3.916   5.664  14.332  0.9670  0.3764 -0.3489
 4626TIP3    H135369   3.832   5.618  14.329  0.7177  0.7283  0.6036
 4626TIP3    H235370   3.893   5.756  14.317  1.0874  0.5618  0.5410
 4627TIP3   OH235371   2.973   5.477  16.203  0.4368  0.1070 -0.7614
 4627TIP3    H135372   3.010   5.558  16.240  0.8126  0.6219 -2.1592
 4627TIP3    H235373   2.984   5.488  16.108 -2.8738  0.0705 -1.2724
 4628TIP3   OH235374   0.263   5.006   6.974  0.5551  0.0483  0.1417
 4628TIP3    H135375   0.346   4.962   6.987  0.9637  0.5903 -0.5412
 4628TIP3    H235376   0.218   4.998   7.058  1.2359 -0.3739  0.4741
 4629TIP3   OH235377   2.484   5.649   0.631 -0.0888  0.0664  0.4265
 4629TIP3    H135378   2.407   5.621   0.681  0.1387  2.3627  2.1644
 4629TIP3    H235379   2.448   5.686   0.550 -0.6702 -0.5270  0.4060
 4630TIP3   OH235380   6.324   4.340   1.227 -0.3982  0.5789  0.1800
 4630TIP3    H135381   6.319   4.287   1.307  1.3801 -0.7790 -0.5537
 4630TIP3    H235382   6.360   4.424   1.256 -1.3926  0.7331  1.0407
 4631TIP3   OH235383   4.354   1.130   1.841  0.3689  0.1667 -0.3739
 4631TIP3    H135384   4.311   1.063   1.894  0.5340  1.9224  2.1296
 4631TIP3    H235385   4.434   1.088   1.810 -0.1982 -1.2179 -0.0374
 4632TIP3   OH235386   0.260   3.101   5.642 -0.0855  0.1275  0.4042
 4632TIP3    H135387   0.169   3.107   5.615 -0.0278  1.9716  0.5339
 4632TIP3    H235388   0.310   3.127   5.565  0.3993 -1.3655  0.1666
 4633TIP3   OH235389   0.639   5.490   3.350  0.4180  0.2197 -0.4586
 4633TIP3    H135390   0.695   5.541   3.292 -0.1295 -0.3061 -1.4882
 4633TIP3    H235391   0.627   5.545   3.427  0.4928  1.2974 -1.1961
 4634TIP3   OH235392   2.671   6.639  16.922 -0.3982  0.3914  0.4618
 4634TIP3    H135393   2.705   6.574  16.983  0.8213  0.5443 -0.0440
 4634TIP3    H235394   2.608   6.591  16.868  0.6758 -0.4465 -0.0750
 4635TIP3   OH235395   5.347   1.442   5.367 -0.1839  0.2248 -0.7197
 4635TIP3    H135396   5.338   1.534   5.345  0.2766 -0.1023 -2.3801
 4635TIP3    H235397   5.276   1.398   5.320  1.0234 -0.5284 -1.9356
 4636TIP3   OH235398   0.146   1.908  12.189 -0.5369  0.2292  0.1042
 4636TIP3    H135399   0.094   1.970  12.240 -1.1194 -0.2683  0.1259
 4636TIP3    H235400   0.116   1.822  12.218 -1.1902 -0.0725 -1.3547
 4637TIP3   OH235401   1.455   1.611   1.314 -0.3157 -0.3273  0.0418
 4637TIP3    H135402   1.433   1.568   1.397 -0.0512  0.4339  0.5254
 4637TIP3    H235403   1.371   1.623   1.270 -0.2487 -2.8367 -0.8923
 4638TIP3   OH235404   3.790   4.611   3.216 -0.3337 -0.2635  0.0873
 4638TIP3    H135405   3.779   4.681   3.151  0.9438  0.9044  1.0682
 4638TIP3    H235406   3.706   4.605   3.260 -0.4226  0.7531  0.0751
 4639TIP3   OH235407   3.885   5.602  16.607  0.0689 -0.2024 -0.4891
 4639TIP3    H135408   3.854   5.512  16.616  1.1420 -0.7080 -1.5709
 4639TIP3    H235409   3.836   5.637  16.533 -1.7093  0.7640  1.0574
 4640TIP3   OH235410   1.627   0.656   0.486 -0.0532 -0.1489 -0.0452
 4640TIP3    H135411   1.633   0.688   0.396  0.2368 -0.3661 -0.1023
 4640TIP3    H235412   1.535   0.671   0.510  0.1671  1.1207  0.0753
 4641TIP3   OH235413   4.225   2.125   2.814 -0.0435  0.4227 -0.3078
 4641TIP3    H135414   4.130   2.115   2.822 -0.4078 -0.6620 -3.8730
 4641TIP3    H235415   4.259   2.036   2.820  0.3171  0.4088 -1.9633
 4642TIP3   OH235416   5.109   6.694  13.611  0.3370  1.0499 -0.0248
 4642TIP3    H135417   5.039   6.660  13.555  0.1831  0.9130  0.2477
 4642TIP3    H235418   5.185   6.639  13.591  0.1391  0.6617  0.2778
 4643TIP3   OH235419   3.633   3.412   5.129 -0.3079 -0.0088  0.2431
 4643TIP3    H135420   3.670   3.468   5.060 -0.4152  0.4042  0.5147
 4643TIP3    H235421   3.660   3.454   5.211  0.2387 -0.7767  0.4620
 4644TIP3   OH235422   4.073   3.308  12.843 -0.0883  0.1561 -0.6662
 4644TIP3    H135423   4.044   3.255  12.917 -1.8803  1.1250 -0.6239
 4644TIP3    H235424   4.069   3.398  12.874  0.9377  0.4690 -1.3819
 4645TIP3   OH235425   6.018   3.760   1.887 -0.1074  0.2064  0.0692
 4645TIP3    H135426   6.068   3.680   1.871 -0.3995 -0.2032  1.0750
 4645TIP3    H235427   6.084   3.827   1.905  0.1114 -0.0931  0.3982
 4646TIP3   OH235428   3.996   3.617  15.849 -0.7910 -0.3102 -0.6943
 4646TIP3    H135429   4.041   3.619  15.764 -2.1333 -1.2212 -1.4733
 4646TIP3    H235430   3.961   3.528  15.855 -0.2571 -0.4199  1.0872
 4647TIP3   OH235431   0.088   3.065   4.787 -0.8752  0.0922 -0.0393
 4647TIP3    H135432   0.181   3.067   4.807 -0.5969 -1.7752 -0.9203
 4647TIP3    H235433   0.060   2.977   4.814 -1.8299 -0.2585 -2.0165
 4648TIP3   OH235434   5.954   4.889   5.131 -0.1645  0.8950 -0.2454
 4648TIP3    H135435   5.955   4.865   5.039  1.4358  0.1839 -0.0660
 4648TIP3    H235436   5.996   4.975   5.134  3.8061 -0.8315  0.1760
 4649TIP3   OH235437   1.154   2.437   6.225  0.0757  0.2116  0.2164
 4649TIP3    H135438   1.105   2.384   6.288 -0.6707  0.0863 -0.4593
 4649TIP3    H235439   1.152   2.525   6.263 -1.9020  0.5130 -0.4472
 4650TIP3   OH235440   6.775   0.599  14.524  0.3028 -0.1298 -0.1539
 4650TIP3    H135441   6.745   0.529  14.581 -1.2834  0.2313 -0.5021
 4650TIP3    H235442   6.825   0.554  14.455  1.1015 -0.6811  0.7500
 4651TIP3   OH235443   0.560   5.896   2.164 -0.2421  0.0869  0.0665
 4651TIP3    H135444   0.640   5.928   2.205 -0.7240 -0.2126  1.2624
 4651TIP3    H235445   0.545   5.957   2.091  1.3722 -0.2033 -0.5350
 4652TIP3   OH235446   4.230   0.166  12.135  0.0470 -0.4707  0.3404
 4652TIP3    H135447   4.321   0.165  12.162  0.9745 -1.0482 -2.4810
 4652TIP3    H235448   4.219   0.086  12.085 -2.2233 -0.7183  1.1084
 4653TIP3   OH235449   2.993   4.059  17.114 -0.2387 -0.6672  0.1597
 4653TIP3    H135450   2.970   4.101  17.197 -0.5416  1.2445 -0.8333
 4653TIP3    H235451   2.944   3.977  17.114 -1.0887 -0.1900  1.3874
 4654TIP3   OH235452   4.868   3.565  16.701 -0.1901  0.1387  0.3848
 4654TIP3    H135453   4.922   3.494  16.737  1.7078  0.4946 -1.5757
 4654TIP3    H235454   4.791   3.521  16.664  0.4042 -0.7699  0.2073
 4655TIP3   OH235455   2.059   6.187   2.801  0.2294  0.3515  0.7115
 4655TIP3    H135456   2.062   6.192   2.897 -1.5901  1.9938  0.7481
 4655TIP3    H235457   2.117   6.258   2.772  0.3600  0.1985  0.5959
 4656TIP3   OH235458   3.498   2.179  11.702 -0.5818 -0.5599 -0.4892
 4656TIP3    H135459   3.430   2.211  11.643 -0.5257 -0.6631 -0.6131
 4656TIP3    H235460   3.461   2.187  11.789 -0.9249 -1.0369 -0.5868
 4657TIP3   OH235461   4.920   5.413  10.984  0.6102 -0.2699 -0.7660
 4657TIP3    H135462   5.012   5.423  10.962  0.3794  1.5227 -1.0455
 4657TIP3    H235463   4.916   5.432  11.078  0.5052 -0.1836 -0.7881
 4658TIP3   OH235464   0.214   0.876  17.139  0.2785 -0.0270 -0.7712
 4658TIP3    H135465   0.134   0.868  17.087 -0.3803 -0.8905  0.3288
 4658TIP3    H235466   0.280   0.826  17.090 -0.4500 -1.2279 -0.5631
 4659TIP3   OH235467   1.437   1.930  12.009 -0.1639  0.0278 -0.0200
 4659TIP3    H135468   1.510   1.992  12.004  0.9568 -1.2087  0.3534
 4659TIP3    H235469   1.385   1.959  12.084  0.6423  0.2037  0.4818
 4660TIP3   OH235470   1.754   1.434  14.232 -0.3792  0.4020 -0.5825
 4660TIP3    H135471   1.816   1.506  14.229  1.1608 -0.5786  3.1095
 4660TIP3    H235472   1.676   1.470  14.274  0.0023  0.2110  0.3097
 4661TIP3   OH235473   1.168   3.854   1.679 -0.1119  0.3247 -0.8171
 4661TIP3    H135474   1.255   3.865   1.641  0.0536  0.9575 -0.2926
 4661TIP3    H235475   1.182   3.866   1.773 -0.2259 -2.7780 -0.2995
 4662TIP3   OH235476   4.433   1.122   2.378 -0.7208 -0.4455  0.5064
 4662TIP3    H135477   4.348   1.080   2.365 -1.0522  0.6794 -1.4412
 4662TIP3    H235478   4.412   1.206   2.418 -0.5477 -0.1519 -0.0063
 4663TIP3   OH235479   6.767   1.118  13.109  0.9076 -0.0530 -0.5199
 4663TIP3    H135480   6.806   1.200  13.082 -0.6820  0.3481 -1.7933
 4663TIP3    H235481   6.840   1.057  13.116  1.9362  1.0773 -1.1022
 4664TIP3   OH235482   5.867   2.604  14.154 -0.3173  0.1883 -0.5412
 4664TIP3    H135483   5.841   2.512  14.163 -2.0521  0.6490 -0.4452
 4664TIP3    H235484   5.917   2.621  14.234 -0.5909 -0.4887 -0.2058
 4665TIP3   OH235485   6.274   5.929   0.165 -0.1482  0.2627 -0.9960
 4665TIP3    H135486   6.210   5.981   0.116 -0.9367  1.1548  0.8782
 4665TIP3    H235487   6.305   5.989   0.233  0.5054 -1.0892 -0.0700
 4666TIP3   OH235488   0.209   0.066  15.410  0.0201 -0.0720 -0.0414
 4666TIP3    H135489   0.303   0.050  15.418  0.3958  1.1039 -1.5700
 4666TIP3    H235490   0.199   0.103  15.322 -1.9214 -0.4965 -0.0309
 4667TIP3   OH235491   6.287   2.823  14.779 -0.2550 -0.0669 -0.6095
 4667TIP3    H135492   6.206   2.855  14.817 -1.5863 -0.0892 -3.1748
 4667TIP3    H235493   6.282   2.728  14.786 -0.6620 -0.0869 -1.0715
 4668TIP3   OH235494   0.348   3.505   6.384 -0.0982 -0.1470 -0.7561
 4668TIP3    H135495   0.403   3.557   6.326 -0.1232 -1.5594 -2.1357
 4668TIP3    H235496   0.390   3.511   6.470  1.4624 -0.1082 -1.4892
 4669TIP3   OH235497   6.163   4.793  16.754 -0.3372 -0.0320 -0.0074
 4669TIP3    H135498   6.152   4.743  16.673 -0.1961 -0.8216  0.4414
 4669TIP3    H235499   6.079   4.837  16.767  0.2194  1.5658 -1.5136
 4670TIP3   OH235500   6.560   4.395  14.295 -0.1984  0.3771 -0.7074
 4670TIP3    H135501   6.643   4.347  14.306  0.9501  2.4310  0.1462
 4670TIP3    H235502   6.493   4.335  14.329  1.0162 -1.0414 -0.6948
 4671TIP3   OH235503   4.342   5.815  15.168 -0.7048  0.4124  0.5828
 4671TIP3    H135504   4.374   5.729  15.141 -1.5199  0.5367 -0.9218
 4671TIP3    H235505   4.252   5.798  15.197 -1.7211  1.0076 -1.9213
 4672TIP3   OH235506   5.232   3.158   2.444  0.1161 -0.2509 -0.5418
 4672TIP3    H135507   5.239   3.075   2.490  2.4715  0.3235  0.3028
 4672TIP3    H235508   5.221   3.134   2.352  0.7943 -1.5098 -0.3085
 4673TIP3   OH235509   2.382   0.873  16.793  0.5893  0.4035  0.4252
 4673TIP3    H135510   2.454   0.812  16.777  1.0368  0.7740  1.0046
 4673TIP3    H235511   2.384   0.887  16.888  0.1425  0.9023  0.3614
 4674TIP3   OH235512   0.294   2.380  14.095  0.4585  0.0351  1.0230
 4674TIP3    H135513   0.362   2.326  14.136  2.1901 -0.4331 -2.1508
 4674TIP3    H235514   0.337   2.463  14.075 -0.1988  0.1342 -0.0671
 4675TIP3   OH235515   1.767   2.950  12.164  0.2787  0.2145  0.1275
 4675TIP3    H135516   1.672   2.952  12.179  0.4016  0.7713  0.8829
 4675TIP3    H235517   1.783   2.862  12.129 -0.7156  0.6483 -1.5418
 4676TIP3   OH235518   6.665   3.785   4.355  0.7198 -0.2620  0.2448
 4676TIP3    H135519   6.738   3.734   4.320 -0.6089 -1.1921 -1.3111
 4676TIP3    H235520   6.653   3.856   4.291 -1.2987 -1.5902 -0.9786
 4677TIP3   OH235521   5.677   5.785  14.300 -0.2273  0.3032  0.3617
 4677TIP3    H135522   5.587   5.753  14.307  0.1170 -0.4907  1.2424
 4677TIP3    H235523   5.676   5.839  14.221 -1.4823  0.3291  0.3690
 4678TIP3   OH235524   4.444   1.300   2.926  0.0973 -0.3589  0.2730
 4678TIP3    H135525   4.474   1.309   3.016 -0.7281  0.0996  0.5135
 4678TIP3    H235526   4.456   1.388   2.888  1.2022 -0.7455 -0.3176
 4679TIP3   OH235527   3.098   3.473   0.479 -0.2605 -0.4040  0.3203
 4679TIP3    H135528   3.016   3.524   0.481 -0.1428 -0.1760 -0.4107
 4679TIP3    H235529   3.153   3.514   0.545 -0.5124 -0.1772  0.3938
 4680TIP3   OH235530   6.401   3.980   2.153  0.1547  0.1243  0.5032
 4680TIP3    H135531   6.450   3.978   2.072 -2.2440  0.0487 -1.0482
 4680TIP3    H235532   6.422   4.064   2.193 -0.0929  1.0210 -1.1911
 4681TIP3   OH235533   3.660   0.514   2.800  0.1083 -0.3247 -0.3525
 4681TIP3    H135534   3.571   0.540   2.824 -0.0395 -1.7535  0.7825
 4681TIP3    H235535   3.716   0.572   2.851 -0.2172 -1.6679  1.6573
 4682TIP3   OH235536   6.002   5.964   3.324  0.7236  0.0425  0.6050
 4682TIP3    H135537   6.085   6.008   3.341  1.2066 -0.6579  0.1136
 4682TIP3    H235538   6.027   5.874   3.303 -0.1297 -0.0593 -0.0006
 4683TIP3   OH235539   5.169   4.185   1.488  0.0989 -0.4982 -0.4496
 4683TIP3    H135540   5.232   4.120   1.519  1.6943  1.1661 -0.0481
 4683TIP3    H235541   5.106   4.194   1.559  0.7062 -0.5468  0.0970
 4684TIP3   OH235542   6.289   3.232   0.314  0.1253 -0.2033 -0.1373
 4684TIP3    H135543   6.315   3.204   0.226  0.2680 -1.5801  0.3119
 4684TIP3    H235544   6.213   3.288   0.300  1.2543  1.1324 -1.2466
 4685TIP3   OH235545   2.148   6.324   4.969  0.6005  0.4730  0.3957
 4685TIP3    H135546   2.237   6.307   4.935  0.4368  1.2697 -0.4716
 4685TIP3    H235547   2.137   6.418   4.962 -0.3988  0.3605  0.2860
 4686TIP3   OH235548   3.337   2.281   0.701  0.2571 -0.1775 -0.1050
 4686TIP3    H135549   3.396   2.235   0.760  1.0512  0.2490 -0.5466
 4686TIP3    H235550   3.395   2.331   0.643 -0.5504  0.7988 -0.1058
 4687TIP3   OH235551   1.204   1.623   3.783  0.0345  0.4670  0.1267
 4687TIP3    H135552   1.290   1.580   3.781  0.6501  1.6689 -0.3632
 4687TIP3    H235553   1.169   1.601   3.869 -0.4232 -2.3534 -0.6881
 4688TIP3   OH235554   5.264   0.385  14.234  0.6595 -0.3407  0.1602
 4688TIP3    H135555   5.313   0.317  14.281  1.9789 -0.8201 -1.8051
 4688TIP3    H235556   5.330   0.432  14.183 -0.6905  0.1701 -1.1864
 4689TIP3   OH235557   6.566   3.648  14.877  0.4372 -0.2585  0.2494
 4689TIP3    H135558   6.572   3.682  14.966  1.3182 -1.0399  0.5068
 4689TIP3    H235559   6.492   3.695  14.838  2.0144  2.5292  0.3332
 4690TIP3   OH235560   1.114   6.050   3.646  0.0832  0.3284 -0.1020
 4690TIP3    H135561   1.140   5.966   3.686  0.9381  0.8910  0.5693
 4690TIP3    H235562   1.079   6.101   3.719 -1.9831 -0.0012 -0.7974
 4691TIP3   OH235563   4.413   5.545  13.406 -0.0630  0.2731 -0.8016
 4691TIP3    H135564   4.422   5.636  13.435 -0.3736  0.4601 -1.2767
 4691TIP3    H235565   4.330   5.516  13.442  0.8149 -0.3757  0.7717
 4692TIP3   OH235566   5.066   5.297   5.670  0.3362 -0.2411 -0.4431
 4692TIP3    H135567   4.980   5.288   5.628 -0.7590 -1.3938  1.8544
 4692TIP3    H235568   5.058   5.374   5.725  1.8019  1.3269 -2.2687
 4693TIP3   OH235569   2.090   4.502  15.088  0.7611  0.5637 -0.2409
 4693TIP3    H135570   2.163   4.535  15.141  0.6274  2.5472 -1.2058
 4693TIP3    H235571   2.117   4.519  14.998 -0.0655 -0.5190 -0.7082
 4694TIP3   OH235572   3.629   0.293   5.521 -0.3928  0.2519 -0.3360
 4694TIP3    H135573   3.721   0.290   5.545  0.2439  0.5492 -2.5896
 4694TIP3    H235574   3.601   0.382   5.545 -0.8899 -0.6342  2.8113
 4695TIP3   OH235575   1.681   3.740  10.700 -0.2460  0.1120  0.1847
 4695TIP3    H135576   1.768   3.732  10.661  1.4004 -1.7565  3.8032
 4695TIP3    H235577   1.624   3.689  10.643  2.0462 -2.7321  0.2346
 4696TIP3   OH235578   0.358   6.481   5.284 -0.7055  0.2914  0.2180
 4696TIP3    H135579   0.440   6.468   5.332 -0.9288 -0.5098  0.3830
 4696TIP3    H235580   0.324   6.564   5.319  1.0902  1.8229 -1.3779
 4697TIP3   OH235581   3.644   0.794  16.274  0.2782  0.6511 -0.5845
 4697TIP3    H135582   3.706   0.755  16.213 -0.1057  0.6825 -1.0042
 4697TIP3    H235583   3.668   0.758  16.360 -0.5796 -1.2166 -1.0637
 4698TIP3   OH235584   6.716   5.164   4.748 -0.5830  0.2945 -0.0876
 4698TIP3    H135585   6.772   5.133   4.677 -0.7119  2.3354 -1.1545
 4698TIP3    H235586   6.776   5.194   4.816 -0.4570 -1.9353  0.8928
 4699TIP3   OH235587   1.800   0.859  15.280 -0.4835 -0.0856 -0.2705
 4699TIP3    H135588   1.764   0.911  15.352  1.1475  0.6161  0.0996
 4699TIP3    H235589   1.725   0.812  15.244 -1.5880  0.6531  0.9640
 4700TIP3   OH235590   1.969   2.728  12.328  0.2637 -0.1054  0.1788
 4700TIP3    H135591   1.965   2.647  12.379  2.4748  0.1675  0.8914
 4700TIP3    H235592   2.003   2.794  12.388 -1.4704  1.4085 -0.3924
 4701TIP3   OH235593   4.740   0.447  12.491  0.6410 -0.1776 -0.4652
 4701TIP3    H135594   4.680   0.397  12.546  2.2089 -0.4406  1.1125
 4701TIP3    H235595   4.687   0.520  12.458 -0.9095 -1.2244 -0.3847
 4702TIP3   OH235596   0.127   4.804   2.046  0.1559  0.3023 -0.4339
 4702TIP3    H135597   0.183   4.762   1.981  1.0706  0.2728  0.3558
 4702TIP3    H235598   0.187   4.834   2.114 -0.8483 -0.4496  0.8395
 4703TIP3   OH235599   6.077   5.230  17.262 -0.2176 -0.0225 -1.0620
 4703TIP3    H135600   6.055   5.170  17.333  1.6192 -1.7821 -1.8743
 4703TIP3    H235601   6.065   5.317  17.299 -1.8791 -0.8704  0.5246
 4704TIP3   OH235602   4.998   6.332  15.066  0.4866  0.3773 -0.4497
 4704TIP3    H135603   4.914   6.310  15.026 -0.8494  1.3021  1.6307
 4704TIP3    H235604   5.045   6.381  14.999 -1.4970  1.5754 -1.0468
 4705TIP3   OH235605   4.241   0.643  16.699  0.3227 -0.0332  0.2243
 4705TIP3    H135606   4.153   0.613  16.719  0.9964 -1.5018  1.1705
 4705TIP3    H235607   4.268   0.591  16.623 -0.9590  3.1290 -2.6570
 4706TIP3   OH235608   6.710   3.988  14.729 -0.0627  0.1252 -0.1215
 4706TIP3    H135609   6.673   3.961  14.813 -0.3208 -2.1712 -0.8944
 4706TIP3    H235610   6.803   3.965  14.735  0.4786  2.2240  0.3704
 4707TIP3   OH235611   5.996   4.408   1.783 -0.3476 -0.0286 -0.0163
 4707TIP3    H135612   5.996   4.497   1.748 -0.2589 -0.4288 -1.0710
 4707TIP3    H235613   5.940   4.359   1.723 -0.4677 -0.6716  0.6088
 4708TIP3   OH235614   3.395   1.927  12.224 -0.0351 -0.5905  0.0514
 4708TIP3    H135615   3.486   1.954  12.236  0.0709  1.0379 -3.2501
 4708TIP3    H235616   3.343   2.005  12.246 -0.6694 -1.4214  1.6547
 4709TIP3   OH235617   2.671   3.320   0.594  0.8018 -0.0884  0.0409
 4709TIP3    H135618   2.712   3.241   0.630 -0.0143 -0.0123  1.1795
 4709TIP3    H235619   2.715   3.333   0.510  1.2095 -1.5482 -0.0107
 4710TIP3   OH235620   0.853   0.827  11.967  0.1039 -0.3280  0.5309
 4710TIP3    H135621   0.831   0.872  11.886  3.2468 -0.0859 -0.3392
 4710TIP3    H235622   0.801   0.872  12.034 -1.2850  0.6217 -1.0962
 4711TIP3   OH235623   5.258   5.757  15.378  0.5226 -0.5232  0.8587
 4711TIP3    H135624   5.215   5.677  15.346 -1.6847  0.8193  0.2153
 4711TIP3    H235625   5.255   5.750  15.473  0.4473 -1.2681  0.8057
 4712TIP3   OH235626   0.157   1.072   4.130 -0.2768 -0.5222 -0.4585
 4712TIP3    H135627   0.113   1.074   4.215 -0.2148  1.0914 -0.4283
 4712TIP3    H235628   0.096   1.025   4.073 -1.9213  1.3257 -0.3256
 4713TIP3   OH235629   1.235   1.526   4.671 -0.4007 -0.1208 -0.7587
 4713TIP3    H135630   1.281   1.442   4.659  0.7098  0.3011  0.2960
 4713TIP3    H235631   1.174   1.509   4.743  0.6458  0.2665  0.2426
 4714TIP3   OH235632   6.197   1.339   5.448 -0.7258 -0.2645  0.4182
 4714TIP3    H135633   6.197   1.424   5.490 -0.9219 -0.5575  1.0159
 4714TIP3    H235634   6.106   1.323   5.424 -0.7303 -0.4192  0.5373
 4715TIP3   OH235635   0.218   0.013  12.446  0.2920 -0.1811  0.5971
 4715TIP3    H135636   0.151  -0.053  12.430  0.9622 -1.0011  1.1073
 4715TIP3    H235637   0.300  -0.035  12.447  0.7910  0.6482  1.0132
 4716TIP3   OH235638   0.210   1.652  13.321  0.1211 -0.2485  0.2166
 4716TIP3    H135639   0.171   1.576  13.365  0.7948 -0.4877  0.4133
 4716TIP3    H235640   0.154   1.726  13.346 -0.1027 -0.5529  0.6236
 4717TIP3   OH235641   1.853   4.139   5.480  0.2661  0.3470 -0.4795
 4717TIP3    H135642   1.895   4.186   5.552  1.1345  0.0130 -0.7480
 4717TIP3    H235643   1.847   4.049   5.510  0.1364  0.3129 -0.6068
 4718TIP3   OH235644   0.598   3.317  16.574  0.1095 -0.1868 -0.3518
 4718TIP3    H135645   0.586   3.234  16.527  2.6208 -0.1510 -1.1977
 4718TIP3    H235646   0.677   3.355  16.535  0.1928  1.6267  1.4431
 4719TIP3   OH235647   6.219   1.276  15.589  0.1975  0.2591 -0.2914
 4719TIP3    H135648   6.214   1.189  15.549  0.3006 -0.2875  0.8273
 4719TIP3    H235649   6.275   1.326  15.530  1.8694 -1.0678  0.0912
 4720TIP3   OH235650   1.163   6.343  12.043  0.1041 -0.2450  0.1132
 4720TIP3    H135651   1.254   6.370  12.032 -0.3370  0.8506 -0.9597
 4720TIP3    H235652   1.112   6.401  11.987 -1.0881 -2.0587 -0.8171
 4721TIP3   OH235653   5.883   3.955   0.337 -0.1031 -0.4560  0.5245
 4721TIP3    H135654   5.842   3.947   0.423 -2.0980  0.1282 -0.3023
 4721TIP3    H235655   5.885   4.049   0.319  0.1343 -0.5772 -0.1288
 4722TIP3   OH235656   5.413   3.785  10.979  0.2312  0.5049 -0.3539
 4722TIP3    H135657   5.373   3.842  10.914  0.0385 -0.3556 -1.0145
 4722TIP3    H235658   5.342   3.763  11.040 -0.6894 -1.9054 -2.1397
 4723TIP3   OH235659   5.499   1.749   0.231 -0.3413  0.3557  0.6780
 4723TIP3    H135660   5.528   1.785   0.148 -2.1129 -0.5997 -0.4355
 4723TIP3    H235661   5.567   1.687   0.256  0.3665  0.8953  0.1188
 4724TIP3   OH235662   2.213   5.815   2.482  0.1913 -0.2904  0.0227
 4724TIP3    H135663   2.271   5.803   2.557  0.8296  0.1158 -0.3975
 4724TIP3    H235664   2.154   5.886   2.509 -1.5568 -2.1177  1.2898
 4725TIP3   OH235665   5.762   0.877  11.793 -0.0476  0.1691 -0.2518
 4725TIP3    H135666   5.755   0.928  11.712 -2.9313 -0.3641 -0.4345
 4725TIP3    H235667   5.737   0.938  11.862 -0.4343 -0.1483 -0.1094
 4726TIP3   OH235668   0.788   6.197  16.626 -0.4867 -0.4786 -0.3431
 4726TIP3    H135669   0.789   6.259  16.553 -1.2993  0.4088  0.3676
 4726TIP3    H235670   0.853   6.130  16.602  1.4418  1.3464 -0.5486
 4727TIP3   OH235671   1.321   4.010  16.789  0.5640 -0.1824  0.1480
 4727TIP3    H135672   1.354   4.048  16.870 -0.4815  0.2622  0.3780
 4727TIP3    H235673   1.247   3.955  16.816  0.0166  0.2059 -0.5298
 4728TIP3   OH235674   4.049   0.823   2.123  0.0129  0.3434  0.5312
 4728TIP3    H135675   3.991   0.837   2.048  1.1149 -0.7690 -0.5577
 4728TIP3    H235676   3.999   0.765   2.181 -0.4153  0.3333  0.1580
 4729TIP3   OH235677   6.451   1.847  11.880 -0.3542 -0.1294 -0.6929
 4729TIP3    H135678   6.469   1.837  11.974 -1.0844  0.4057 -0.4786
 4729TIP3    H235679   6.506   1.920  11.853  0.0243 -0.4277 -0.7349
 4730TIP3   OH235680   1.012   2.218  11.076 -0.2995 -0.3355 -0.1470
 4730TIP3    H135681   0.937   2.274  11.057 -1.8613 -1.7062  1.5502
 4730TIP3    H235682   1.075   2.275  11.119 -0.4228  0.7864 -1.3834
 4731TIP3   OH235683   0.909   4.616  11.478  0.1852  0.3642  0.0064
 4731TIP3    H135684   0.852   4.541  11.465  0.3652 -0.1205  1.7731
 4731TIP3    H235685   0.916   4.625  11.573  0.2375  2.5655 -0.1440
 4732TIP3   OH235686   6.515   0.955   0.777  0.1307  0.1360  0.1391
 4732TIP3    H135687   6.474   0.913   0.852  0.2951  2.5675  1.6902
 4732TIP3    H235688   6.563   0.885   0.733 -0.7156 -1.5411  1.7611
 4733TIP3   OH235689   5.869   0.581   2.857  0.1422  0.2546 -0.1252
 4733TIP3    H135690   5.864   0.665   2.810 -1.9554 -0.3737 -1.1262
 4733TIP3    H235691   5.779   0.550   2.860  0.8213 -1.7676  0.6535
 4734TIP3   OH235692   1.400   6.505   5.622 -0.3114 -0.0883  0.2761
 4734TIP3    H135693   1.311   6.540   5.618 -0.4759 -0.2293  1.9630
 4734TIP3    H235694   1.389   6.415   5.654  0.4442 -0.0343  0.7166
 4735TIP3   OH235695   3.857   6.447  12.211 -0.3688 -0.2109  0.5160
 4735TIP3    H135696   3.850   6.368  12.157 -0.2340  0.3146 -0.2884
 4735TIP3    H235697   3.833   6.418  12.299  0.9371 -1.4452  0.5014
 4736TIP3   OH235698   4.525   1.908  15.160 -0.1209 -0.5438  0.1440
 4736TIP3    H135699   4.497   1.820  15.134 -1.1635 -0.3789  0.6527
 4736TIP3    H235700   4.443   1.954  15.180  0.4188  0.5248 -0.0576
 4737TIP3   OH235701   3.861   6.463   4.921 -0.3687 -0.3578  0.4890
 4737TIP3    H135702   3.866   6.381   4.971 -0.6240 -0.2470  0.7004
 4737TIP3    H235703   3.785   6.451   4.863  0.7687 -1.0517 -0.9091
 4738TIP3   OH235704   2.763   0.752  11.451  0.5111 -0.1651  0.3480
 4738TIP3    H135705   2.797   0.781  11.367 -1.4443 -2.4915 -1.4193
 4738TIP3    H235706   2.784   0.658  11.454 -1.4497 -0.6296  1.3487
 4739TIP3   OH235707   3.933   0.835  11.485 -0.3253  0.1829  0.2368
 4739TIP3    H135708   3.852   0.800  11.522  0.2460  0.0545  1.3942
 4739TIP3    H235709   3.937   0.796  11.397  0.0865 -2.4124  1.3117
 4740TIP3   OH235710   3.491   4.776  13.640  0.1208 -0.0827 -0.3530
 4740TIP3    H135711   3.411   4.751  13.594 -0.1664  0.4301 -0.1431
 4740TIP3    H235712   3.544   4.697  13.641 -0.0080 -0.1894 -1.2706
 4741TIP3   OH235713   5.133   3.031   4.320  0.0308  0.2788 -0.2372
 4741TIP3    H135714   5.199   3.004   4.257  0.8123  0.3747  0.5191
 4741TIP3    H235715   5.138   2.964   4.389  1.2235  1.6920  1.1268
 4742TIP3   OH235716   0.556   1.149  11.798  0.4058 -0.6416  0.1940
 4742TIP3    H135717   0.462   1.139  11.787  0.2753 -0.5376  1.1542
 4742TIP3    H235718   0.573   1.241  11.782  0.2183 -0.4901  0.8423
 4743TIP3   OH235719   6.601   3.428  15.891  0.3705 -0.2988 -0.2458
 4743TIP3    H135720   6.651   3.346  15.887  0.7813 -0.0289 -0.7470
 4743TIP3    H235721   6.629   3.477  15.813 -0.7480 -0.1815 -0.5917
 4744TIP3   OH235722   6.427   0.324   1.561 -0.1692  0.0791  0.5492
 4744TIP3    H135723   6.372   0.396   1.589 -0.1361  0.5114 -0.4740
 4744TIP3    H235724   6.389   0.294   1.478  0.4594 -0.3617  0.4084
 4745TIP3   OH235725   4.697   1.916   3.958 -0.4307  0.2475 -0.3537
 4745TIP3    H135726   4.676   1.992   3.903  0.4646  1.6909  1.2169
 4745TIP3    H235727   4.760   1.866   3.905 -0.8407  0.7124 -1.3110
 4746TIP3   OH235728   1.645   6.346   0.113  0.3183 -1.3336  0.0993
 4746TIP3    H135729   1.670   6.254   0.120 -0.7134 -1.6808 -0.5278
 4746TIP3    H235730   1.598   6.364   0.194  0.6590 -1.3097  0.2932
 4747TIP3   OH235731   1.666   0.803  12.818 -0.4441  0.0054  0.0800
 4747TIP3    H135732   1.673   0.739  12.748  1.1460 -0.5402  0.6757
 4747TIP3    H235733   1.639   0.752  12.895  2.3596 -0.3773  0.9537
 4748TIP3   OH235734   1.591   2.883  14.104  0.1881  0.6365 -0.4681
 4748TIP3    H135735   1.609   2.795  14.073 -1.1299  0.5277 -0.9843
 4748TIP3    H235736   1.531   2.920  14.039 -0.8311  1.2106  0.7480
 4749TIP3   OH235737   0.858   4.946  14.607 -0.5018 -0.3154  0.1696
 4749TIP3    H135738   0.818   4.961  14.692  1.6624 -1.3884  1.4663
 4749TIP3    H235739   0.937   5.001  14.608  0.9623 -2.3172  0.0000
 4750TIP3   OH235740   2.155   5.843  13.705 -1.0123 -0.5759 -0.1576
 4750TIP3    H135741   2.072   5.804  13.677 -1.5072  0.3491  0.0131
 4750TIP3    H235742   2.172   5.803  13.790 -1.3912 -0.5940 -0.0892
 4751TIP3   OH235743   5.784   6.198  14.946  0.0584 -0.0663  0.8538
 4751TIP3    H135744   5.707   6.153  14.981  0.1100  0.5055  1.7511
 4751TIP3    H235745   5.764   6.213  14.854 -1.0782  0.4059  1.1550
 4752TIP3   OH235746   6.807   0.870  11.562  0.0085  0.1414 -0.4522
 4752TIP3    H135747   6.759   0.867  11.644  0.7766 -1.3908 -0.0275
 4752TIP3    H235748   6.881   0.811  11.575  0.5596  0.4480 -1.9852
 4753TIP3   OH235749   0.191   1.073   3.664  0.2079  0.1009 -0.1461
 4753TIP3    H135750   0.252   1.008   3.631 -0.4264  0.4376 -2.1176
 4753TIP3    H235751   0.246   1.145   3.694  0.8717 -0.9488  1.2584
 4754TIP3   OH235752   5.841   5.712  12.928  0.4655  0.3175 -0.3977
 4754TIP3    H135753   5.936   5.716  12.929  0.4915  0.1030  1.5460
 4754TIP3    H235754   5.819   5.678  12.841  2.1989 -0.5875 -0.5187
 4755TIP3   OH235755   4.896   3.343   4.799  0.3993  0.1409 -0.0716
 4755TIP3    H135756   4.906   3.270   4.860 -1.0182 -0.7706 -0.8768
 4755TIP3    H235757   4.968   3.331   4.736 -1.4463 -2.3675 -1.9038
 4756TIP3   OH235758   5.806   2.337  14.196 -0.2975  0.3631 -0.1570
 4756TIP3    H135759   5.820   2.284  14.274 -0.8134 -0.9501 -0.9209
 4756TIP3    H235760   5.863   2.299  14.130  0.9232  2.1122 -0.1760
 4757TIP3   OH235761   4.309   5.942   0.704  0.3404 -0.2904 -0.7491
 4757TIP3    H135762   4.318   5.962   0.797  0.3312 -1.1752 -0.5488
 4757TIP3    H235763   4.214   5.943   0.688  0.3459 -0.0580 -0.7704
 4758TIP3   OH235764   5.616   0.507   2.529  0.5295  0.0537  0.4406
 4758TIP3    H135765   5.684   0.439   2.527  1.2111  0.7468 -1.4675
 4758TIP3    H235766   5.655   0.582   2.484  0.0595  2.0120  3.0482
 4759TIP3   OH235767   3.643   3.964  12.236 -0.1430 -0.1115  0.0780
 4759TIP3    H135768   3.658   4.058  12.227 -0.5644 -0.0506 -0.0108
 4759TIP3    H235769   3.636   3.950  12.330 -0.0582 -0.0550  0.0931
 4760TIP3   OH235770   6.739   6.029   4.925  0.5666 -0.3531 -0.7091
 4760TIP3    H135771   6.755   5.996   4.837 -0.3413  1.7535 -1.7475
 4760TIP3    H235772   6.811   6.091   4.940  0.1019  0.1322 -0.4563
 4761TIP3   OH235773   5.827   1.161  14.550 -0.0800  0.6229 -0.0018
 4761TIP3    H135774   5.794   1.251  14.560  0.0796  0.6368  0.4172
 4761TIP3    H235775   5.760   1.117  14.498 -2.0513 -0.0195  2.8586
 4762TIP3   OH235776   1.055   3.871   5.287 -0.2180  0.4842  0.3068
 4762TIP3    H135777   1.013   3.873   5.373 -0.3686 -1.4608  0.3268
 4762TIP3    H235778   1.064   3.778   5.267  0.1567  0.8913 -1.6314
 4763TIP3   OH235779   3.990   4.487   6.303 -0.5420 -0.0011 -0.0901
 4763TIP3    H135780   4.082   4.469   6.319 -0.0771  0.2652 -2.1343
 4763TIP3    H235781   3.969   4.561   6.359 -0.0521 -1.2140  1.7673
 4764TIP3   OH235782   2.236   1.128   5.390  0.5975 -0.3479  0.1610
 4764TIP3    H135783   2.260   1.194   5.455  0.1072  0.4835 -0.4752
 4764TIP3    H235784   2.156   1.162   5.350  1.8264  0.0810 -2.0950
 4765TIP3   OH235785   2.557   6.122  16.005  0.3824 -0.6573  0.1881
 4765TIP3    H135786   2.637   6.154  16.046 -0.2117  1.0331  0.1026
 4765TIP3    H235787   2.581   6.036  15.970  2.5683  0.3851 -1.0780
 4766TIP3   OH235788   0.260   0.402  11.511 -0.0803 -0.1532  0.2866
 4766TIP3    H135789   0.176   0.448  11.500  0.1891  1.0130  2.6377
 4766TIP3    H235790   0.292   0.392  11.421 -1.8283  1.0874 -0.5548
 4767TIP3   OH235791   1.267   0.903  12.759 -0.2517  0.2633  0.4872
 4767TIP3    H135792   1.306   0.822  12.725 -1.4795  0.3614 -1.3290
 4767TIP3    H235793   1.174   0.882  12.770 -0.3725  1.0946  1.1444
 4768TIP3   OH235794   6.039   5.290  12.983 -0.3696  0.5653 -0.3010
 4768TIP3    H135795   6.068   5.341  12.907  1.8440  1.9648  1.3685
 4768TIP3    H235796   6.073   5.202  12.967  0.8072  1.0528 -0.5869
 4769TIP3   OH235797   3.282   1.446  14.882 -0.2464 -0.5857 -0.1926
 4769TIP3    H135798   3.262   1.515  14.946 -0.7919  1.3007 -2.2499
 4769TIP3    H235799   3.366   1.410  14.911 -1.5672 -1.5004  2.8516
 4770TIP3   OH235800   6.118   0.862   2.296 -0.3762 -0.4882  0.7106
 4770TIP3    H135801   6.080   0.850   2.383 -0.3686 -0.7544  0.6767
 4770TIP3    H235802   6.097   0.953   2.273 -0.2180 -0.3640  1.0655
 4771TIP3   OH235803   6.204   6.339   1.665 -0.4415 -0.0488 -0.1458
 4771TIP3    H135804   6.208   6.368   1.756 -1.5198 -0.2180 -0.0361
 4771TIP3    H235805   6.216   6.244   1.669  0.5812  0.0571 -0.2908
 4772TIP3   OH235806   3.430   3.260   2.139  0.0318 -0.2112  0.1267
 4772TIP3    H135807   3.452   3.345   2.178 -0.3564  0.0829 -0.2917
 4772TIP3    H235808   3.369   3.281   2.068 -0.5679 -0.8996  0.4266
 4773TIP3   OH235809   6.401   5.389  11.375 -0.0948  0.0625  0.4090
 4773TIP3    H135810   6.415   5.328  11.303 -1.2946  1.3676 -1.0088
 4773TIP3    H235811   6.456   5.464  11.353  0.4896 -0.0209  1.5313
 4774TIP3   OH235812   2.594   6.301  11.825 -0.6599 -0.1160  0.4646
 4774TIP3    H135813   2.662   6.262  11.881 -1.9505 -0.2850  1.9806
 4774TIP3    H235814   2.643   6.351  11.760  1.1295 -3.6664 -1.2596
 4775TIP3   OH235815   1.989   5.868  16.402  0.1840  0.3476  0.4625
 4775TIP3    H135816   1.963   5.954  16.368 -0.3934  0.1000  0.2797
 4775TIP3    H235817   2.083   5.878  16.421  0.4569  0.6067 -0.8729
 4776TIP3   OH235818   2.234   0.552  14.216  0.1824 -0.9238  0.5505
 4776TIP3    H135819   2.315   0.523  14.256 -0.0486 -2.0169  0.2622
 4776TIP3    H235820   2.167   0.494  14.253 -0.5950  0.4166  1.3353
 4777TIP3   OH235821   0.996   5.709  14.244 -0.0870 -0.4771  0.6299
 4777TIP3    H135822   0.998   5.629  14.190 -0.1202  0.4118 -0.7315
 4777TIP3    H235823   1.065   5.696  14.309  0.0480 -1.5259  0.2964
 4778TIP3   OH235824   3.785   6.501   0.546 -0.6687  0.3141  0.0112
 4778TIP3    H135825   3.778   6.459   0.461 -1.4950 -0.2440  0.3390
 4778TIP3    H235826   3.794   6.595   0.527  0.5539  0.0769 -0.7095
 4779TIP3   OH235827   5.205   4.088  14.726 -0.2162  0.4137  0.3302
 4779TIP3    H135828   5.171   4.175  14.704 -1.7010 -0.0121  0.8212
 4779TIP3    H235829   5.279   4.105  14.783  0.2860  1.3761 -0.5710
 4780TIP3   OH235830   1.387   3.726  17.031  0.2091  0.8323  0.2528
 4780TIP3    H135831   1.376   3.818  17.058 -1.1184  0.8533 -0.3002
 4780TIP3    H235832   1.298   3.692  17.025  0.6870 -0.4996  0.4144
 4781TIP3   OH235833   2.739   4.294  13.190  0.8955  0.4638  0.0360
 4781TIP3    H135834   2.780   4.327  13.111  0.5835 -1.2908 -0.9153
 4781TIP3    H235835   2.677   4.362  13.216  0.5071  0.7915 -1.6464
 4782TIP3   OH235836   0.092   0.455  12.274  0.4416 -0.1578  0.0693
 4782TIP3    H135837   0.153   0.432  12.344 -0.0017  2.0911  1.2757
 4782TIP3    H235838   0.105   0.387  12.208  0.4015 -2.8065  2.5751
 4783TIP3   OH235839   0.575   1.487   0.513  0.0847 -0.5259  0.3040
 4783TIP3    H135840   0.556   1.534   0.432  0.6408 -1.1422 -0.2015
 4783TIP3    H235841   0.550   1.396   0.493 -0.2785 -0.5819  1.0046
 4784TIP3   OH235842   1.588   6.087   2.907 -0.4391  0.0916  0.2457
 4784TIP3    H135843   1.569   6.022   2.839  0.2434  0.9741 -0.8209
 4784TIP3    H235844   1.677   6.116   2.887 -0.7098  1.2970  0.7470
 4785TIP3   OH235845   2.043   6.040  11.910 -0.3764  0.6165  0.3071
 4785TIP3    H135846   2.014   6.123  11.947  0.5493  1.0422  0.1155
 4785TIP3    H235847   2.013   6.043  11.819  1.8895  1.9388 -0.4716
 4786TIP3   OH235848   4.005   2.368   2.880 -0.2734 -0.1171  0.0463
 4786TIP3    H135849   3.995   2.276   2.903  1.1012  0.0647  1.5807
 4786TIP3    H235850   4.033   2.410   2.961 -0.5403  1.6066 -0.7041
 4787TIP3   OH235851   0.059   3.661   5.724  0.4930 -0.4144 -1.1459
 4787TIP3    H135852   0.127   3.603   5.690 -0.5775 -0.9381 -2.5171
 4787TIP3    H235853   0.072   3.743   5.677  0.4728 -0.3646 -1.0642
 4788TIP3   OH235854   4.768   4.463   4.982  0.3748 -0.4030 -0.3032
 4788TIP3    H135855   4.715   4.397   4.937 -1.3549  0.7698 -0.1039
 4788TIP3    H235856   4.712   4.541   4.984  1.9614  0.7701  0.3513
 4789TIP3   OH235857   4.308   4.484  13.420 -0.5196 -0.5055  0.2520
 4789TIP3    H135858   4.258   4.434  13.355 -1.5217  0.7045  0.0336
 4789TIP3    H235859   4.255   4.479  13.500  0.2281 -1.1967  0.7092
 4790TIP3   OH235860   2.008   2.876   3.000 -0.4566  0.3980  0.3671
 4790TIP3    H135861   1.937   2.832   3.046  0.6561 -2.1643 -0.2207
 4790TIP3    H235862   1.965   2.941   2.946 -2.2603 -0.3968  0.7926
 4791TIP3   OH235863   2.548   6.018  11.796  0.1906 -0.4063 -0.0074
 4791TIP3    H135864   2.632   6.000  11.753  0.5194  1.0892 -0.0350
 4791TIP3    H235865   2.537   6.113  11.788 -0.1430 -0.1821  2.4547
 4792TIP3   OH235866   5.751   6.391   5.020 -0.0348  0.0605 -0.3864
 4792TIP3    H135867   5.716   6.317   4.971 -0.3515  0.7409 -1.2122
 4792TIP3    H235868   5.680   6.417   5.078  0.3084 -0.6885  0.3797
 4793TIP3   OH235869   1.671   1.020  15.462  0.5309 -0.6496  0.3765
 4793TIP3    H135870   1.576   1.030  15.472  0.3601  0.2141 -1.6927
 4793TIP3    H235871   1.702   1.108  15.441  2.1355 -0.4665  3.0541
 4794TIP3   OH235872   1.995   2.879   3.980  0.2809 -0.0198 -0.1268
 4794TIP3    H135873   1.923   2.914   3.928 -0.1907  1.1893  1.2989
 4794TIP3    H235874   1.958   2.804   4.026 -0.3574  1.1305  1.2923
 4795TIP3   OH235875   5.270   0.457   1.802  0.6930  0.0081  0.0837
 4795TIP3    H135876   5.312   0.523   1.856  2.1272  0.2859 -1.2937
 4795TIP3    H235877   5.341   0.400   1.773 -0.3710 -1.5992  0.4670
 4796TIP3   OH235878   4.406   1.193  16.361  0.3395 -0.5075  0.5555
 4796TIP3    H135879   4.432   1.107  16.394  3.0121 -0.1034 -0.2308
 4796TIP3    H235880   4.475   1.252  16.392 -0.6926  1.1011 -0.0800
 4797TIP3   OH235881   0.717   1.207  13.993  0.4755 -0.2495  0.6475
 4797TIP3    H135882   0.703   1.114  14.010 -0.5543 -0.5647 -1.4870
 4797TIP3    H235883   0.631   1.239  13.966  0.9148  1.2196  0.9155
 4798TIP3   OH235884   0.543   1.426   5.090  0.2374  0.8375 -0.1550
 4798TIP3    H135885   0.481   1.451   5.022  0.7229  0.7222 -0.6484
 4798TIP3    H235886   0.500   1.451   5.172 -0.6288  0.4036 -0.4619
 4799TIP3   OH235887   2.040   1.685   2.955  0.1989 -0.1030  0.3136
 4799TIP3    H135888   2.046   1.688   3.050 -0.6737 -0.0133  0.3741
 4799TIP3    H235889   2.026   1.592   2.934 -0.8432  0.0393  0.3607
 4800TIP3   OH235890   3.368   6.629   5.526 -0.0750 -0.0618  0.1548
 4800TIP3    H135891   3.288   6.591   5.561 -0.7968  1.1121 -0.1799
 4800TIP3    H235892   3.371   6.717   5.562 -0.4582  0.9275 -2.0649
 4801TIP3   OH235893   1.205   1.493   3.474  0.2047  0.1692  0.5581
 4801TIP3    H135894   1.293   1.459   3.455  0.6979  0.5017  2.0957
 4801TIP3    H235895   1.215   1.588   3.471 -0.6750  0.2604 -1.5610
 4802TIP3   OH235896   2.091   0.890   6.636  0.7155  0.3930  0.3034
 4802TIP3    H135897   2.103   0.826   6.565  1.5026  2.0793 -1.1739
 4802TIP3    H235898   2.000   0.919   6.628  1.0618  1.2758 -0.6921
 4803TIP3   OH235899   0.630   5.566  12.728  0.3504  0.0697  0.2623
 4803TIP3    H135900   0.575   5.510  12.674  0.7717 -1.1678  1.0676
 4803TIP3    H235901   0.633   5.649  12.681 -1.6100 -0.0460 -0.1575
 4804TIP3   OH235902   1.024   1.263   6.154 -0.1235  1.0661 -0.1175
 4804TIP3    H135903   1.045   1.356   6.168  2.0369  0.8305 -1.2824
 4804TIP3    H235904   1.109   1.223   6.138 -1.2167 -0.7738 -1.6202
 4805TIP3   OH235905   2.959   0.912   1.801  0.0951 -0.0673  0.5760
 4805TIP3    H135906   3.004   0.838   1.842  0.3828  0.3036  0.9478
 4805TIP3    H235907   2.963   0.894   1.708 -1.3957 -1.3893  0.7452
 4806TIP3   OH235908   6.168   1.066  10.982 -0.2415 -0.0718  0.4174
 4806TIP3    H135909   6.174   1.006  10.907  1.2136  0.2682  0.2366
 4806TIP3    H235910   6.115   1.018  11.046 -1.9262 -0.1869 -0.9615
 4807TIP3   OH235911   1.832   3.705  17.096  0.1250 -0.0157  0.1542
 4807TIP3    H135912   1.811   3.760  17.171 -1.3403  0.5579 -0.6253
 4807TIP3    H235913   1.905   3.749  17.053  0.1851  0.3098  0.5843
 4808TIP3   OH235914   4.788   2.320   2.361  0.0281  0.7936 -0.0027
 4808TIP3    H135915   4.783   2.412   2.334 -0.6354  0.3704 -1.3894
 4808TIP3    H235916   4.880   2.307   2.383  0.4846  1.3480 -1.4649
 4809TIP3   OH235917   5.304   4.978  16.121 -0.8194  0.1240  0.2144
 4809TIP3    H135918   5.268   5.042  16.182  1.2664  0.7347  0.8824
 4809TIP3    H235919   5.317   5.026  16.039  1.6743  0.9161  1.0015
 4810TIP3   OH235920   3.652   5.993   5.247 -0.0921 -1.2924 -0.1025
 4810TIP3    H135921   3.650   6.077   5.293 -1.4401 -0.9495 -0.7516
 4810TIP3    H235922   3.682   6.014   5.159  0.0330 -1.5690 -0.1290
 4811TIP3   OH235923   0.672   2.062  15.255  0.6188 -0.4215  0.0758
 4811TIP3    H135924   0.638   1.983  15.213  1.2020  0.2449 -1.7448
 4811TIP3    H235925   0.666   2.044  15.349 -0.4708 -2.0939 -0.2766
 4812TIP3   OH235926   5.819   0.397   4.831  0.2419  0.6355 -0.4459
 4812TIP3    H135927   5.856   0.327   4.885  0.8052  0.9339 -0.4344
 4812TIP3    H235928   5.808   0.471   4.891  1.1198  1.0524 -0.7885
 4813TIP3   OH235929   1.052   6.577  12.536  0.4748 -0.2086 -0.2174
 4813TIP3    H135930   1.014   6.490  12.553 -0.0006  0.1482  0.6055
 4813TIP3    H235931   1.081   6.573  12.445 -3.4729  0.1806 -1.6791
 4814TIP3   OH235932   5.739   2.514   1.653 -0.3926  0.2140 -0.1147
 4814TIP3    H135933   5.705   2.595   1.618  0.0599  0.9665  1.1235
 4814TIP3    H235934   5.675   2.447   1.629 -0.2957  0.7432 -1.9750
 4815TIP3   OH235935   4.390   6.532  16.243 -0.4088 -0.6728  0.2380
 4815TIP3    H135936   4.327   6.582  16.191 -0.7401 -0.7276  0.5807
 4815TIP3    H235937   4.472   6.580  16.234 -0.4059 -0.8049 -0.5184
 4816TIP3   OH235938   6.031   5.380  16.275 -0.6113  0.3711 -0.3887
 4816TIP3    H135939   6.075   5.296  16.266 -2.9655 -1.2539  1.7911
 4816TIP3    H235940   6.074   5.422  16.349 -0.0291  0.6830 -0.9013
 4817TIP3   OH235941   4.358   3.883  14.491 -0.1080 -0.7279 -0.3486
 4817TIP3    H135942   4.439   3.934  14.491  0.1950 -1.1135  1.6221
 4817TIP3    H235943   4.379   3.804  14.441  0.7159 -0.7633  0.0352
 4818TIP3   OH235944   3.148   1.874  16.702  0.0832  0.3194 -0.8063
 4818TIP3    H135945   3.094   1.910  16.772 -0.2712 -0.5698 -0.6153
 4818TIP3    H235946   3.197   1.803  16.743 -1.4616 -1.4105 -1.8381
 4819TIP3   OH235947   3.682   2.464   3.940 -0.1702  0.4265 -0.0613
 4819TIP3    H135948   3.731   2.533   3.895  0.4262  0.3940  0.5135
 4819TIP3    H235949   3.604   2.508   3.973 -0.5227  0.4891 -0.9589
 4820TIP3   OH235950   6.820   0.886  13.641 -0.8246  0.5212  0.2598
 4820TIP3    H135951   6.820   0.924  13.553  2.2751  0.1693  0.0017
 4820TIP3    H235952   6.829   0.962  13.699  0.0959  0.5786  0.0605
 4821TIP3   OH235953   4.902   6.447  11.877 -0.1553 -0.1825  0.0141
 4821TIP3    H135954   4.827   6.409  11.832 -0.5236  0.7755 -0.1832
 4821TIP3    H235955   4.869   6.474  11.963 -0.2519  1.0153 -0.3881
 4822TIP3   OH235956   2.354   2.233  14.589 -0.1981  0.3578 -0.0760
 4822TIP3    H135957   2.414   2.170  14.549 -0.6903 -0.3363  0.2543
 4822TIP3    H235958   2.308   2.273  14.515 -0.2989 -0.0958 -0.2587
 4823TIP3   OH235959   4.176   0.441   6.432  0.4017  0.1798  0.1560
 4823TIP3    H135960   4.103   0.418   6.374  0.3879 -1.6753  0.8439
 4823TIP3    H235961   4.141   0.431   6.520  1.4377 -0.7168  0.4962
 4824TIP3   OH235962   0.516   1.225  12.814  0.2658  0.0248 -0.0985
 4824TIP3    H135963   0.434   1.263  12.782  0.7378  1.4620  0.3042
 4824TIP3    H235964   0.505   1.130  12.804 -2.4070 -0.0048  2.2222
 4825TIP3   OH235965   5.668   1.829  13.498 -0.1157 -0.6728  0.0324
 4825TIP3    H135966   5.603   1.761  13.478 -1.0148  0.5426 -1.4400
 4825TIP3    H235967   5.752   1.783  13.496 -0.3611 -1.3152 -4.0968
 4826TIP3   OH235968   5.347   0.017  13.223  0.5723  0.2654 -0.1403
 4826TIP3    H135969   5.342   0.113  13.215  0.6155  0.2988  0.2343
 4826TIP3    H235970   5.388   0.002  13.309  2.6244 -0.0483 -1.0972
 4827TIP3   OH235971   6.422   6.313  14.395  0.2581  0.3938 -0.2684
 4827TIP3    H135972   6.462   6.386  14.347  0.9164  0.4624  0.3722
 4827TIP3    H235973   6.418   6.344  14.485 -1.0697  0.3045 -0.2801
 4828TIP3   OH235974   2.926   2.020  11.129  0.2881 -0.3057  0.0279
 4828TIP3    H135975   2.966   1.937  11.156 -0.3204 -0.3830  0.7097
 4828TIP3    H235976   2.902   2.006  11.037 -1.0671 -1.3788  0.5159
 4829TIP3   OH235977   4.078   5.278   0.699 -0.0845 -0.2774  0.2680
 4829TIP3    H135978   4.063   5.340   0.770 -0.4753  1.2462 -1.0966
 4829TIP3    H235979   4.112   5.200   0.742 -0.5528  0.5096  2.1461
 4830TIP3   OH235980   6.157   0.178   5.055  0.2989 -0.5760 -0.0368
 4830TIP3    H135981   6.224   0.129   5.008  0.0682 -0.8334 -0.1048
 4830TIP3    H235982   6.192   0.267   5.061  0.7588 -0.7687  0.1678
 4831TIP3   OH235983   5.383   1.497  14.633  0.0313 -0.2596 -0.3055
 4831TIP3    H135984   5.369   1.544  14.551  1.4663  1.0954  0.1796
 4831TIP3    H235985   5.325   1.421  14.627 -0.8962  0.5224 -1.9739
 4832TIP3   OH235986   6.104   5.102  11.443  0.0005  0.0663  0.3347
 4832TIP3    H135987   6.016   5.072  11.463  0.0726 -1.3781 -1.2619
 4832TIP3    H235988   6.092   5.185  11.397 -0.6870 -0.9573 -1.4259
 4833TIP3   OH235989   5.378   3.979  13.406  0.1389 -0.2498  0.3687
 4833TIP3    H135990   5.333   4.063  13.397  0.6101 -0.1679 -1.4105
 4833TIP3    H235991   5.460   4.001  13.451  0.5379  0.3685 -0.6154
 4834TIP3   OH235992   0.756   2.713  16.304 -0.1432 -0.1882  0.4313
 4834TIP3    H135993   0.743   2.776  16.376  0.2705  0.8831 -0.4039
 4834TIP3    H235994   0.754   2.628  16.347 -3.4720  0.1896  1.2556
 4835TIP3   OH235995   3.348   0.510   0.611  0.1110  0.3236  0.0863
 4835TIP3    H135996   3.427   0.456   0.603 -0.1852 -0.0325 -0.4951
 4835TIP3    H235997   3.381   0.600   0.608  0.5847  0.1817  0.8088
 4836TIP3   OH235998   4.964   2.557   3.598  0.6622 -0.5038  0.3053
 4836TIP3    H135999   4.883   2.602   3.576  1.2886 -0.1475 -1.3959
 4836TIP3    H236000   5.015   2.621   3.647 -0.0829 -0.7463  1.4271
 4837TIP3   OH236001   4.903   5.257  12.313 -0.1988  0.9157  0.5800
 4837TIP3    H136002   4.808   5.261  12.307 -0.1535  0.3416 -1.2899
 4837TIP3    H236003   4.934   5.328  12.256  0.4735  0.2411  0.0808
 4838TIP3   OH236004   3.015   6.606  10.110 -0.4094 -0.1290 -0.0146
 4838TIP3    H136005   2.992   6.548  10.038 -0.6854  0.2834 -0.2623
 4838TIP3    H236006   3.109   6.621  10.100 -0.6861  1.0721 -1.1617
 4839TIP3   OH236007   5.008   4.323  15.726  0.0761  0.4323  0.3581
 4839TIP3    H136008   4.962   4.347  15.806  0.2885  2.9858 -0.1963
 4839TIP3    H236009   5.074   4.260  15.754 -2.3353 -1.7603  1.4971
 4840TIP3   OH236010   1.914   1.266  10.851  0.4241  0.2266 -0.2989
 4840TIP3    H136011   1.876   1.296  10.768 -3.2386 -2.4497  0.1390
 4840TIP3    H236012   1.989   1.213  10.825 -0.5476 -0.4289 -1.9399
 4841TIP3   OH236013   6.530   6.021  12.563  0.4625  0.1855 -0.2191
 4841TIP3    H136014   6.461   6.080  12.592 -0.1645 -0.1624 -0.9650
 4841TIP3    H236015   6.484   5.949  12.521  1.1917 -1.0529  1.0248
 4842TIP3   OH236016   4.753   5.994   6.497  0.0055  0.3714 -0.2125
 4842TIP3    H136017   4.779   6.073   6.451 -0.6279 -1.0397 -3.2703
 4842TIP3    H236018   4.817   5.928   6.470 -1.5441 -0.9930 -0.7578
 4843TIP3   OH236019   1.941   2.249   0.786  0.2245  0.6958 -0.3170
 4843TIP3    H136020   1.968   2.338   0.762  1.1837  0.8667  1.2350
 4843TIP3    H236021   1.866   2.230   0.729 -2.2368  3.7961  1.5629
 4844TIP3   OH236022   3.227   0.328   5.457 -0.3392  0.4374  0.5298
 4844TIP3    H136023   3.134   0.323   5.481 -0.3172 -2.3258  0.3222
 4844TIP3    H236024   3.273   0.295   5.534  0.2737 -0.7651 -0.3240
 4845TIP3   OH236025   5.651   4.134  15.561 -0.3622 -0.2250 -0.2624
 4845TIP3    H136026   5.737   4.137  15.603 -0.2529 -0.7848 -0.4317
 4845TIP3    H236027   5.590   4.164  15.628 -0.2196 -1.2942  0.3740
 4846TIP3   OH236028   2.122   3.015  15.394  0.4413  0.2845 -0.0583
 4846TIP3    H136029   2.038   3.042  15.358  0.3110 -1.4824 -1.2035
 4846TIP3    H236030   2.103   2.989  15.484 -0.4523 -0.9568 -0.5794
 4847TIP3   OH236031   5.016   5.518   3.547  0.2144 -0.5523  0.0269
 4847TIP3    H136032   4.972   5.441   3.583  1.4246 -0.4077  1.9144
 4847TIP3    H236033   5.107   5.492   3.538  0.3128  0.1057 -1.0226
 4848TIP3   OH236034   3.225   5.840   2.308 -0.2488  0.1813 -0.0899
 4848TIP3    H136035   3.177   5.776   2.256  0.0216 -1.7215  1.8580
 4848TIP3    H236036   3.158   5.886   2.358 -0.2766 -0.8119  0.8342
 4849TIP3   OH236037   2.953   4.649   5.233  0.1857 -0.4610  0.0965
 4849TIP3    H136038   2.911   4.664   5.149 -0.6619  0.0183  0.5877
 4849TIP3    H236039   2.973   4.737   5.265  0.3272 -0.6306  0.4752
 4850TIP3   OH236040   5.401   2.485   1.402 -0.8225  0.3436 -0.3792
 4850TIP3    H136041   5.343   2.553   1.368 -0.6653 -0.2641 -1.9505
 4850TIP3    H236042   5.354   2.403   1.386  0.5433 -0.1922 -2.0080
 4851TIP3   OH236043   2.932   5.848  16.840 -0.1596  0.1187 -0.5382
 4851TIP3    H136044   2.882   5.785  16.891  2.3547 -0.2151  1.7684
 4851TIP3    H236045   2.908   5.830  16.749 -1.1531 -2.6974  0.1740
 4852TIP3   OH236046   1.035   6.649   4.967  0.1578  0.6014  0.2774
 4852TIP3    H136047   0.995   6.733   4.990  1.2406  1.1268  0.3196
 4852TIP3    H236048   1.104   6.637   5.032 -1.0298 -1.1401  1.2667
 4853TIP3   OH236049   2.089   4.202  13.124  0.3377 -0.1973  0.4625
 4853TIP3    H136050   2.099   4.220  13.031  2.4193  0.3209  0.7377
 4853TIP3    H236051   2.016   4.141  13.129  0.7127 -0.8772 -1.5710
 4854TIP3   OH236052   5.997   6.469   3.526  0.1356 -0.2007  0.0745
 4854TIP3    H136053   6.074   6.502   3.479 -0.1692 -0.5388 -0.6702
 4854TIP3    H236054   5.956   6.409   3.465 -1.1078  0.4823  0.2169
 4855TIP3   OH236055   6.562   5.494   1.459 -0.0555  0.1359 -0.2434
 4855TIP3    H136056   6.574   5.402   1.481  0.1695  0.3022  0.3344
 4855TIP3    H236057   6.591   5.542   1.537  0.6839  0.7325 -0.8722
 4856TIP3   OH236058   2.733   2.426   3.644  0.5290  0.0950 -0.6953
 4856TIP3    H136059   2.817   2.408   3.602 -0.0284 -0.2601 -1.6949
 4856TIP3    H236060   2.690   2.341   3.650  0.6196  0.1331  0.6762
 4857TIP3   OH236061   0.830   0.646  12.910  0.2390  0.1139  0.0398
 4857TIP3    H136062   0.876   0.693  12.980  1.1507  0.2616 -0.6384
 4857TIP3    H236063   0.772   0.712  12.872 -0.6828 -0.1120  0.9963
 4858TIP3   OH236064   4.699   1.755   2.506 -0.2517 -0.4658  0.0606
 4858TIP3    H136065   4.626   1.813   2.525 -0.7574 -0.7449 -0.9180
 4858TIP3    H236066   4.771   1.787   2.560 -0.5082  1.0702 -0.4637
 4859TIP3   OH236067   5.489   5.967  16.198  0.1343  0.4504  0.4737
 4859TIP3    H136068   5.456   5.912  16.127 -2.3263  1.2888  0.8595
 4859TIP3    H236069   5.542   6.034  16.155 -3.1236  2.3371 -1.0392
 4860TIP3   OH236070   4.635   3.879  11.516  0.1991 -0.1326  0.1872
 4860TIP3    H136071   4.726   3.911  11.513  0.2314 -0.2678 -1.0800
 4860TIP3    H236072   4.642   3.786  11.495 -0.1988 -0.2483  0.5558
 4861TIP3   OH236073   2.462   6.612   6.348  0.2492  0.9294  0.7096
 4861TIP3    H136074   2.551   6.636   6.321  0.4590 -0.6657 -0.1033
 4861TIP3    H236075   2.474   6.534   6.403 -0.7733 -0.6221 -1.1808
 4862TIP3   OH236076   3.647   0.267   0.021  0.6115 -0.0385  0.2164
 4862TIP3    H136077   3.646   0.244   0.114 -0.3824 -0.6102  0.0826
 4862TIP3    H236078   3.691   0.352   0.017 -0.7372  0.7702  1.4091
 4863TIP3   OH236079   6.685   2.021  13.370 -0.5121 -0.1804 -0.3413
 4863TIP3    H136080   6.742   2.080  13.418 -0.7860  0.2782 -0.5759
 4863TIP3    H236081   6.735   1.997  13.292 -0.9696  0.9067 -0.9844
 4864TIP3   OH236082   1.871   3.328  13.428  0.5882 -0.7570  0.1083
 4864TIP3    H136083   1.796   3.381  13.402  1.7707  1.6945  1.3431
 4864TIP3    H236084   1.912   3.302  13.345 -0.8761 -1.0701 -0.5458
 4865TIP3   OH236085   2.276   5.742   4.034  0.2498 -1.0398 -0.1209
 4865TIP3    H136086   2.312   5.653   4.040  0.0402 -1.1819 -0.9056
 4865TIP3    H236087   2.335   5.788   3.975  0.2069 -0.7270  0.0774
 4866TIP3   OH236088   1.902   0.680   2.592  0.1679 -0.1893  0.1081
 4866TIP3    H136089   1.848   0.748   2.551 -0.4750 -1.3153 -0.9721
 4866TIP3    H236090   1.981   0.725   2.620 -0.4767  1.1083 -0.1023
 4867TIP3   OH236091   6.458   4.495  13.461  0.3212  0.0391  0.2846
 4867TIP3    H136092   6.521   4.508  13.532 -0.0158  0.4364  0.5165
 4867TIP3    H236093   6.471   4.569  13.403  1.6454 -1.0684 -0.8904
 4868TIP3   OH236094   6.633   6.044  10.763 -0.7755 -0.2407  0.7118
 4868TIP3    H136095   6.674   6.117  10.715  1.1136  0.3036  2.9793
 4868TIP3    H236096   6.544   6.075  10.781 -0.6217  0.6818 -0.0092
 4869TIP3   OH236097   2.836   0.696   4.774 -0.1089 -0.5602 -0.0818
 4869TIP3    H136098   2.777   0.715   4.847 -0.6468 -0.0336 -0.6329
 4869TIP3    H236099   2.873   0.781   4.750 -0.7847 -0.5360 -1.1115
 4870TIP3   OH236100   6.283   0.741   4.834 -0.2296 -0.7966  0.6362
 4870TIP3    H136101   6.330   0.666   4.798 -0.8568 -1.0592  0.3530
 4870TIP3    H236102   6.284   0.727   4.929  1.0622 -0.3194  0.7152
 4871TIP3   OH236103   6.671   1.725  14.056 -0.6670  0.7640 -0.1685
 4871TIP3    H136104   6.632   1.730  14.143 -0.5222 -1.6912  0.1275
 4871TIP3    H236105   6.750   1.778  14.061  0.6318 -1.1784  2.0281
 4872TIP3   OH236106   0.481   0.205   2.606 -0.1793 -0.5111  0.2336
 4872TIP3    H136107   0.436   0.121   2.609 -1.9663  0.3715 -0.0688
 4872TIP3    H236108   0.506   0.222   2.696 -0.3639 -1.0856  0.3978
 4873TIP3   OH236109   6.469   2.323  15.529 -0.1524 -0.1134 -0.1857
 4873TIP3    H136110   6.498   2.400  15.480  1.8098  0.2314  1.3668
 4873TIP3    H236111   6.466   2.353  15.620 -1.2442 -1.3797  0.2176
 4874TIP3   OH236112   3.503   0.775  13.786 -0.3561  0.2876 -0.1554
 4874TIP3    H136113   3.440   0.788  13.715 -0.9189 -0.4637  0.1956
 4874TIP3    H236114   3.519   0.863  13.819  1.8554  1.0154 -2.8038
 4875TIP3   OH236115   5.499   1.656   5.249  0.2798  0.1328 -0.1078
 4875TIP3    H136116   5.556   1.698   5.313 -2.2959  1.7686  1.2944
 4875TIP3    H236117   5.491   1.720   5.178  0.1024 -0.0111 -0.2204
 4876TIP3   OH236118   4.665   5.351  13.917  0.1350 -0.1996  0.7887
 4876TIP3    H136119   4.624   5.319  13.836  0.2139  0.6979  0.3805
 4876TIP3    H236120   4.706   5.273  13.955  1.5443 -0.3622 -0.9164
 4877TIP3   OH236121   0.702   0.386  16.056 -0.3371  0.0596 -0.4369
 4877TIP3    H136122   0.689   0.357  16.146  0.0299  0.7900 -0.1360
 4877TIP3    H236123   0.615   0.410  16.025 -0.7468 -1.8229 -0.8843
 4878TIP3   OH236124   4.586   6.802  12.075 -0.8833  0.4511 -0.0061
 4878TIP3    H136125   4.537   6.857  12.135  1.7337  0.0266  2.7993
 4878TIP3    H236126   4.543   6.717  12.079 -0.3948  0.2512  1.8899
 4879TIP3   OH236127   2.081   4.928   1.205  0.2018  0.2161  0.2095
 4879TIP3    H136128   1.988   4.941   1.222  0.6223  0.7380  2.4395
 4879TIP3    H236129   2.115   4.885   1.283  1.8900  0.2600 -0.4402
 4880TIP3   OH236130   2.398   6.040  12.848 -0.2945 -0.0281  0.3225
 4880TIP3    H136131   2.306   6.026  12.826 -0.2535 -0.0906  0.1908
 4880TIP3    H236132   2.406   6.008  12.938 -0.0017 -1.7409 -0.2720
 4881TIP3   OH236133   5.084   6.408   6.780 -0.4871  0.3284  0.4631
 4881TIP3    H136134   5.139   6.368   6.848 -1.2639 -2.2191 -0.3220
 4881TIP3    H236135   5.143   6.468   6.734  0.9464 -0.4111  1.2732
 4882TIP3   OH236136   5.027   2.324   0.938  0.0050 -0.3689  0.4397
 4882TIP3    H136137   5.027   2.374   1.020  0.1056  1.0195 -0.3775
 4882TIP3    H236138   5.035   2.391   0.869  0.4725 -1.5385 -0.6812
 4883TIP3   OH236139   4.085   3.212   0.318  0.5346  0.1805  0.0430
 4883TIP3    H136140   4.077   3.118   0.301  2.9331  0.1347 -1.3459
 4883TIP3    H236141   4.126   3.217   0.405 -1.3128  0.0540  0.9664
 4884TIP3   OH236142   4.518   6.228   1.638 -0.3994  0.4357  0.1694
 4884TIP3    H136143   4.556   6.309   1.670  1.6761  0.2442 -1.5490
 4884TIP3    H236144   4.456   6.201   1.706  0.8515  2.0205  2.0303
 4885TIP3   OH236145   4.838   1.887  11.840 -0.1062  0.0924  0.4115
 4885TIP3    H136146   4.836   1.832  11.918 -0.4315  0.8297  0.9369
 4885TIP3    H236147   4.879   1.832  11.773  0.2842 -0.5118  1.1253
 4886TIP3   OH236148   3.131   2.430  14.711  0.0602  0.0018  0.5159
 4886TIP3    H136149   3.081   2.482  14.775  0.1934 -0.7613  1.2587
 4886TIP3    H236150   3.081   2.349  14.703 -0.3313  0.3645 -0.8921
 4887TIP3   OH236151   1.670   6.191  11.416  0.1769 -0.1447  0.7290
 4887TIP3    H136152   1.685   6.285  11.411  2.0633 -0.3894  1.1881
 4887TIP3    H236153   1.707   6.156  11.335  0.4163 -0.5882  1.0234
 4888TIP3   OH236154   3.504   1.014  16.328  0.1494 -0.3110 -0.0931
 4888TIP3    H136155   3.423   1.011  16.278 -1.0260  0.1628  1.6622
 4888TIP3    H236156   3.546   0.930  16.312 -1.5232 -1.2488  0.2219
 4889TIP3   OH236157   0.660   5.772  15.974  0.1392  0.2641  0.2104
 4889TIP3    H136158   0.746   5.777  15.931  0.7005  1.6230  1.3812
 4889TIP3    H236159   0.665   5.695  16.030 -0.4070 -1.2107 -1.6904
 4890TIP3   OH236160   6.126   2.420   5.501 -0.8767  0.5725 -0.5375
 4890TIP3    H136161   6.129   2.514   5.484 -1.0963  0.9449  1.2796
 4890TIP3    H236162   6.193   2.406   5.568 -3.0115  0.0407  1.6316
 4891TIP3   OH236163   4.177   4.184  12.748  0.1864 -0.5778 -0.1437
 4891TIP3    H136164   4.156   4.182  12.841 -1.0925 -0.4213 -0.4189
 4891TIP3    H236165   4.215   4.098  12.730  1.3747 -0.2616  0.7084
 4892TIP3   OH236166   4.755   4.202  17.037 -0.5163  1.1286  0.2170
 4892TIP3    H136167   4.844   4.194  17.071  0.1298  0.7015 -1.5159
 4892TIP3    H236168   4.749   4.292  17.006 -0.9510  1.3787  1.0022
 4893TIP3   OH236169   1.822   3.535   1.993 -0.0792  0.1320 -0.1121
 4893TIP3    H136170   1.803   3.540   1.900  0.8116 -1.5183 -0.4113
 4893TIP3    H236171   1.753   3.480   2.029 -0.3809  0.7063  0.2060
 4894TIP3   OH236172   6.441   6.516   1.770  0.2396  0.1794 -0.1287
 4894TIP3    H136173   6.479   6.468   1.844 -0.1222 -0.7525 -0.5329
 4894TIP3    H236174   6.485   6.602   1.772  0.2060  0.1875  1.1833
 4895TIP3   OH236175   0.688   5.194   3.459  0.6516  0.0664  0.4452
 4895TIP3    H136176   0.660   5.205   3.550  1.1982 -0.3247  0.6718
 4895TIP3    H236177   0.692   5.099   3.447  1.3745  0.1112  0.2685
 4896TIP3   OH236178   2.060   4.027   2.753  0.0964  0.0142 -0.1350
 4896TIP3    H136179   1.989   4.080   2.791  1.2886  1.8122 -0.2876
 4896TIP3    H236180   2.041   3.938   2.781 -1.1733  0.7271  1.4408
 4897TIP3   OH236181   3.966   2.320  14.323  0.0715 -0.6585 -0.2657
 4897TIP3    H136182   3.956   2.240  14.375 -0.5423 -0.0366  0.5972
 4897TIP3    H236183   4.059   2.341  14.329 -0.0589 -0.3648  0.9556
 4898TIP3   OH236184   1.912   2.978  13.809 -0.8125  0.1257  0.5890
 4898TIP3    H136185   1.990   2.988  13.754 -0.9513  1.5875  0.6099
 4898TIP3    H236186   1.841   3.017  13.757 -1.5594 -1.1794  0.5717
 4899TIP3   OH236187   6.793   6.642   1.996  0.2051 -0.3219  0.1284
 4899TIP3    H136188   6.742   6.638   2.077 -0.3344  1.3878 -0.1027
 4899TIP3    H236189   6.856   6.713   2.011 -0.4708  0.5977 -1.2566
 4900TIP3   OH236190   4.691   3.789   2.115  0.3966  0.0073 -1.2064
 4900TIP3    H136191   4.729   3.718   2.166  0.5530 -0.5289 -2.0429
 4900TIP3    H236192   4.602   3.798   2.148  0.9971  0.7872  0.2764
 4901TIP3   OH236193   3.406   2.494   5.441 -0.0758 -0.6488  0.4717
 4901TIP3    H136194   3.384   2.407   5.407 -0.6622  0.3065 -1.7186
 4901TIP3    H236195   3.321   2.532   5.466  0.2899 -1.1505  2.7854
 4902TIP3   OH236196   5.075   4.995  14.462  0.6737  0.1086  0.4915
 4902TIP3    H136197   5.050   5.075  14.509  0.0429 -0.1636  0.6259
 4902TIP3    H236198   5.056   4.924  14.523 -0.7303 -0.3008 -0.3780
 4903TIP3   OH236199   2.790   1.874   5.935  0.4060 -0.4468 -0.2316
 4903TIP3    H136200   2.832   1.890   6.020 -1.6623  0.3981  0.7077
 4903TIP3    H236201   2.836   1.798   5.899  1.0153 -1.1454  1.8775
 4904TIP3   OH236202   0.092   0.388  10.449 -0.5555  0.0897 -0.0303
 4904TIP3    H136203   0.038   0.457  10.410 -0.5086  0.1723  0.0502
 4904TIP3    H236204   0.181   0.424  10.449 -0.5169 -0.0030 -0.0622
 4905TIP3   OH236205   0.476   3.998   3.403  0.0035 -0.7760  0.3391
 4905TIP3    H136206   0.450   4.082   3.366  1.6383 -0.2362  0.3459
 4905TIP3    H236207   0.400   3.970   3.454 -0.0055  1.4936  1.7105
 4906TIP3   OH236208   5.431   2.123   3.763  0.0279  0.1979  0.3147
 4906TIP3    H136209   5.471   2.097   3.846  0.9875  1.4393  0.2651
 4906TIP3    H236210   5.480   2.200   3.736 -2.1168  1.5052 -0.0092
 4907TIP3   OH236211   0.384   0.821  11.750  0.5106 -0.0600  0.0562
 4907TIP3    H136212   0.354   0.731  11.762 -1.4270  0.5401 -0.0166
 4907TIP3    H236213   0.413   0.848  11.838  1.9762 -1.0195 -0.1049
 4908TIP3   OH236214   1.823   1.218  16.815  0.2205  0.6444 -0.6163
 4908TIP3    H136215   1.798   1.303  16.851  1.1584  0.6863 -0.0085
 4908TIP3    H236216   1.918   1.213  16.830  0.3423 -0.0860 -1.5460
 4909TIP3   OH236217   0.661   6.152  10.925  0.1435 -0.1582 -0.0686
 4909TIP3    H136218   0.594   6.204  10.882  0.2329 -0.0599 -0.0898
 4909TIP3    H236219   0.631   6.061  10.917 -0.4747 -0.0423  0.7741
 4910TIP3   OH236220   3.804   4.152   1.010  0.3981 -0.0702  0.2080
 4910TIP3    H136221   3.789   4.085   1.076  0.5915 -0.1105  0.2112
 4910TIP3    H236222   3.823   4.104   0.930  2.0435 -0.0312  0.5497
 4911TIP3   OH236223   2.277   3.284  16.999 -0.1933  0.0879  0.3497
 4911TIP3    H136224   2.208   3.275  17.065  0.6600 -0.4202  1.2090
 4911TIP3    H236225   2.322   3.365  17.022 -0.6158  0.5225 -0.3296
 4912TIP3   OH236226   5.440   1.086   0.999  0.0687 -0.3202  0.1834
 4912TIP3    H136227   5.455   1.035   1.078  0.1968 -0.5573  0.0097
 4912TIP3    H236228   5.363   1.047   0.959  0.5391 -0.7945 -0.2797
 4913TIP3   OH236229   0.287   4.685   5.876  0.3350  0.3204 -0.0792
 4913TIP3    H136230   0.368   4.715   5.836  0.3320  0.6499  0.1651
 4913TIP3    H236231   0.311   4.604   5.921  0.6177  0.6375  0.3431
 4914TIP3   OH236232   0.604   0.215   6.327  0.3741 -0.0908  0.0746
 4914TIP3    H136233   0.596   0.310   6.336  0.8767 -0.1064  0.8223
 4914TIP3    H236234   0.681   0.203   6.271  0.8602 -0.0643  0.7298
 4915TIP3   OH236235   1.742   2.509   6.724  0.6991 -0.2735 -0.0891
 4915TIP3    H136236   1.818   2.552   6.686 -1.1151  0.6507 -3.0414
 4915TIP3    H236237   1.758   2.510   6.819  4.0927  0.2218 -0.5527
 4916TIP3   OH236238   4.674   1.286   3.712 -0.3369  0.3109 -0.0306
 4916TIP3    H136239   4.725   1.361   3.743  0.2706  0.1864 -0.7040
 4916TIP3    H236240   4.585   1.320   3.703 -0.1682  0.8123  0.1399
 4917TIP3   OH236241   5.308   4.314  11.826  0.4328 -0.3629 -0.2288
 4917TIP3    H136242   5.358   4.235  11.848  0.9069  0.4908  2.0561
 4917TIP3    H236243   5.217   4.285  11.821  0.8954 -1.6530 -2.9242
 4918TIP3   OH236244   0.483   0.915  16.321  0.3188  0.1599  0.7260
 4918TIP3    H136245   0.526   0.842  16.278 -0.5026  1.0494 -1.8139
 4918TIP3    H236246   0.539   0.990  16.303 -0.5037  0.7123  0.3996
 4919TIP3   OH236247   0.931   4.300  12.116 -0.2897 -0.0218  0.4682
 4919TIP3    H136248   0.837   4.315  12.108 -0.0961  0.6866 -0.9794
 4919TIP3    H236249   0.962   4.371  12.172 -0.4078  0.7640 -0.4297
 4920TIP3   OH236250   0.030   4.835  12.255 -0.2319  0.5541 -0.9066
 4920TIP3    H136251   0.081   4.890  12.314 -0.5358 -1.0477  0.9636
 4920TIP3    H236252   0.088   4.762  12.233 -1.0858 -0.3679 -0.1893
 4921TIP3   OH236253   5.203   2.675  11.404 -0.2317 -0.3421  0.5277
 4921TIP3    H136254   5.225   2.766  11.425  0.7988 -0.6282  0.7254
 4921TIP3    H236255   5.178   2.677  11.312  1.8528 -0.1972 -0.0633
 4922TIP3   OH236256   4.501   2.094  10.958  0.9914 -0.3231  0.2502
 4922TIP3    H136257   4.479   2.010  10.999  1.4004 -0.9468 -0.7713
 4922TIP3    H236258   4.421   2.120  10.912  0.0534  1.0778  2.4923
 4923TIP3   OH236259   3.464   5.962   0.058 -0.4980  0.1649  0.4561
 4923TIP3    H136260   3.377   5.966   0.098  0.4031  1.3376  2.4502
 4923TIP3    H236261   3.453   5.906  -0.018 -2.6395 -1.1131  1.6157
 4924TIP3   OH236262   1.030   1.376  16.810 -0.2200  0.1543 -0.0547
 4924TIP3    H136263   1.085   1.379  16.889 -0.4072  0.8304  0.0503
 4924TIP3    H236264   0.955   1.432  16.830  0.4822  1.5784 -1.2840
 4925TIP3   OH236265   6.142   4.074   1.224 -0.3730  0.2047 -0.1720
 4925TIP3    H136266   6.103   4.006   1.169  1.0699 -2.1042  1.4528
 4925TIP3    H236267   6.231   4.085   1.189 -0.3593  0.7366  0.0191
 4926TIP3   OH236268   5.929   1.855  15.502 -0.2067  0.3200  0.2855
 4926TIP3    H136269   5.926   1.893  15.414  0.0958  2.1537  1.0092
 4926TIP3    H236270   5.925   1.761  15.488 -0.7575  0.5863 -1.6568
 4927TIP3   OH236271   4.754   0.278  13.967  0.4692 -0.0274  0.2220
 4927TIP3    H136272   4.835   0.325  13.951  1.5269 -1.0779  2.1649
 4927TIP3    H236273   4.772   0.188  13.941  0.2133 -0.4362  1.3849
 4928TIP3   OH236274   0.542   4.774  14.447 -0.4663 -0.4602  0.2698
 4928TIP3    H136275   0.473   4.757  14.383 -0.6117 -2.2975  0.8472
 4928TIP3    H236276   0.623   4.747  14.404  0.1445  2.7694 -0.8370
 4929TIP3   OH236277   4.979   1.546   1.575  0.7412  0.6669 -0.4792
 4929TIP3    H136278   4.925   1.506   1.643  0.7444  0.1641 -0.7633
 4929TIP3    H236279   4.924   1.542   1.496  0.5939  1.5761 -0.4313
 4930TIP3   OH236280   5.952   0.768   0.191 -0.3279 -1.1600  0.6068
 4930TIP3    H136281   6.016   0.716   0.143  0.6083  0.3538  0.1360
 4930TIP3    H236282   5.883   0.787   0.127  0.0500 -0.6265  0.3482
 4931TIP3   OH236283   6.396   1.002  16.463  0.4473 -0.6193 -0.2572
 4931TIP3    H136284   6.326   1.005  16.398  1.8551 -0.7388 -1.8607
 4931TIP3    H236285   6.351   1.003  16.547 -1.4356  0.4874 -1.2032
 4932TIP3   OH236286   4.310   4.461   5.765 -0.2169  0.6714  0.0419
 4932TIP3    H136287   4.240   4.400   5.787  0.6092 -0.3298 -0.0591
 4932TIP3    H236288   4.294   4.483   5.673 -0.4459  0.5190  0.0428
 4933TIP3   OH236289   3.392   0.058  14.236 -0.2589  0.7353  0.0139
 4933TIP3    H136290   3.325   0.025  14.296 -0.9352 -0.0275 -1.1273
 4933TIP3    H236291   3.424  -0.019  14.191  0.7729  1.2099 -0.0978
 4934TIP3   OH236292   1.911   2.331   3.214  0.0685  0.2368  0.1837
 4934TIP3    H136293   1.973   2.338   3.141  0.6892 -2.4465  0.3677
 4934TIP3    H236294   1.920   2.241   3.244 -1.2095  0.8830  2.6937
 4935TIP3   OH236295   4.886   5.798  15.560  0.0876 -0.2496 -0.1422
 4935TIP3    H136296   4.944   5.868  15.531 -0.3882  1.1585  2.0919
 4935TIP3    H236297   4.940   5.745  15.619  0.2036 -1.2924 -1.1625
 4936TIP3   OH236298   6.541   0.375  14.003  0.3810  0.2849  0.2875
 4936TIP3    H136299   6.461   0.427  14.008  0.7850  0.8034  1.7579
 4936TIP3    H236300   6.611   0.439  13.989  0.7697  0.0572  1.1232
 4937TIP3   OH236301   1.736   6.488   3.481  0.1059 -0.4646  0.4722
 4937TIP3    H136302   1.794   6.559   3.510 -1.0959  1.5387 -1.6844
 4937TIP3    H236303   1.716   6.510   3.390 -1.4196 -2.8801  0.1557
 4938TIP3   OH236304   3.651   6.424   1.843  0.1080  0.1322 -0.2282
 4938TIP3    H136305   3.734   6.402   1.801  0.8921 -0.8625  1.6837
 4938TIP3    H236306   3.585   6.374   1.795  0.9340 -0.7833 -0.4351
 4939TIP3   OH236307   3.056   6.795   4.455  0.3807  0.3734  0.1986
 4939TIP3    H136308   3.094   6.707   4.450 -0.1896  0.1636 -0.7901
 4939TIP3    H236309   3.023   6.802   4.545 -0.0814 -0.6560  0.1310
 4940TIP3   OH236310   1.158   4.630   3.892 -0.2388 -0.1016 -0.6312
 4940TIP3    H136311   1.169   4.567   3.821  0.2594 -0.5702 -0.1436
 4940TIP3    H236312   1.136   4.712   3.848 -0.1886 -0.4464 -1.3095
 4941TIP3   OH236313   2.165   2.473   6.785 -0.3052 -0.3408  0.0259
 4941TIP3    H136314   2.243   2.428   6.752 -0.5814  1.2877 -3.1909
 4941TIP3    H236315   2.199   2.536   6.848  1.3882  1.6178 -2.6202
 4942TIP3   OH236316   5.513   5.583   5.681  0.1460 -0.0648 -0.4389
 4942TIP3    H136317   5.533   5.497   5.719  1.3087 -0.5396 -2.0203
 4942TIP3    H236318   5.519   5.643   5.755  0.4721 -1.1969  0.4848
 4943TIP3   OH236319   2.706   5.236  11.486 -0.1611 -0.2441  0.4015
 4943TIP3    H136320   2.643   5.173  11.522  0.1152  0.0236  1.3753
 4943TIP3    H236321   2.780   5.233  11.546 -0.0172  0.7882  0.2956
 4944TIP3   OH236322   4.005   6.296   4.243  0.2616  0.0727  0.6526
 4944TIP3    H136323   3.972   6.380   4.210 -0.7236 -0.2463  0.7904
 4944TIP3    H236324   4.031   6.248   4.165  1.1539  0.6270  0.5946
 4945TIP3   OH236325   4.478   0.436   0.228  0.4226 -0.6440  0.0908
 4945TIP3    H136326   4.438   0.521   0.248 -2.5403 -1.3271 -2.2432
 4945TIP3    H236327   4.553   0.457   0.172  0.5401  0.4537  0.6344
 4946TIP3   OH236328   3.565   5.641   2.502  0.4958 -0.3863  0.1923
 4946TIP3    H136329   3.628   5.569   2.500 -0.3901 -1.2647  1.9645
 4946TIP3    H236330   3.483   5.603   2.470  0.0797 -0.1322  0.9200
 4947TIP3   OH236331   3.148   4.436   1.201  0.0558 -0.7439 -0.9318
 4947TIP3    H136332   3.202   4.460   1.126  2.5674 -0.5965  0.8251
 4947TIP3    H236333   3.098   4.515   1.221  1.0784 -0.0359 -1.0907
 4948TIP3   OH236334   1.847   3.871  14.573 -0.2523 -0.2407 -0.3165
 4948TIP3    H136335   1.867   3.839  14.660  1.9034 -0.9931 -1.0380
 4948TIP3    H236336   1.752   3.862  14.565 -0.3911 -0.8301  1.6725
 4949TIP3   OH236337   5.988   1.605  15.313 -0.1666  0.0295  0.4789
 4949TIP3    H136338   6.070   1.648  15.288 -0.6480  0.7454  0.0937
 4949TIP3    H236339   5.985   1.612  15.408  1.4644 -2.3199  0.8060
 4950TIP3   OH236340   5.812   5.367   4.688  0.1389 -0.0840 -0.3166
 4950TIP3    H136341   5.872   5.359   4.762  0.6616  3.7025 -0.1274
 4950TIP3    H236342   5.868   5.397   4.616 -0.5686 -2.5323 -1.9755
 4951TIP3   OH236343   2.815   3.020   3.305 -0.0898  0.2943  0.0928
 4951TIP3    H136344   2.751   3.033   3.235 -1.9009  0.7878  1.7420
 4951TIP3    H236345   2.830   3.107   3.341 -0.5282 -0.1405  1.4041
 4952TIP3   OH236346   5.913   3.951  10.841 -0.2509 -0.2914  0.3099
 4952TIP3    H136347   5.931   4.028  10.787  2.1634 -1.5999 -0.9265
 4952TIP3    H236348   5.818   3.941  10.837 -0.5248  2.0093 -0.3152
 4953TIP3   OH236349   0.749   0.629   0.959 -0.0457  0.4416  0.0835
 4953TIP3    H136350   0.836   0.632   0.999  0.4134 -1.2221 -0.7017
 4953TIP3    H236351   0.689   0.647   1.031  0.9011  0.5511  0.8683
 4954TIP3   OH236352   4.692   6.147  16.842 -0.1073 -0.3349 -0.1820
 4954TIP3    H136353   4.625   6.162  16.776  0.0706  1.0972 -0.0792
 4954TIP3    H236354   4.693   6.228  16.894  2.6527  0.3244 -1.0558
 4955TIP3   OH236355   4.665   2.127  16.482  0.2234 -0.2560  0.4111
 4955TIP3    H136356   4.714   2.115  16.400 -1.0730 -0.7641 -0.3343
 4955TIP3    H236357   4.729   2.159  16.545  1.6467 -1.5215 -0.3394
 4956TIP3   OH236358   6.631   5.488   4.213  0.3761  0.2066 -0.3130
 4956TIP3    H136359   6.568   5.426   4.252  0.2664 -0.4396 -1.4913
 4956TIP3    H236360   6.670   5.532   4.289  0.5343 -1.3705  0.5680
 4957TIP3   OH236361   3.097   5.511   3.302  0.4409 -0.4327  0.2921
 4957TIP3    H136362   3.117   5.452   3.374  0.5889  0.3087  0.8732
 4957TIP3    H236363   3.139   5.472   3.226  4.4790  1.1236  1.4512
 4958TIP3   OH236364   4.092   0.355  15.591  0.2594  0.6156 -0.8707
 4958TIP3    H136365   4.003   0.344  15.623  0.3366 -1.7199 -1.2883
 4958TIP3    H236366   4.083   0.409  15.513 -0.4909  2.2877  0.3190
 4959TIP3   OH236367   3.521   6.147   0.835 -0.0142  0.2748 -0.4572
 4959TIP3    H136368   3.467   6.165   0.758  0.8405  0.5352 -1.0134
 4959TIP3    H236369   3.604   6.192   0.817  1.1609 -1.7901 -0.6052
 4960TIP3   OH236370   4.156   1.009   5.718  0.9037  0.9386  0.3136
 4960TIP3    H136371   4.244   1.045   5.706  0.5197  1.4827 -1.0317
 4960TIP3    H236372   4.152   0.986   5.811  2.9403 -0.3988  0.1265
 4961TIP3   OH236373   5.423   4.092   2.036  0.2235 -0.2048 -0.6235
 4961TIP3    H136374   5.357   4.105   2.105 -0.6186 -1.2095 -1.2041
 4961TIP3    H236375   5.498   4.143   2.065 -0.6544  0.6161  0.2892
 4962TIP3   OH236376   3.023   3.539   5.967  0.5427  0.3625 -0.1841
 4962TIP3    H136377   3.049   3.586   6.046  1.6428 -2.3552  1.2095
 4962TIP3    H236378   2.931   3.562   5.955 -0.0933 -0.1937  2.7930
 4963TIP3   OH236379   5.748   4.501  14.979  0.1423 -0.0487  0.0203
 4963TIP3    H136380   5.781   4.591  14.990  0.5630 -0.2178  0.1886
 4963TIP3    H236381   5.817   4.457  14.929 -1.3017  0.4458 -2.5859
 4964TIP3   OH236382   2.750   4.835  14.496  0.2490  0.4734  0.4793
 4964TIP3    H136383   2.668   4.835  14.547  1.4555 -0.5410  2.5783
 4964TIP3    H236384   2.807   4.895  14.544  1.2089  0.0285 -0.0884
 4965TIP3   OH236385   3.977   2.025  14.417 -0.4806  0.6966  0.1170
 4965TIP3    H136386   3.978   2.040  14.511 -1.6319 -1.0181  0.4528
 4965TIP3    H236387   3.927   1.944  14.406  2.6866 -1.2538 -1.6505
 4966TIP3   OH236388   2.974   3.041   5.285 -0.4020 -0.4648  0.2168
 4966TIP3    H136389   2.911   3.003   5.346 -2.2219 -0.7956 -1.7631
 4966TIP3    H236390   2.929   3.043   5.201  1.0315  2.4650 -0.6267
 4967TIP3   OH236391   6.319   0.194  15.149  0.6190 -0.5972 -0.4880
 4967TIP3    H136392   6.335   0.142  15.227 -2.3082 -0.3582  0.3812
 4967TIP3    H236393   6.330   0.285  15.178 -0.6136 -0.5022 -0.2948
 4968TIP3   OH236394   0.899   1.474   3.005 -0.1715 -0.0276  0.5241
 4968TIP3    H136395   0.884   1.555   2.956 -2.1122 -0.8592 -0.3431
 4968TIP3    H236396   0.856   1.406   2.954 -0.8965 -1.2080  2.5814
 4969TIP3   OH236397   2.151   4.962  10.548  0.3426  0.2774 -0.2864
 4969TIP3    H136398   2.204   4.976  10.470  1.9753 -0.0725  0.7232
 4969TIP3    H236399   2.198   4.896  10.598 -0.3032  1.0002  1.3277
 4970TIP3   OH236400   1.485   2.384   1.727 -0.2508 -0.7234 -0.0003
 4970TIP3    H136401   1.409   2.379   1.669 -0.7247 -1.4210  0.6507
 4970TIP3    H236402   1.523   2.470   1.710 -2.7545  0.8439  1.5426
 4971TIP3   OH236403   3.936   6.421  17.248 -0.3043  0.2968 -0.7419
 4971TIP3    H136404   4.025   6.406  17.280 -0.2804  0.3085 -0.8029
 4971TIP3    H236405   3.940   6.397  17.155 -0.8645 -1.7462 -0.2904
 4972TIP3   OH236406   4.673   2.430  13.671  0.3665 -0.3422  0.4200
 4972TIP3    H136407   4.583   2.400  13.684 -0.0263 -0.0677 -1.3033
 4972TIP3    H236408   4.720   2.352  13.643  0.7808 -0.5760  1.7386
 4973TIP3   OH236409   2.858   1.196   5.676  0.3049  0.1707  0.4087
 4973TIP3    H136410   2.869   1.221   5.584 -0.8660  1.0454  0.4886
 4973TIP3    H236411   2.905   1.264   5.725 -0.6434  0.7693  0.5163
 4974TIP3   OH236412   4.625   1.876   3.104  0.0466 -0.2478 -0.4383
 4974TIP3    H136413   4.699   1.883   3.044  0.9828  0.4528  0.7499
 4974TIP3    H236414   4.558   1.934   3.069  0.7993  0.5865 -0.5109
 4975TIP3   OH236415   1.355   5.979  16.280  0.0813  0.2674 -0.4515
 4975TIP3    H136416   1.291   6.030  16.230 -0.2352  1.3815  1.0314
 4975TIP3    H236417   1.360   5.895  16.234 -2.5215  0.0998 -0.5797
 4976TIP3   OH236418   5.252   3.109  13.512 -0.4346 -0.1905  0.5677
 4976TIP3    H136419   5.215   3.061  13.586  1.9448  0.1455  2.0896
 4976TIP3    H236420   5.299   3.042  13.462 -1.1996 -0.2409 -0.1031
 4977TIP3   OH236421   0.590   3.850  17.102  0.0668  0.3386 -0.5041
 4977TIP3    H136422   0.577   3.936  17.142  0.4386  0.0176  0.3441
 4977TIP3    H236423   0.547   3.856  17.017 -0.2256  1.2452 -0.3036
 4978TIP3   OH236424   1.898   3.468  16.643 -0.0708  0.7238  0.4485
 4978TIP3    H136425   1.908   3.443  16.735 -0.5466  0.1586  0.3484
 4978TIP3    H236426   1.804   3.478  16.631 -0.0059  0.8446  0.0280
 4979TIP3   OH236427   5.919   2.257  11.351 -0.4636 -0.2638  0.4533
 4979TIP3    H136428   5.997   2.305  11.379  0.6717 -2.3541  1.1063
 4979TIP3    H236429   5.877   2.315  11.287  0.7742  1.5636  1.2069
 4980TIP3   OH236430   6.540   2.373   1.437  0.3496 -0.0639 -0.3780
 4980TIP3    H136431   6.571   2.365   1.528 -0.5529 -0.2202 -0.0748
 4980TIP3    H236432   6.446   2.388   1.445  0.2016 -0.4442 -1.3042
 4981TIP3   OH236433   0.616   0.789  16.623  0.1441 -0.0614 -0.4017
 4981TIP3    H136434   0.646   0.798  16.713 -0.7557 -0.1023 -0.0895
 4981TIP3    H236435   0.559   0.865  16.608 -2.6994 -1.9022  0.3109
 4982TIP3   OH236436   0.121   6.200  15.119  0.8375  0.2936  0.7902
 4982TIP3    H136437   0.085   6.225  15.033  4.8208 -1.0617 -1.5567
 4982TIP3    H236438   0.182   6.271  15.140  0.5713  0.1569  2.0512
 4983TIP3   OH236439   0.101   6.191  14.454  0.0167  0.0113 -0.2803
 4983TIP3    H136440   0.179   6.143  14.484  0.0695 -0.4265 -1.0753
 4983TIP3    H236441   0.113   6.279  14.488  2.6366  0.9822 -3.1499
 4984TIP3   OH236442   5.681   4.217   3.482  0.2037 -0.1918  0.4559
 4984TIP3    H136443   5.682   4.159   3.559 -1.3153 -1.6303 -0.5434
 4984TIP3    H236444   5.610   4.279   3.501  0.1846 -0.2092  0.4408
 4985TIP3   OH236445   2.417   0.325   5.954 -0.3351 -0.0008 -0.0240
 4985TIP3    H136446   2.500   0.296   5.991  0.7999  1.4064 -1.2827
 4985TIP3    H236447   2.378   0.380   6.022  0.7660  0.9619 -0.1385
 4986TIP3   OH236448   3.093   3.047  12.362 -0.5160 -0.2870 -0.3896
 4986TIP3    H136449   3.133   3.100  12.430 -0.9931 -0.8203  0.3300
 4986TIP3    H236450   3.131   2.960  12.373 -0.4173 -0.3231 -0.9633
 4987TIP3   OH236451   5.828   0.145  14.370  0.6761 -0.4797 -0.2218
 4987TIP3    H136452   5.797   0.064  14.410  1.1478 -0.7559 -0.4114
 4987TIP3    H236453   5.888   0.183  14.434  0.4783 -0.2957 -0.1456
 4988TIP3   OH236454   5.932   4.652   6.257 -0.6702  0.4059 -0.4576
 4988TIP3    H136455   5.983   4.588   6.207 -1.6609  0.1163 -1.1260
 4988TIP3    H236456   5.899   4.713   6.192  0.7349  1.9912  0.2403
 4989TIP3   OH236457   0.136   6.779  12.030 -0.0305 -0.0966 -0.0132
 4989TIP3    H136458   0.050   6.802  12.065 -0.0207 -0.0196 -0.0401
 4989TIP3    H236459   0.148   6.687  12.054 -0.4107 -0.3014 -0.5814
 4990TIP3   OH236460   4.008   0.464   2.940  0.4710  0.5167 -0.0102
 4990TIP3    H136461   3.953   0.542   2.930 -0.3299  0.2325  1.8340
 4990TIP3    H236462   4.046   0.451   2.853 -2.0454  0.9668 -1.2837
 4991TIP3   OH236463   6.605   2.820  12.607  0.0113 -0.4260 -0.8844
 4991TIP3    H136464   6.558   2.835  12.525  0.6624  1.5070 -0.9520
 4991TIP3    H236465   6.536   2.814  12.674 -0.4315  2.8418 -0.9094
 4992TIP3   OH236466   3.003   5.546  11.498  0.0678 -0.1124  0.7150
 4992TIP3    H136467   2.940   5.552  11.426 -1.2300  1.1128  1.9003
 4992TIP3    H236468   3.070   5.611  11.475  0.8226 -1.2400 -0.4220
 4993TIP3   OH236469   5.867   2.492  15.130 -0.3579  0.5872 -0.4266
 4993TIP3    H136470   5.844   2.401  15.147 -1.1511  0.8445 -0.0648
 4993TIP3    H236471   5.824   2.513  15.047  1.8366 -0.0682 -1.7905
 4994TIP3   OH236472   5.918   5.975   1.923  0.0341  0.2681 -0.0808
 4994TIP3    H136473   5.888   5.916   1.993  0.3360 -0.4049 -0.5156
 4994TIP3    H236474   5.988   6.026   1.963 -1.1672  1.3652  0.7368
 4995TIP3   OH236475   0.427   1.247   0.540  0.0012 -0.5952 -0.0766
 4995TIP3    H136476   0.438   1.154   0.522 -1.4972 -0.8243  0.0739
 4995TIP3    H236477   0.415   1.252   0.635  1.1641 -0.1129  0.0649
 4996TIP3   OH236478   1.961   1.061  11.400 -0.3785  0.3566  0.1922
 4996TIP3    H136479   1.954   1.142  11.349 -0.5306  0.1641 -0.0950
 4996TIP3    H236480   1.872   1.025  11.399 -0.5714  0.7675  1.2802
 4997TIP3   OH236481   2.865   5.210   5.122  0.2336 -0.0845 -0.3362
 4997TIP3    H136482   2.946   5.162   5.102 -0.4044 -0.8728 -1.0777
 4997TIP3    H236483   2.877   5.239   5.212 -0.0306 -3.1367  0.8252
 4998TIP3   OH236484   0.715   0.175  11.418  0.5056 -0.1503 -0.4588
 4998TIP3    H136485   0.655   0.115  11.463 -0.7651 -0.3523 -2.2884
 4998TIP3    H236486   0.761   0.120  11.354  1.7937  0.2342  0.1022
 4999TIP3   OH236487   0.331   3.160   1.386 -0.5256 -0.0787 -0.0127
 4999TIP3    H136488   0.245   3.185   1.350 -1.4873 -1.0949  1.4411
 4999TIP3    H236489   0.321   3.068   1.408  1.2610 -0.4537 -0.6024
 5000TIP3   OH236490   6.168   2.501  13.584  0.6963 -0.9556 -0.6567
 5000TIP3    H136491   6.135   2.566  13.645  2.8988 -0.9590  0.6318
 5000TIP3    H236492   6.157   2.417  13.629 -0.2072 -1.2838 -1.4466
 5001TIP3   OH236493   5.889   4.483   4.315 -0.1286 -0.4532 -0.5220
 5001TIP3    H136494   5.940   4.459   4.238  1.4304 -2.4733  1.0590
 5001TIP3    H236495   5.809   4.430   4.308 -0.4133  0.0363 -1.1545
 5002TIP3   OH236496   1.648   4.884  12.888  0.6155 -0.3726 -0.1136
 5002TIP3    H136497   1.679   4.831  12.813  1.1323  0.8005 -0.7589
 5002TIP3    H236498   1.623   4.967  12.849  0.3622  0.0637  0.9618
 5003TIP3   OH236499   4.332   1.028  11.254 -0.1057 -0.1262 -0.9485
 5003TIP3    H136500   4.399   0.961  11.240 -0.2490 -0.1702 -1.4226
 5003TIP3    H236501   4.332   1.041  11.349  0.2240 -0.4887 -0.8938
 5004TIP3   OH236502   5.737   6.780   5.656 -0.2210 -0.9502  0.0872
 5004TIP3    H136503   5.705   6.868   5.637  1.4909 -0.4721 -0.7482
 5004TIP3    H236504   5.792   6.790   5.733  1.1841 -0.9694 -0.8710
 5005TIP3   OH236505   3.463   4.323   2.817 -0.1780  0.6732 -0.2381
 5005TIP3    H136506   3.530   4.347   2.881  0.3581  0.8043 -0.8390
 5005TIP3    H236507   3.512   4.282   2.746 -0.8558 -0.2270 -0.2007
 5006TIP3   OH236508   4.448   6.163  14.560  0.9329  0.8404  0.2904
 5006TIP3    H136509   4.393   6.092  14.594  0.2844  0.2052 -1.9378
 5006TIP3    H236510   4.419   6.240  14.609  0.3091 -0.0565  1.4082
 5007TIP3   OH236511   1.518   3.722  11.444 -0.5400  0.2876  0.5624
 5007TIP3    H136512   1.548   3.679  11.524 -1.2002 -0.8600  0.2184
 5007TIP3    H236513   1.502   3.650  11.382  1.3099  1.2250 -1.0999
 5008TIP3   OH236514   0.444   5.481   1.738  0.0413 -0.3272  0.2849
 5008TIP3    H136515   0.485   5.545   1.681  2.6189 -0.5549  1.7330
 5008TIP3    H236516   0.465   5.511   1.827 -1.3526 -1.5239  1.0627
 5009TIP3   OH236517   4.984   6.563  13.425  0.1808 -0.1834  0.3398
 5009TIP3    H136518   5.054   6.565  13.360  0.7113 -1.1013  0.8702
 5009TIP3    H236519   4.953   6.473  13.426 -0.7533  0.1224  0.3992
 5010TIP3   OH236520   0.965   1.836   0.964 -0.6565  0.2038  0.5304
 5010TIP3    H136521   0.994   1.921   0.933 -0.6384  0.9821  2.5611
 5010TIP3    H236522   0.962   1.844   1.060 -1.6032 -1.7640  0.7258
 5011TIP3   OH236523   5.538   5.115   0.431 -0.0863 -0.0497 -0.2010
 5011TIP3    H136524   5.606   5.060   0.392  0.9064  1.0447 -0.0513
 5011TIP3    H236525   5.468   5.116   0.365  0.1546 -0.9311 -0.4882
 5012TIP3   OH236526   2.625   0.943  11.916  0.5840 -0.0315  0.0960
 5012TIP3    H136527   2.596   0.866  11.965 -1.3262 -0.1122 -1.0399
 5012TIP3    H236528   2.661   0.906  11.835  1.4560  0.1936  0.3813
 5013TIP3   OH236529   2.261   0.713   1.054  0.3246 -0.1017 -0.3666
 5013TIP3    H136530   2.233   0.694   1.144  0.6892  0.2460 -0.1705
 5013TIP3    H236531   2.323   0.644   1.033 -0.4596 -0.7074 -0.6941
 5014TIP3   OH236532   1.238   1.967   4.652  0.0814 -0.1818  0.6292
 5014TIP3    H136533   1.276   2.019   4.722  1.9336  0.4684 -0.7769
 5014TIP3    H236534   1.302   1.898   4.636 -0.4303 -0.4668 -0.2629
 5015TIP3   OH236535   1.740   3.320  11.874  0.3441 -0.0105 -0.2319
 5015TIP3    H136536   1.676   3.376  11.918 -0.9731 -1.5168 -0.1534
 5015TIP3    H236537   1.785   3.274  11.945  0.3730 -0.1607 -0.3467
 5016TIP3   OH236538   1.134   1.010  15.702 -0.0195  0.0785 -0.3252
 5016TIP3    H136539   1.124   1.070  15.628 -0.9157 -0.5271 -0.7202
 5016TIP3    H236540   1.185   0.937  15.666  0.8758  0.4965  0.0892
 5017TIP3   OH236541   1.075   0.067  13.266  0.2694  0.2433 -0.3103
 5017TIP3    H136542   1.086   0.036  13.176 -1.5801 -1.3693 -0.0354
 5017TIP3    H236543   1.079   0.163  13.258  0.0811  0.1414 -2.1162
 5018TIP3   OH236544   3.333   5.605  15.808 -0.5640  0.5008 -0.6039
 5018TIP3    H136545   3.389   5.566  15.741  0.6036  0.1716  0.5275
 5018TIP3    H236546   3.384   5.598  15.889 -3.0556 -1.8548  0.9641
 5019TIP3   OH236547   2.641   0.056  12.623  0.2249 -0.6615 -0.0477
 5019TIP3    H136548   2.619  -0.031  12.590  2.4529 -2.1457  1.9771
 5019TIP3    H236549   2.697   0.094  12.556  1.4243 -1.9698  0.1536
 5020TIP3   OH236550   3.966   0.277   2.396 -0.2515  0.3479  0.4797
 5020TIP3    H136551   3.976   0.274   2.300 -0.8035  2.5102  0.2906
 5020TIP3    H236552   3.881   0.238   2.413 -1.2465  2.0650 -0.2194
 5021TIP3   OH236553   5.752   0.772  14.629  0.0832 -0.1335  0.1480
 5021TIP3    H136554   5.707   0.767  14.544  0.5271 -1.8202 -0.0355
 5021TIP3    H236555   5.698   0.719  14.688  0.6393 -0.3363  0.4881
 5022TIP3   OH236556   6.457   2.673   1.958 -0.2474  0.4404  0.2914
 5022TIP3    H136557   6.483   2.751   2.008 -0.5320 -0.0311  1.1938
 5022TIP3    H236558   6.387   2.633   2.010  0.4025 -0.8299  0.2296
 5023TIP3   OH236559   0.420   2.810   5.591 -0.2679  0.1265  0.3038
 5023TIP3    H136560   0.342   2.785   5.542 -0.5071  2.5510 -0.6984
 5023TIP3    H236561   0.396   2.796   5.683 -1.8911  0.7585  0.0102
 5024TIP3   OH236562   0.922   4.188  12.679  0.2754 -0.2283  0.2360
 5024TIP3    H136563   0.961   4.187  12.591 -0.7394 -0.6540 -0.2283
 5024TIP3    H236564   0.975   4.125  12.729  0.9526  0.1296 -0.0169
 5025TIP3   OH236565   0.213   4.139  16.363  0.1759 -0.1175  0.4652
 5025TIP3    H136566   0.183   4.154  16.452  0.8404 -0.4712  0.7577
 5025TIP3    H236567   0.142   4.091  16.321 -0.4680  0.7188  0.5666
 5026TIP3   OH236568   4.438   2.508  12.022 -0.1469  0.5611 -0.1971
 5026TIP3    H136569   4.443   2.444  12.093 -1.0940  1.6902  0.9222
 5026TIP3    H236570   4.353   2.492  11.980  1.0500 -1.1604 -2.1870
 5027TIP3   OH236571   3.006   4.199  16.303 -0.1476  0.0115 -0.2672
 5027TIP3    H136572   2.993   4.104  16.308 -0.7210  0.0488 -0.8983
 5027TIP3    H236573   2.979   4.222  16.214  0.2960  0.7236 -0.2255
 5028TIP3   OH236574   5.639   3.579  11.438 -0.1920 -0.3525 -0.3834
 5028TIP3    H136575   5.714   3.525  11.465  1.9587  2.5102 -0.1269
 5028TIP3    H236576   5.663   3.612  11.352 -1.1766  0.6281 -0.3000
 5029TIP3   OH236577   0.112   0.330   3.667 -0.0008 -0.2140 -0.3691
 5029TIP3    H136578   0.179   0.336   3.735 -0.2475  2.6675 -0.2581
 5029TIP3    H236579   0.159   0.350   3.586 -0.4367  0.2510 -0.5063
 5030TIP3   OH236580   5.245   3.433   6.504 -0.0895  0.4006 -0.3383
 5030TIP3    H136581   5.265   3.524   6.483  1.4485  0.3649  0.8031
 5030TIP3    H236582   5.325   3.385   6.485  0.0194 -0.2584  1.5625
 5031TIP3   OH236583   2.931   3.552  16.870 -0.5834  0.0036  0.0803
 5031TIP3    H136584   2.845   3.580  16.901 -0.0923  1.4277  0.2053
 5031TIP3    H236585   2.939   3.590  16.783  0.1892  0.4527  0.3349
 5032TIP3   OH236586   6.722   3.833   6.604  1.0252 -0.2077  0.1117
 5032TIP3    H136587   6.663   3.886   6.657  1.1521  0.2658 -0.2165
 5032TIP3    H236588   6.785   3.896   6.567  0.1863 -0.3272 -1.6326
 5033TIP3   OH236589   0.667   5.280   5.900  0.1099  0.4909 -0.2073
 5033TIP3    H136590   0.608   5.228   5.954 -0.9870  1.2902 -0.5992
 5033TIP3    H236591   0.651   5.250   5.811  0.3287  0.6963 -0.3178
 5034TIP3   OH236592   3.247   5.220  14.689  0.4671 -0.1316  0.0146
 5034TIP3    H136593   3.190   5.153  14.727 -0.7692  1.0298  0.3221
 5034TIP3    H236594   3.316   5.233  14.754 -0.4216  0.3073  0.9029
 5035TIP3   OH236595   0.678   6.586   3.461  0.0414  0.1048 -0.6637
 5035TIP3    H136596   0.708   6.661   3.410 -0.9770  0.1789 -1.1638
 5035TIP3    H236597   0.743   6.578   3.531  0.4313  1.1421 -0.8896
 5036TIP3   OH236598   0.812   2.958   3.822 -0.9671 -0.1259  0.3855
 5036TIP3    H136599   0.747   2.888   3.825 -0.5860 -0.5291 -0.4273
 5036TIP3    H236600   0.774   3.028   3.875 -0.9810 -1.2432  1.9283
 5037TIP3   OH236601   2.551   2.039  12.110 -0.1146 -0.0236 -0.0835
 5037TIP3    H136602   2.511   2.074  12.190 -0.3028  0.3643 -0.3481
 5037TIP3    H236603   2.634   2.000  12.139  0.3389  1.0827  0.1288
 5038TIP3   OH236604   4.827   5.985  12.708  0.0757  0.4675  0.3660
 5038TIP3    H136605   4.880   5.970  12.786  0.0544  1.3258  0.5557
 5038TIP3    H236606   4.808   6.079  12.710 -1.0414  0.2617  0.0408
 5039TIP3   OH236607   6.186   6.660   2.427  0.2401  0.0301  0.5120
 5039TIP3    H136608   6.196   6.727   2.494 -1.2359  0.0999  0.6861
 5039TIP3    H236609   6.131   6.700   2.360  0.1904 -0.6532  0.1331
 5040TIP3   OH236610   3.722   6.152  10.788 -0.5454  0.6333  0.1011
 5040TIP3    H136611   3.658   6.179  10.722 -1.2319 -0.7452  0.1836
 5040TIP3    H236612   3.798   6.123  10.738  0.3096  2.8478  0.0104
 5041TIP3   OH236613   5.798   3.737   4.802 -0.4708 -0.1728  0.2205
 5041TIP3    H136614   5.708   3.710   4.788 -0.3437 -0.7951  0.5318
 5041TIP3    H236615   5.817   3.710   4.893  0.0927 -0.2619  0.0832
 5042TIP3   OH236616   2.611   2.316  16.585  0.5268  0.0151  0.7100
 5042TIP3    H136617   2.584   2.305  16.494 -0.9349 -1.1545  1.2344
 5042TIP3    H236618   2.707   2.313  16.583  0.5618  1.2953 -0.9168
 5043TIP3   OH236619   3.674   3.302   0.540 -0.4871  0.4439 -0.1070
 5043TIP3    H136620   3.740   3.291   0.472 -1.0170 -0.1980 -0.5296
 5043TIP3    H236621   3.703   3.379   0.589 -0.3446  1.2137 -1.3487
 5044TIP3   OH236622   5.332   3.269   1.035  0.3488  0.1269  0.6040
 5044TIP3    H136623   5.365   3.330   1.101  1.2705 -0.6993  0.9194
 5044TIP3    H236624   5.241   3.253   1.061  0.8733 -0.6549  2.0465
 5045TIP3   OH236625   3.953   1.766   3.199  0.0935  0.6019 -0.3588
 5045TIP3    H136626   3.960   1.728   3.287 -0.9627  0.9755 -0.0936
 5045TIP3    H236627   4.005   1.708   3.143 -2.1740 -1.7965 -0.1428
 5046TIP3   OH236628   0.018   6.389  16.963  0.1883 -0.9576 -0.1252
 5046TIP3    H136629   0.081   6.321  16.940  0.5872 -0.8668  0.6743
 5046TIP3    H236630   0.024   6.452  16.891  1.6326 -0.5230  0.3383
 5047TIP3   OH236631   5.002   2.739   2.347 -0.2266  0.3076 -0.4832
 5047TIP3    H136632   5.051   2.812   2.311  0.3489  0.4488  0.5537
 5047TIP3    H236633   5.060   2.700   2.412 -0.3176 -1.3943 -1.3473
 5048TIP3   OH236634   1.437   2.344   3.307  0.1293 -0.0954 -0.3273
 5048TIP3    H136635   1.518   2.392   3.286 -0.2503  0.3734 -0.7557
 5048TIP3    H236636   1.453   2.307   3.394  1.0133 -0.4646 -0.6307
 5049TIP3   OH236637   1.255   3.115  13.529  0.1237 -0.0042 -0.0511
 5049TIP3    H136638   1.328   3.066  13.491 -0.2493  0.6567 -1.7298
 5049TIP3    H236639   1.253   3.197  13.480 -2.2236 -0.3109 -0.6132
 5050TIP3   OH236640   1.493   0.376  17.121 -0.0330 -0.5482  0.4147
 5050TIP3    H136641   1.447   0.386  17.037 -1.7459  0.7463  1.4638
 5050TIP3    H236642   1.543   0.295  17.110 -0.9417 -0.9196 -1.5163
 5051TIP3   OH236643   4.322   5.138   1.033 -0.0483  0.4951 -0.2953
 5051TIP3    H136644   4.328   5.058   1.087  0.1955  0.7692  0.0847
 5051TIP3    H236645   4.304   5.208   1.096  0.6219  0.8787 -0.5279
 5052TIP3   OH236646   0.762   4.902   0.420  0.0341 -0.2597  1.0108
 5052TIP3    H136647   0.815   4.894   0.341 -0.1953  0.3317  0.7891
 5052TIP3    H236648   0.700   4.972   0.400 -0.8902 -0.9928  1.2268
 5053TIP3   OH236649   2.773   2.290  14.510 -0.1034 -0.2257 -0.3813
 5053TIP3    H136650   2.814   2.291  14.423  0.4989 -0.7015 -0.1022
 5053TIP3    H236651   2.695   2.235  14.499 -1.8161  2.2413 -1.4110
 5054TIP3   OH236652   1.555   4.028  11.472  0.2105 -0.7524 -0.2530
 5054TIP3    H136653   1.647   4.025  11.444  0.3256 -0.1627  0.0544
 5054TIP3    H236654   1.535   3.937  11.494  1.2577 -0.6492  1.3394
 5055TIP3   OH236655   0.563   5.691  11.639  0.7394 -0.1803 -0.8421
 5055TIP3    H136656   0.523   5.604  11.636 -0.2924  0.2150  0.5611
 5055TIP3    H236657   0.493   5.750  11.609  1.0535  0.2851 -0.6653
 5056TIP3   OH236658   1.079   1.012  15.159  0.4032  0.0986 -0.2732
 5056TIP3    H136659   1.071   1.004  15.064 -0.3708  1.2605 -0.3398
 5056TIP3    H236660   1.173   1.017  15.176  0.5635 -0.5758 -0.9232
 5057TIP3   OH236661   6.130   1.306   1.035  0.1103 -0.1606 -0.4591
 5057TIP3    H136662   6.182   1.241   0.989 -0.2709 -1.2152  0.5504
 5057TIP3    H236663   6.187   1.337   1.106 -0.9936 -2.2693  1.4604
 5058TIP3   OH236664   1.904   6.656   3.614  0.1304 -0.4000 -0.9265
 5058TIP3    H136665   1.849   6.699   3.679  0.3780  1.2612 -1.7791
 5058TIP3    H236666   1.983   6.631   3.662  0.8399  1.8976 -0.7978
 5059TIP3   OH236667   1.756   3.117   5.153 -0.1026 -0.4639  0.0008
 5059TIP3    H136668   1.769   3.102   5.059  0.9967 -0.3040  0.1062
 5059TIP3    H236669   1.843   3.103   5.191  0.5134  3.4279  0.4825
 5060TIP3   OH236670   1.658   4.715   1.818 -0.1733 -0.2789 -0.2190
 5060TIP3    H136671   1.707   4.738   1.739 -0.9598  0.0845 -0.6134
 5060TIP3    H236672   1.581   4.772   1.815 -0.5473 -0.7478  0.4580
 5061TIP3   OH236673   4.292   1.375  16.685  0.1982  0.3022  0.4196
 5061TIP3    H136674   4.227   1.433  16.645  0.6916  0.6175  0.0699
 5061TIP3    H236675   4.316   1.315  16.615  1.3155  1.0632  0.1199
 5062TIP3   OH236676   2.325   1.736   4.363  0.5532  0.0976 -0.9192
 5062TIP3    H136677   2.367   1.733   4.277 -1.0880 -1.7303 -1.7597
 5062TIP3    H236678   2.271   1.815   4.361  1.0242  0.4136 -1.3137
 5063TIP3   OH236679   6.179   4.084   5.628  0.1148  0.2319 -0.1263
 5063TIP3    H136680   6.112   4.148   5.606 -0.2775 -0.4908 -1.1012
 5063TIP3    H236681   6.242   4.090   5.557  1.0042  0.7662  0.6806
 5064TIP3   OH236682   6.296   5.482   2.954 -0.2243 -0.0185 -0.1340
 5064TIP3    H136683   6.355   5.407   2.940  1.5676  1.3718 -0.3955
 5064TIP3    H236684   6.353   5.552   2.986 -1.2132  2.2029 -2.7727
 5065TIP3   OH236685   6.736   2.422  12.367  0.4135  0.0093  0.4462
 5065TIP3    H136686   6.714   2.475  12.443  1.7838 -2.1277  2.4565
 5065TIP3    H236687   6.815   2.375  12.391 -0.0575 -2.0763 -1.6136
 5066TIP3   OH236688   6.687   3.665  16.545  0.1100  0.0565 -0.4382
 5066TIP3    H136689   6.601   3.657  16.585  0.5886  0.4714  0.7128
 5066TIP3    H236690   6.669   3.695  16.455 -1.0121 -1.5743 -0.7995
 5067TIP3   OH236691   1.427   2.838   5.118  0.8218  0.1493  0.1882
 5067TIP3    H136692   1.463   2.909   5.172 -0.7946  1.4654 -0.3857
 5067TIP3    H236693   1.492   2.825   5.049  1.8340  0.0111  1.1351
 5068TIP3   OH236694   4.611   3.161   1.002 -0.1916  0.2253  0.3604
 5068TIP3    H136695   4.532   3.119   0.967 -0.8212  1.7770 -0.1777
 5068TIP3    H236696   4.679   3.142   0.938 -0.4105 -0.1004  0.2207
 5069TIP3   OH236697   6.040   4.767   2.417  0.0649 -0.5988 -0.1844
 5069TIP3    H136698   6.132   4.793   2.421  0.1771 -0.7630 -1.2529
 5069TIP3    H236699   5.997   4.838   2.369 -0.6094  0.0539  1.3414
 5070TIP3   OH236700   0.680   2.201   3.332 -0.2028  0.3778 -0.5435
 5070TIP3    H136701   0.662   2.111   3.304 -1.5757  0.4735 -0.0647
 5070TIP3    H236702   0.600   2.249   3.312  0.3371  1.3909 -0.3424
 5071TIP3   OH236703   1.728   1.160  14.850  0.1192  0.3673 -0.3811
 5071TIP3    H136704   1.788   1.121  14.913  0.7687  0.6894 -0.7822
 5071TIP3    H236705   1.783   1.179  14.774 -0.5560  0.4016 -0.8694
 5072TIP3   OH236706   1.099   2.642   0.511  0.5525 -0.4408 -0.1406
 5072TIP3    H136707   1.134   2.643   0.422 -0.3635 -2.3527 -0.5856
 5072TIP3    H236708   1.175   2.625   0.567  1.0761  0.4272 -0.5680
 5073TIP3   OH236709   4.474   5.757   6.444 -0.2362  0.3991 -0.1004
 5073TIP3    H136710   4.524   5.793   6.371  1.7857 -0.4464  0.7867
 5073TIP3    H236711   4.397   5.717   6.404 -0.2596  1.7938 -1.5253
 5074TIP3   OH236712   3.763   6.765  12.077  0.8462 -0.1385 -0.0240
 5074TIP3    H136713   3.756   6.695  12.142  1.4478 -0.9152 -0.7658
 5074TIP3    H236714   3.825   6.731  12.013  1.2930  1.1753 -0.3013
 5075TIP3   OH236715   0.823   3.297  16.812  0.3471 -0.1007 -0.7500
 5075TIP3    H136716   0.818   3.388  16.840  3.6510  0.5361 -1.8289
 5075TIP3    H236717   0.837   3.301  16.717  1.5981 -1.6441 -0.6804
 5076TIP3   OH236718   6.805   5.507  13.997 -0.4467 -0.4286  0.8454
 5076TIP3    H136719   6.874   5.537  14.056 -0.1547  2.7388 -0.8960
 5076TIP3    H236720   6.838   5.424  13.962  2.7012  1.0648 -0.0865
 5077TIP3   OH236721   0.494   1.891   2.397 -0.0466  0.2286  0.6156
 5077TIP3    H136722   0.452   1.977   2.394  0.0807  0.2796  0.1912
 5077TIP3    H236723   0.520   1.874   2.306 -0.5971 -0.5146  0.5891
 5078TIP3   OH236724   2.202   4.993  13.114 -0.2093  0.6152 -0.5107
 5078TIP3    H136725   2.172   5.059  13.051 -0.4893  1.7293  0.7314
 5078TIP3    H236726   2.206   5.040  13.198  3.1037  0.0334 -0.2069
 5079TIP3   OH236727   6.620   3.318  11.014  1.0187  0.5334 -0.2053
 5079TIP3    H136728   6.691   3.254  11.009  2.3450  1.8945  0.4155
 5079TIP3    H236729   6.606   3.346  10.924  0.9306 -0.0911 -0.3892
 5080TIP3   OH236730   5.940   5.421   3.520 -0.5769  0.4315 -0.4321
 5080TIP3    H136731   5.848   5.415   3.493 -0.1062 -0.7091 -1.9139
 5080TIP3    H236732   5.981   5.343   3.483  1.1020  1.1776 -0.2429
 5081TIP3   OH236733   2.192   0.088  12.571 -0.3191 -0.2507 -0.1454
 5081TIP3    H136734   2.252   0.014  12.583  0.4564  0.3416 -0.2767
 5081TIP3    H236735   2.176   0.091  12.477 -0.1844 -0.1202 -0.1630
 5082TIP3   OH236736   1.861   5.522   0.319 -0.1783 -0.0214 -0.3170
 5082TIP3    H136737   1.946   5.566   0.311  0.4582 -0.9808  0.8180
 5082TIP3    H236738   1.823   5.558   0.399  0.9180 -2.3064  1.3764
 5083TIP3   OH236739   4.720   4.179  11.208 -0.0481 -0.8587  0.3385
 5083TIP3    H136740   4.713   4.178  11.113  0.0353  0.1977  0.3079
 5083TIP3    H236741   4.767   4.098  11.230  1.1921 -0.4333 -0.6281
 5084TIP3   OH236742   2.099   0.076   1.048  0.0079  0.1614 -0.7787
 5084TIP3    H136743   2.175   0.131   1.034  0.8229 -0.5140  0.7079
 5084TIP3    H236744   2.054   0.073   0.964 -0.0199  2.9726 -0.9464
 5085TIP3   OH236745   4.868   4.896  16.072 -0.5654  0.0272  0.1737
 5085TIP3    H136746   4.837   4.889  16.163  2.3208  1.7051  1.4489
 5085TIP3    H236747   4.908   4.811  16.054  0.6740  0.3276  1.3145
 5086TIP3   OH236748   1.411   1.734   4.590 -0.5060  0.3672  0.1128
 5086TIP3    H136749   1.362   1.653   4.604  0.3470 -0.3690 -1.0368
 5086TIP3    H236750   1.484   1.728   4.651  0.4293 -0.4964 -1.0471
 5087TIP3   OH236751   5.885   2.579  12.793  0.4825 -0.1010 -0.1118
 5087TIP3    H136752   5.860   2.510  12.732 -1.7200  1.3173 -0.9176
 5087TIP3    H236753   5.885   2.536  12.879 -0.2263 -1.2262 -0.6504
 5088TIP3   OH236754   5.551   0.966   4.175 -0.1867  0.2099 -0.1263
 5088TIP3    H136755   5.584   0.934   4.259 -0.6112 -0.6495 -0.2702
 5088TIP3    H236756   5.625   1.010   4.134 -0.0947  1.0293  0.8796
 5089TIP3   OH236757   1.637   2.997  13.176  0.0870  0.0228  0.5635
 5089TIP3    H136758   1.720   3.018  13.135  0.4084  2.6941  2.2933
 5089TIP3    H236759   1.630   2.902  13.172  1.2429 -0.0430 -3.2067
 5090TIP3   OH236760   4.452   3.362  17.010  0.0726  0.0995 -0.0360
 5090TIP3    H136761   4.369   3.314  17.013  0.1178 -0.2212 -2.4223
 5090TIP3    H236762   4.427   3.454  17.025 -0.5473 -0.1274  0.3700
 5091TIP3   OH236763   0.578   0.416   2.047  0.1045  0.1294 -0.4620
 5091TIP3    H136764   0.491   0.381   2.069 -1.1741  1.5809 -2.8324
 5091TIP3    H236765   0.613   0.448   2.131 -0.7373 -2.1978  0.9015
 5092TIP3   OH236766   3.861   3.659  16.779 -0.7995 -0.1690  0.0117
 5092TIP3    H136767   3.770   3.688  16.776 -0.9205 -0.2362  1.8464
 5092TIP3    H236768   3.858   3.577  16.828  0.2198 -0.3003 -0.1304
 5093TIP3   OH236769   1.486   5.254  13.583  0.3770  0.3986  0.4285
 5093TIP3    H136770   1.469   5.197  13.508 -0.7874 -1.0261  1.7025
 5093TIP3    H236771   1.404   5.300  13.598  0.8723  1.3379  0.2929
 5094TIP3   OH236772   0.146   2.539  15.926 -0.6745  0.6636 -0.0364
 5094TIP3    H136773   0.186   2.467  15.877 -1.3635 -0.2410  0.6892
 5094TIP3    H236774   0.149   2.510  16.018 -1.9028  1.0870  0.1548
 5095TIP3   OH236775   0.474   0.115   4.683 -0.2907 -0.9162  0.0342
 5095TIP3    H136776   0.531   0.093   4.610 -0.4137  0.4601 -0.4949
 5095TIP3    H236777   0.390   0.075   4.661  0.1054 -1.8948  0.2300
 5096TIP3   OH236778   5.495   3.571   1.711  0.1942 -0.5831 -0.3717
 5096TIP3    H136779   5.466   3.481   1.723 -0.6794 -0.3611 -0.6755
 5096TIP3    H236780   5.497   3.608   1.800  0.1606 -0.7886 -0.2855
 5097TIP3   OH236781   2.913   6.796  11.321 -0.6330 -0.3419 -0.1013
 5097TIP3    H136782   2.879   6.772  11.235  0.2718 -1.1273 -0.2526
 5097TIP3    H236783   2.932   6.890  11.313 -1.0230 -0.2968 -0.5880
 5098TIP3   OH236784   2.887   6.355   5.128 -0.2278  0.3679  0.1103
 5098TIP3    H136785   2.820   6.404   5.081 -0.4805  1.8372  1.9059
 5098TIP3    H236786   2.873   6.376   5.220 -0.4583 -3.2475  1.0596
 5099TIP3   OH236787   4.681   3.328   0.405  0.3452  0.1106 -0.0500
 5099TIP3    H136788   4.674   3.374   0.321  0.1183 -0.1766 -0.1918
 5099TIP3    H236789   4.590   3.322   0.436  0.5887  1.9661  1.1864
 5100TIP3   OH236790   2.471   6.126   2.486 -0.3432 -0.0252 -0.3880
 5100TIP3    H136791   2.552   6.169   2.513  0.1081  0.0230 -1.7560
 5100TIP3    H236792   2.474   6.126   2.391 -2.5593  1.0887 -0.5117
 5101TIP3   OH236793   4.061   3.519   2.616 -0.1001  0.5616 -0.6310
 5101TIP3    H136794   3.982   3.466   2.612 -0.0731  0.5659 -1.6262
 5101TIP3    H236795   4.108   3.498   2.535  2.0470 -1.1330  0.9630
 5102TIP3   OH236796   2.267   2.701  16.268  0.2060 -0.1512  0.2467
 5102TIP3    H136797   2.198   2.694  16.201  0.3008 -2.4793  0.3148
 5102TIP3    H236798   2.230   2.656  16.344  1.0718  0.2866  0.9317
 5103TIP3   OH236799   0.715   3.055   4.319  0.4732 -0.7610 -0.4850
 5103TIP3    H136800   0.767   2.995   4.265  2.1934 -0.8122  1.1133
 5103TIP3    H236801   0.779   3.098   4.376 -1.0807  0.3368  0.5310
 5104TIP3   OH236802   6.362   6.160  12.783 -0.1018 -0.5844  0.3034
 5104TIP3    H136803   6.391   6.155  12.874  2.9602  3.0281 -0.2157
 5104TIP3    H236804   6.307   6.237  12.780  1.1403  0.3137 -1.0857
 5105TIP3   OH236805   2.664   2.206   3.387  0.1959 -0.5851 -0.4849
 5105TIP3    H136806   2.653   2.226   3.294 -0.8105  1.0426 -0.0674
 5105TIP3    H236807   2.735   2.142   3.390 -0.3555 -1.3513 -2.4292
 5106TIP3   OH236808   6.067   6.799   1.185 -0.3091 -0.0526  0.6107
 5106TIP3    H136809   6.117   6.728   1.143 -0.2198  0.0077  0.6149
 5106TIP3    H236810   6.090   6.793   1.277  0.4418  0.5808  0.4772
 5107TIP3   OH236811   0.689   3.356  15.772  0.3616  0.4796 -0.0606
 5107TIP3    H136812   0.728   3.274  15.803 -0.0029  0.3057 -0.0531
 5107TIP3    H236813   0.762   3.404  15.734  0.5741  0.1390 -0.0904
 5108TIP3   OH236814   2.066   4.996  12.132 -0.6871  0.1839  0.1006
 5108TIP3    H136815   1.974   5.007  12.109 -0.6709  1.7848  0.6866
 5108TIP3    H236816   2.085   4.905  12.110 -1.8763  0.3447 -1.8398
 5109TIP3   OH236817   3.391   0.675  12.937 -0.3263  0.3950 -0.6845
 5109TIP3    H136818   3.373   0.606  12.873 -0.2767  0.8342 -1.1766
 5109TIP3    H236819   3.486   0.688  12.933 -0.3056  0.3133 -0.4152
 5110TIP3   OH236820   6.467   0.987   1.715  0.4042  0.3072 -0.2973
 5110TIP3    H136821   6.543   0.930   1.702  0.5748  0.9230 -2.4592
 5110TIP3    H236822   6.490   1.068   1.669 -0.7508  1.2694  0.7617
 5111TIP3   OH236823   2.152   2.383  16.343  0.7787 -0.8123  0.0097
 5111TIP3    H136824   2.059   2.369  16.326  0.9507  0.2477 -2.1337
 5111TIP3    H236825   2.154   2.446  16.416 -0.1526 -1.1753  0.3673
 5112TIP3   OH236826   4.030   5.488   5.063 -0.2047 -0.8888  0.0473
 5112TIP3    H136827   4.024   5.395   5.087 -0.4120 -0.7746  0.4547
 5112TIP3    H236828   4.058   5.531   5.144 -1.8488 -0.3621  0.3769
 5113TIP3   OH236829   5.191   5.182  16.311  0.6162  0.5911  0.3274
 5113TIP3    H136830   5.261   5.187  16.376  0.5694  1.8493  0.3151
 5113TIP3    H236831   5.117   5.145  16.358  1.1016 -0.1828  0.5036
 5114TIP3   OH236832   4.489   6.072   3.044  0.8713 -0.3594 -0.3623
 5114TIP3    H136833   4.519   6.028   2.965  0.5569  0.0532 -0.7164
 5114TIP3    H236834   4.502   6.007   3.114 -1.3166 -1.7652 -1.1359
 5115TIP3   OH236835   2.781   3.387  10.858 -0.5252  0.9679  0.3339
 5115TIP3    H136836   2.742   3.323  10.798  0.8987 -0.4425  0.8459
 5115TIP3    H236837   2.746   3.471  10.829 -0.5684  0.2501 -1.9268
 5116TIP3   OH236838   2.675   0.601  13.710 -0.0023 -0.1149 -0.3039
 5116TIP3    H136839   2.621   0.522  13.707  0.5732 -0.5249 -0.1600
 5116TIP3    H236840   2.764   0.568  13.720  0.0695  0.6078  1.8068
 5117TIP3   OH236841   1.420   4.088  15.910 -0.5162 -0.3612 -0.1046
 5117TIP3    H136842   1.338   4.093  15.960 -1.2058  0.3805 -1.2567
 5117TIP3    H236843   1.394   4.101  15.819  0.8667 -0.2833 -0.5200
 5118TIP3   OH236844   2.838   4.285  11.600  0.0788 -0.4240 -0.1434
 5118TIP3    H136845   2.905   4.301  11.667 -0.9528  1.3116  0.5514
 5118TIP3    H236846   2.878   4.221  11.541  2.3529  0.5507  0.2232
 5119TIP3   OH236847   4.437   0.113  12.787 -0.0578 -0.0700  0.1858
 5119TIP3    H136848   4.389   0.034  12.762 -1.3689  0.6009  0.4913
 5119TIP3    H236849   4.470   0.094  12.875 -1.3064  0.1048  0.7143
 5120TIP3   OH236850   4.371   4.576  11.339  0.2694  0.3982  0.0047
 5120TIP3    H136851   4.350   4.501  11.395 -1.1026  0.5030 -0.3330
 5120TIP3    H236852   4.287   4.601  11.300  0.6496  2.2385  0.2786
 5121TIP3   OH236853   0.111   0.188  16.512 -0.3277  0.1518 -0.0296
 5121TIP3    H136854   0.082   0.226  16.595 -0.9055 -0.2721 -0.0302
 5121TIP3    H236855   0.037   0.136  16.482 -0.4499  0.9683 -1.2467
 5122TIP3   OH236856   2.377   3.178   1.459 -0.1912  0.4805 -0.0176
 5122TIP3    H136857   2.444   3.205   1.522 -0.6079 -0.3959  0.8327
 5122TIP3    H236858   2.297   3.173   1.511 -0.6723  0.3519 -0.7623
 5123TIP3   OH236859   6.351   2.478   4.982  0.8137  0.0369 -0.2546
 5123TIP3    H136860   6.387   2.469   4.894 -1.2571  0.7292 -1.2478
 5123TIP3    H236861   6.290   2.405   4.990 -1.5226  1.8153 -0.7818
 5124TIP3   OH236862   6.128   0.866   4.236 -0.0173  0.7918  0.0847
 5124TIP3    H136863   6.183   0.788   4.224  0.8939  1.5423 -0.8031
 5124TIP3    H236864   6.049   0.847   4.185  0.3756  0.6028 -0.4649
 5125TIP3   OH236865   5.312   2.708   4.813  0.1850 -0.4980  0.1379
 5125TIP3    H136866   5.400   2.670   4.821  1.1748  1.5896 -0.1815
 5125TIP3    H236867   5.309   2.775   4.881 -1.4250 -0.9657  0.5640
 5126TIP3   OH236868   4.445   2.907  14.382 -0.2701 -0.1817 -0.2610
 5126TIP3    H136869   4.389   2.941  14.452 -1.2046  1.8050 -1.8661
 5126TIP3    H236870   4.497   2.983  14.354 -0.2394 -0.8082 -2.0112
 5127TIP3   OH236871   0.653   4.002   3.923 -0.0311  0.6650  0.0453
 5127TIP3    H136872   0.609   3.991   3.839 -0.8144  1.7366  0.2971
 5127TIP3    H236873   0.581   4.009   3.986  0.5427  0.4741  0.7316
 5128TIP3   OH236874   1.853   3.259  12.717 -0.3976  0.0577 -0.1730
 5128TIP3    H136875   1.805   3.339  12.738  0.3728  0.3356  0.5703
 5128TIP3    H236876   1.787   3.190  12.720 -1.9062  0.9896 -4.3128
 5129TIP3   OH236877   5.816   2.724   1.455  0.3825 -0.5090  0.1155
 5129TIP3    H136878   5.815   2.691   1.365 -0.0390  0.5925 -0.3068
 5129TIP3    H236879   5.750   2.793   1.455  0.7442 -0.1533  1.1381
 5130TIP3   OH236880   6.335   5.369  15.762 -0.2096  0.3917  0.0931
 5130TIP3    H136881   6.265   5.340  15.820  0.7318 -1.1080  0.5188
 5130TIP3    H236882   6.362   5.454  15.798  0.4532 -0.5710  1.9602
 5131TIP3   OH236883   2.339   0.561  15.215  0.3125  0.5222  0.5289
 5131TIP3    H136884   2.257   0.573  15.263  0.4692  1.5646  0.5466
 5131TIP3    H236885   2.405   0.606  15.268  0.6998  0.6790 -0.0773
 5132TIP3   OH236886   2.725   3.435  14.437 -0.3887  0.2152 -0.8954
 5132TIP3    H136887   2.730   3.525  14.405 -0.2150  0.8460  0.8032
 5132TIP3    H236888   2.632   3.422  14.457 -0.1526  0.7443  0.7201
 5133TIP3   OH236889   6.561   3.361   0.929  0.4814  0.5062  0.3358
 5133TIP3    H136890   6.515   3.326   0.852  0.3053  1.9172 -0.2387
 5133TIP3    H236891   6.653   3.362   0.903  0.3936  1.2168  0.0403
 5134TIP3   OH236892   4.455   0.916   3.641 -0.0696 -0.5145 -0.1013
 5134TIP3    H136893   4.517   0.960   3.582  1.1622 -1.3526  0.5057
 5134TIP3    H236894   4.432   0.835   3.596 -1.0859 -0.0067 -0.5150
 5135TIP3   OH236895   4.139   0.787  14.267 -0.0718 -0.1951 -0.1300
 5135TIP3    H136896   4.049   0.761  14.251  0.1788 -0.7100 -0.7435
 5135TIP3    H236897   4.148   0.873  14.225 -0.6726  0.5597  1.2020
 5136TIP3   OH236898   4.562   4.440   2.585 -0.5227  0.1564  0.2555
 5136TIP3    H136899   4.524   4.355   2.562  0.4989 -0.2543  0.0281
 5136TIP3    H236900   4.642   4.418   2.631  0.2385  0.9909 -0.6270
 5137TIP3   OH236901   0.233   3.372  16.142 -0.1692 -0.1283 -0.6121
 5137TIP3    H136902   0.244   3.293  16.088 -0.3906 -0.9707  0.5159
 5137TIP3    H236903   0.312   3.374  16.197 -0.9074 -0.5259  0.5139
 5138TIP3   OH236904   3.342   4.999  12.470  0.0875 -0.3589  0.3670
 5138TIP3    H136905   3.402   5.044  12.411  1.7168  0.2050  2.3731
 5138TIP3    H236906   3.374   4.909  12.473  1.4686  0.1408  2.1201
 5139TIP3   OH236907   6.014   4.977   2.682  0.4805  0.0576 -0.3241
 5139TIP3    H136908   5.921   4.989   2.704  0.8057  2.8318 -0.0972
 5139TIP3    H236909   6.032   5.043   2.616  1.7766 -2.0832 -2.2489
 5140TIP3   OH236910   1.136   1.493   4.958  0.5863 -0.0833  0.2348
 5140TIP3    H136911   1.100   1.501   5.046  0.4172  1.0167  0.0748
 5140TIP3    H236912   1.131   1.399   4.939 -0.0413 -0.2416  1.1183
 5141TIP3   OH236913   2.629   4.918   3.630  0.2579 -0.0875 -0.3604
 5141TIP3    H136914   2.639   4.973   3.553  0.3182 -0.3361 -0.5342
 5141TIP3    H236915   2.643   4.829   3.597  2.1395 -0.0823  0.2596
 5142TIP3   OH236916   1.807   4.389  10.515  0.2584  0.0354 -0.2374
 5142TIP3    H136917   1.720   4.423  10.534 -0.3817 -2.2137  1.2969
 5142TIP3    H236918   1.817   4.399  10.420 -1.6091  0.4739 -0.4265
 5143TIP3   OH236919   4.676   0.902   0.933  0.4667 -0.0948  0.4972
 5143TIP3    H136920   4.766   0.869   0.937 -0.2320 -2.1348  0.5518
 5143TIP3    H236921   4.669   0.962   1.007  2.2095  1.3522 -0.4255
 5144TIP3   OH236922   6.273   0.125   4.237  0.4851  0.1772 -0.8212
 5144TIP3    H136923   6.352   0.072   4.247  0.2739 -0.0424 -0.2549
 5144TIP3    H236924   6.304   0.212   4.214  0.9922  0.5440  1.0988
 5145TIP3   OH236925   6.784   6.496  15.361 -0.5648  0.7321  0.7464
 5145TIP3    H136926   6.858   6.466  15.413 -0.8747 -1.7613 -0.1148
 5145TIP3    H236927   6.808   6.474  15.271 -2.1936  0.1989  0.4154
 5146TIP3   OH236928   3.478   1.684  13.184 -0.1128 -0.0942  0.7362
 5146TIP3    H136929   3.573   1.675  13.185  0.1051  1.2669 -1.1308
 5146TIP3    H236930   3.455   1.673  13.092 -1.6798  0.3222  1.0551
 5147TIP3   OH236931   5.552   4.656   2.385 -0.2670  0.2282  0.7529
 5147TIP3    H136932   5.616   4.689   2.448  1.5795  1.2309 -1.5360
 5147TIP3    H236933   5.594   4.579   2.347 -0.5102  0.7333 -0.5769
 5148TIP3   OH236934   5.274   3.662   0.269 -0.4076  0.1084 -0.0155
 5148TIP3    H136935   5.255   3.737   0.325 -2.5862 -0.1212 -0.3579
 5148TIP3    H236936   5.364   3.677   0.239  0.8136  0.3136  3.3477
 5149TIP3   OH236937   4.398   6.284  16.175  0.1449 -0.0294  0.1671
 5149TIP3    H136938   4.378   6.375  16.198 -0.5416 -0.1160 -0.0517
 5149TIP3    H236939   4.489   6.286  16.147 -0.1855  0.8062 -0.9190
 5150TIP3   OH236940   3.631   4.725  12.747  0.1592 -0.1474 -0.1584
 5150TIP3    H136941   3.697   4.661  12.773 -0.8393 -0.9755  0.4226
 5150TIP3    H236942   3.578   4.680  12.682  1.0684  1.0388 -1.8036
 5151TIP3   OH236943   2.748   6.610  15.766 -0.0641  0.2694 -0.1514
 5151TIP3    H136944   2.803   6.688  15.777  1.8546 -0.8372 -1.3185
 5151TIP3    H236945   2.673   6.625  15.824  0.7580  2.4908  0.4426
 5152TIP3   OH236946   0.795   2.836  11.265  0.2153  0.2595  0.2713
 5152TIP3    H136947   0.732   2.907  11.268 -1.6904 -1.2236 -1.9160
 5152TIP3    H236948   0.800   2.812  11.173  1.8067 -1.5880  0.7791
 5153TIP3   OH236949   2.197   5.358   1.841  0.0272  0.1934  0.5726
 5153TIP3    H136950   2.258   5.382   1.771 -1.8423 -1.5673 -1.8384
 5153TIP3    H236951   2.113   5.348   1.797 -1.5471  0.2457  3.3584
 5154TIP3   OH236952   4.386   4.107  15.063 -0.3782 -0.1318  0.0083
 5154TIP3    H136953   4.448   4.128  15.132 -0.5213 -1.8984  0.7118
 5154TIP3    H236954   4.439   4.069  14.993 -0.5609 -0.8627  0.2649
 5155TIP3   OH236955   4.472   2.087  12.890  0.4901 -0.7054  0.1632
 5155TIP3    H136956   4.456   2.028  12.963 -0.2165 -0.5655  0.1317
 5155TIP3    H236957   4.554   2.057  12.852  0.2258 -1.5633  0.2515
 5156TIP3   OH236958   6.611   0.112  11.216 -0.8172  0.3715 -0.4280
 5156TIP3    H136959   6.675   0.046  11.242  0.0091  1.1449 -0.4387
 5156TIP3    H236960   6.655   0.162  11.147 -0.6994  2.0318  0.7696
 5157TIP3   OH236961   4.534   0.498  11.271  0.3236 -0.3094  0.4434
 5157TIP3    H136962   4.514   0.536  11.185 -0.1717  0.3218  0.8345
 5157TIP3    H236963   4.629   0.501  11.277  0.3215  0.3103  0.2135
 5158TIP3   OH236964   6.047   0.919   0.552  0.1030  0.0371  0.0508
 5158TIP3    H136965   5.993   0.843   0.530  1.3019 -0.4923 -1.2141
 5158TIP3    H236966   6.020   0.943   0.640 -1.0319 -1.2055  0.0763
 5159TIP3   OH236967   4.775   6.012  15.105  0.3302 -0.5908 -0.0171
 5159TIP3    H136968   4.801   6.076  15.172 -2.7180 -0.8512  1.6057
 5159TIP3    H236969   4.768   6.063  15.024  1.6329  0.2883  0.3912
 5160TIP3   OH236970   5.233   1.148   1.444 -0.1440 -0.1298 -0.0075
 5160TIP3    H136971   5.223   1.215   1.376  3.3810 -1.6838 -2.3645
 5160TIP3    H236972   5.206   1.067   1.401 -1.2568 -0.6903  1.6999
 5161TIP3   OH236973   6.307   5.769   5.243  0.2011 -0.2609  0.2188
 5161TIP3    H136974   6.398   5.762   5.214 -0.1867  0.2224 -1.1868
 5161TIP3    H236975   6.291   5.863   5.251 -0.6336 -0.2728 -1.1158
 5162TIP3   OH236976   0.274   6.603   2.105  0.1317  0.2300  0.0938
 5162TIP3    H136977   0.237   6.552   2.178 -1.4993  1.5367  0.2436
 5162TIP3    H236978   0.257   6.549   2.028  0.3261 -0.4023  0.4864
 5163TIP3   OH236979   5.421   5.965  11.110  0.6749 -0.2917 -0.0819
 5163TIP3    H136980   5.379   5.992  11.029  1.8944 -1.4532 -1.1540
 5163TIP3    H236981   5.515   5.971  11.092  0.9703 -1.2604  0.9777
 5164TIP3   OH236982   6.626   3.561   5.825 -0.0856 -0.1904 -0.2141
 5164TIP3    H136983   6.652   3.520   5.908  0.6556  0.0530 -0.3126
 5164TIP3    H236984   6.709   3.589   5.786 -0.5838  1.8491  0.0792
 5165TIP3   OH236985   5.642   3.594   2.305 -0.4110 -0.0461 -0.5347
 5165TIP3    H136986   5.696   3.618   2.230  0.2388  1.3430  0.3217
 5165TIP3    H236987   5.655   3.500   2.316  1.1314  0.1008 -0.9208
 5166TIP3   OH236988   4.260   4.390   4.590 -0.1083  0.4116  0.1654
 5166TIP3    H136989   4.336   4.439   4.558  0.5182 -1.8775 -2.2086
 5166TIP3    H236990   4.296   4.309   4.625 -1.3826 -0.0480  0.4862
 5167TIP3   OH236991   0.753   5.501  15.032 -0.1170 -0.6278 -0.4314
 5167TIP3    H136992   0.768   5.535  14.944 -0.8838  0.3215 -0.2175
 5167TIP3    H236993   0.811   5.425  15.039  1.3036  0.3488 -1.1180
 5168TIP3   OH236994   5.597   3.586   3.558  0.5259  0.3643 -0.2689
 5168TIP3    H136995   5.532   3.563   3.624  0.4350  0.4826 -0.3151
 5168TIP3    H236996   5.548   3.589   3.476  0.4366  1.1673 -0.1960
 5169TIP3   OH236997   4.673   2.276  11.522 -0.3047 -0.1187  0.5676
 5169TIP3    H136998   4.645   2.207  11.582 -0.4764  0.5392  1.2580
 5169TIP3    H236999   4.591   2.310  11.486 -0.1861 -0.8337 -0.4356
 5170TIP3   OH237000   1.173   5.582  16.851 -0.1490  0.1062  0.0901
 5170TIP3    H137001   1.102   5.622  16.801 -0.6860 -0.4491  0.4101
 5170TIP3    H237002   1.147   5.490  16.861  0.5530 -0.0742  0.3150
 5171TIP3   OH237003   4.260   1.813   3.118  0.0125  0.2225  0.1257
 5171TIP3    H137004   4.280   1.905   3.136 -0.1208  0.0092  1.4381
 5171TIP3    H237005   4.269   1.805   3.023  0.3660  1.5063  0.0317
 5172TIP3   OH237006   6.707   6.052  16.771 -0.0292  0.3945 -0.0576
 5172TIP3    H137007   6.688   5.965  16.737 -0.7605  0.4435  0.2202
 5172TIP3    H237008   6.746   6.099  16.697  0.4866 -0.2023 -0.1714
 5173TIP3   OH237009   6.607   4.713   5.332  0.0246 -0.4718 -0.0404
 5173TIP3    H137010   6.622   4.786   5.271 -0.9698 -0.5395 -0.3850
 5173TIP3    H237011   6.602   4.755   5.418 -0.4724 -0.1313 -0.2298
 5174TIP3   OH237012   3.171   3.109   1.695 -0.5372  0.5389 -0.0943
 5174TIP3    H137013   3.133   3.194   1.717  0.2553  1.1372 -0.9169
 5174TIP3    H237014   3.097   3.055   1.669 -1.0307  1.0571  0.2243
 5175TIP3   OH237015   1.817   0.278  13.321 -0.4534  0.4461  0.6831
 5175TIP3    H137016   1.762   0.291  13.398  0.2843  0.2931  1.2501
 5175TIP3    H237017   1.894   0.332  13.337 -0.0899  0.0619  0.2630
 5176TIP3   OH237018   4.420   2.071   2.299 -0.2995 -0.6454  0.4388
 5176TIP3    H137019   4.514   2.053   2.303 -0.0387  0.2306 -0.9703
 5176TIP3    H237020   4.402   2.120   2.380  1.0267  1.4567 -0.4438
 5177TIP3   OH237021   4.101   3.729   5.333 -0.1440 -0.2243  0.4527
 5177TIP3    H137022   4.155   3.651   5.349  0.2645 -0.4418 -1.6973
 5177TIP3    H237023   4.041   3.702   5.264 -1.6041  0.6858  1.3312
 5178TIP3   OH237024   3.014   2.818  14.354  0.3039  0.6778 -0.4021
 5178TIP3    H137025   2.936   2.839  14.302  1.0373 -0.0705 -1.8822
 5178TIP3    H237026   3.026   2.724  14.342  0.6634  0.5319  0.9392
 5179TIP3   OH237027   1.790   2.400   1.359  0.2355 -0.1391 -0.0362
 5179TIP3    H137028   1.871   2.386   1.309 -0.3267 -0.7099 -0.8075
 5179TIP3    H237029   1.722   2.357   1.307 -0.9212  2.0925 -0.4659
 5180TIP3   OH237030   4.896   1.063  11.831 -0.2031 -0.0162  0.2285
 5180TIP3    H137031   4.908   1.105  11.746  0.5643  2.7214  1.5949
 5180TIP3    H237032   4.801   1.050  11.837 -0.2509 -0.5329 -1.1211
 5181TIP3   OH237033   6.809   2.795   4.767  0.1491 -0.0002  0.4722
 5181TIP3    H137034   6.766   2.742   4.700  0.8469  0.1194 -0.0888
 5181TIP3    H237035   6.874   2.737   4.806  2.2164  0.9115 -1.4260
 5182TIP3   OH237036   5.088   2.850  12.252  0.3126  0.3477  0.6651
 5182TIP3    H137037   5.110   2.935  12.290 -2.7763  1.1816  0.8896
 5182TIP3    H237038   5.020   2.870  12.188  0.8996 -1.7793 -0.7152
 5183TIP3   OH237039   3.566   0.949  13.378 -0.3694  0.4073  0.0935
 5183TIP3    H137040   3.542   0.857  13.381 -0.0714  0.3262  0.0981
 5183TIP3    H237041   3.546   0.977  13.289 -0.2978  0.2914  0.0409
 5184TIP3   OH237042   0.052   1.551   2.947  0.1773 -0.5778  0.0566
 5184TIP3    H137043   0.145   1.538   2.966  1.0184  3.3364 -0.4434
 5184TIP3    H237044   0.022   1.611   3.015 -1.2867  0.2333 -1.2351
 5185TIP3   OH237045   0.495   3.800   2.533  0.2292 -0.4033 -0.4511
 5185TIP3    H137046   0.578   3.834   2.499  0.2618 -0.4307 -0.3980
 5185TIP3    H237047   0.516   3.714   2.569  0.0481 -0.7054 -1.0501
 5186TIP3   OH237048   1.769   5.447  16.899 -0.0338 -0.0631  0.4835
 5186TIP3    H137049   1.851   5.459  16.852 -1.1322  2.3737 -0.9884
 5186TIP3    H237050   1.703   5.492  16.845 -2.1123 -0.7828  2.2665
 5187TIP3   OH237051   5.380   2.786  12.879 -0.3129 -0.0133 -0.2614
 5187TIP3    H137052   5.332   2.714  12.838 -0.4938  0.1183 -0.2825
 5187TIP3    H237053   5.470   2.776  12.848 -0.6676  0.7504 -1.6141
 5188TIP3   OH237054   0.492   1.644   6.518 -0.1557 -0.1689 -0.0331
 5188TIP3    H137055   0.538   1.560   6.514 -1.3970 -1.0416  2.2694
 5188TIP3    H237056   0.436   1.644   6.441  0.3301 -1.1735 -0.4106
 5189TIP3   OH237057   1.479   6.509   0.801 -0.1750  0.2061 -0.3544
 5189TIP3    H137058   1.434   6.466   0.873 -0.4516  0.0379 -0.6298
 5189TIP3    H237059   1.489   6.600   0.830  0.1667  0.0271  0.1077
 5190TIP3   OH237060   6.573   0.258  15.449  0.5874  0.3985  0.2526
 5190TIP3    H137061   6.666   0.244  15.467  0.2867 -0.2249  1.4529
 5190TIP3    H237062   6.539   0.171  15.428  0.4958  0.8023 -1.3838
 5191TIP3   OH237063   4.908   6.039   0.242  0.2778  0.0184  0.1576
 5191TIP3    H137064   4.898   5.945   0.257 -2.2536  0.5902  3.0027
 5191TIP3    H237065   4.987   6.063   0.290 -1.3226 -0.1313  3.1089
 5192TIP3   OH237066   3.171   0.636   1.657 -0.7096  0.1215 -0.1044
 5192TIP3    H137067   3.157   0.646   1.751  1.5704 -2.4427  0.6150
 5192TIP3    H237068   3.106   0.571   1.630 -0.4380 -0.2009  0.0104
 5193TIP3   OH237069   1.942   4.024  13.492 -0.6079  0.3383  0.4783
 5193TIP3    H137070   1.988   3.966  13.431 -0.4912 -2.3964  2.9455
 5193TIP3    H237071   1.870   4.061  13.441  0.8948  0.1410 -1.9218
 5194TIP3   OH237072   2.976   1.466  13.554 -0.2783 -0.1534 -0.0855
 5194TIP3    H137073   2.888   1.504  13.550 -2.4317 -4.3693  1.1228
 5194TIP3    H237074   3.007   1.466  13.463 -2.0856  0.3273 -0.7398
 5195TIP3   OH237075   0.494   1.259   1.080  0.2626 -0.4050 -0.1613
 5195TIP3    H137076   0.415   1.313   1.078 -1.3744 -2.6807 -1.2628
 5195TIP3    H237077   0.566   1.322   1.073 -1.4880  1.6290 -1.0190
 5196TIP3   OH237078   1.066   4.947   0.626 -0.8843  0.1469  0.0639
 5196TIP3    H137079   1.112   4.902   0.555  0.6020  0.6523  0.6838
 5196TIP3    H237080   1.013   4.878   0.667  1.5579 -1.1663  1.1738
 5197TIP3   OH237081   6.291   3.263  16.115 -0.2206  0.6574  0.9529
 5197TIP3    H137082   6.217   3.203  16.110 -1.1752  1.8879 -1.1023
 5197TIP3    H237083   6.262   3.334  16.171 -0.4345  0.9268  0.5025
 5198TIP3   OH237084   5.845   6.602   5.446  0.1173  0.0669 -0.5904
 5198TIP3    H137085   5.786   6.527   5.448  1.1680 -0.7697  0.7499
 5198TIP3    H237086   5.823   6.652   5.525  0.8694  0.0065 -0.3397
 5199TIP3   OH237087   3.815   1.622   0.939 -0.5811 -0.3481  0.0220
 5199TIP3    H137088   3.830   1.535   0.901 -2.3483 -0.6956  0.0260
 5199TIP3    H237089   3.834   1.683   0.868  1.6437 -0.6441  0.3035
 5200TIP3   OH237090   3.453   2.882   6.902  0.4127 -0.1796  0.1986
 5200TIP3    H137091   3.379   2.942   6.910  0.2979 -0.4549  1.3610
 5200TIP3    H237092   3.441   2.840   6.817  0.6486  1.6147 -0.7638
 5201TIP3   OH237093   3.929   5.342  11.683  0.3413 -0.0196  0.4783
 5201TIP3    H137094   3.969   5.426  11.704  0.1000  0.0738  0.5743
 5201TIP3    H237095   4.001   5.280  11.682  1.3478  0.8577 -3.8465
 5202TIP3   OH237096   3.815   0.209  16.508 -0.4436 -0.3402 -0.1382
 5202TIP3    H137097   3.871   0.236  16.580 -2.7481  0.1784  1.5698
 5202TIP3    H237098   3.856   0.246  16.430  1.0574  0.7821  1.1366
 5203TIP3   OH237099   0.945   0.696   1.140  0.3388  0.0258  0.1915
 5203TIP3    H137100   0.894   0.776   1.133 -2.6273 -1.8363 -2.2726
 5203TIP3    H237101   0.907   0.650   1.215  1.7887  0.6915  1.3758
 5204TIP3   OH237102   6.043   1.811   4.171 -0.0604  0.3449 -0.2817
 5204TIP3    H137103   5.965   1.822   4.226  1.8882  0.1789  2.7572
 5204TIP3    H237104   6.057   1.898   4.133 -0.7314  0.8743  0.6229
 5205TIP3   OH237105   0.642   3.466   4.168  0.1199 -0.4297 -0.0704
 5205TIP3    H137106   0.715   3.455   4.229 -0.5041 -0.2209  0.7264
 5205TIP3    H237107   0.652   3.555   4.135 -1.0344  0.4226  1.7518
 5206TIP3   OH237108   2.611   0.044  14.488  0.0340  0.5443  0.2441
 5206TIP3    H137109   2.567   0.086  14.561  0.8921 -1.7145  2.1903
 5206TIP3    H237110   2.667   0.112  14.451 -0.2772  1.6981  1.8052
 5207TIP3   OH237111   3.834   2.930   0.934 -0.1784 -0.2841 -0.4664
 5207TIP3    H137112   3.806   2.984   0.860  1.0731  2.1214  0.7101
 5207TIP3    H237113   3.777   2.955   1.006  1.2018  0.4617  0.4209
 5208TIP3   OH237114   1.469   0.549  14.054  0.0822 -0.3001 -0.3834
 5208TIP3    H137115   1.381   0.515  14.071 -0.2512  0.6938 -0.0013
 5208TIP3    H237116   1.456   0.643  14.041  1.0902 -0.1380 -0.3168
 5209TIP3   OH237117   0.574   0.953  15.876 -0.6467  0.0125 -0.3243
 5209TIP3    H137118   0.546   0.862  15.868  0.6359 -0.2613 -2.8477
 5209TIP3    H237119   0.657   0.957  15.828 -1.1209  2.6619 -1.1009
 5210TIP3   OH237120   4.232   5.133   2.284  0.1117 -0.4727  0.2191
 5210TIP3    H137121   4.261   5.128   2.375  1.1943  1.5119  0.0513
 5210TIP3    H237122   4.283   5.067   2.238 -0.0794 -1.1435  0.9519
 5211TIP3   OH237123   2.509   2.512  14.450  0.2742  0.0979 -0.2381
 5211TIP3    H137124   2.472   2.439  14.402  0.4196 -0.3715  0.3520
 5211TIP3    H237125   2.488   2.589  14.397 -0.3985 -0.3020 -0.5602
 5212TIP3   OH237126   6.518   6.527  13.763 -0.3170  0.1761 -0.1181
 5212TIP3    H137127   6.424   6.509  13.763 -0.4648  0.9085 -0.4560
 5212TIP3    H237128   6.532   6.580  13.842  0.2030 -1.7653  1.1668
 5213TIP3   OH237129   0.104   0.799  12.585 -0.7963 -0.0967  0.4891
 5213TIP3    H137130   0.124   0.797  12.491 -1.1371 -2.0803  0.4201
 5213TIP3    H237131   0.150   0.877  12.617 -1.5888  1.2955 -1.5000
 5214TIP3   OH237132   1.724   5.366  13.773 -0.0824 -0.3916 -0.1598
 5214TIP3    H137133   1.710   5.311  13.696  0.3028 -1.7013  0.6681
 5214TIP3    H237134   1.820   5.374  13.779 -0.1046  3.3607 -2.2723
 5215TIP3   OH237135   3.429   1.551   1.145  0.2876  0.0477  0.2137
 5215TIP3    H137136   3.507   1.525   1.193  1.0588 -1.2990 -1.6440
 5215TIP3    H237137   3.426   1.492   1.070 -2.1068  0.5768 -0.1957
 5216TIP3   OH237138   2.966   5.342  16.791 -0.0964  0.4293  0.1992
 5216TIP3    H137139   2.982   5.357  16.698  2.1281 -0.0416  0.4617
 5216TIP3    H237140   2.977   5.429  16.831 -0.8373  0.5895  0.0756
 5217TIP3   OH237141   0.657   5.092  12.269  0.2178  0.6179  0.0918
 5217TIP3    H137142   0.695   5.054  12.190  0.6205  1.6692 -0.2290
 5217TIP3    H237143   0.568   5.057  12.272  0.2031  0.5680 -0.8119
 5218TIP3   OH237144   1.037   1.617  14.126  0.3725 -0.3217  0.4251
 5218TIP3    H137145   1.003   1.570  14.050 -0.8416  1.6009 -0.2926
 5218TIP3    H237146   1.029   1.709  14.102 -0.1653  0.3503  2.9412
 5219TIP3   OH237147   4.800   0.466  11.290  0.0457  0.4099 -0.0558
 5219TIP3    H137148   4.834   0.478  11.379  2.7877  2.0257 -1.1669
 5219TIP3    H237149   4.825   0.377  11.266 -0.2066  0.1592  0.6124
 5220TIP3   OH237150   2.368   6.102   2.745 -0.4965 -0.0755 -0.3695
 5220TIP3    H137151   2.373   6.117   2.651  0.7824  0.0982 -0.2911
 5220TIP3    H237152   2.348   6.188   2.782  1.9681  0.5143 -0.2829
 5221TIP3   OH237153   5.233   2.400   4.480 -0.0921  0.0282 -0.4590
 5221TIP3    H137154   5.154   2.439   4.516  1.2786  1.0888  1.5984
 5221TIP3    H237155   5.231   2.423   4.387 -0.7710  2.6269  0.1222
 5222TIP3   OH237156   0.661   4.438   5.774  0.7060 -0.3321 -0.0015
 5222TIP3    H137157   0.625   4.356   5.740  0.0815 -0.1791  0.2825
 5222TIP3    H237158   0.753   4.418   5.791  1.1204 -0.3372 -2.0045
 5223TIP3   OH237159   5.313   3.891  12.039  0.5059  0.0799 -0.1217
 5223TIP3    H137160   5.242   3.953  12.024  1.4404  1.3497  0.4689
 5223TIP3    H237161   5.381   3.916  11.976  0.8428 -0.4414  0.0247
 5224TIP3   OH237162   4.319   2.871  13.447  0.7783 -0.5511  0.5629
 5224TIP3    H137163   4.333   2.780  13.421  3.8738 -0.5590  1.8118
 5224TIP3    H237164   4.404   2.913  13.434 -0.6903  2.4151 -0.5983
 5225TIP3   OH237165   0.588   4.022  11.577  0.9548  0.0863 -0.3980
 5225TIP3    H137166   0.563   4.105  11.619 -2.6923  0.0250 -2.0703
 5225TIP3    H237167   0.583   3.957  11.647 -1.2973  0.5540 -0.0500
 5226TIP3   OH237168   3.501   3.406   4.346 -0.1634  0.4362  0.5570
 5226TIP3    H137169   3.563   3.463   4.300 -1.5630  0.8467 -0.9030
 5226TIP3    H237170   3.432   3.465   4.377 -1.8513 -0.4231 -1.3356
 5227TIP3   OH237171   1.826   5.085  12.324  0.1235 -0.6378  0.1974
 5227TIP3    H137172   1.873   5.158  12.284  2.5398 -2.6940 -0.9161
 5227TIP3    H237173   1.740   5.122  12.345  1.8799  3.1519  1.7429
 5228TIP3   OH237174   5.637   1.575  16.711  0.2082  0.7192  0.7288
 5228TIP3    H137175   5.727   1.606  16.701  0.6472 -0.4987  0.7103
 5228TIP3    H237176   5.639   1.485  16.678 -0.9505  0.5705  1.0167
 5229TIP3   OH237177   1.115   1.894   5.492  0.2493  0.4117 -0.2065
 5229TIP3    H137178   1.028   1.870   5.523  1.0342  0.1060  1.9336
 5229TIP3    H237179   1.108   1.892   5.396 -2.0759  0.4273 -0.0882
 5230TIP3   OH237180   2.052   2.042  13.776  0.4320 -0.1790 -0.2689
 5230TIP3    H137181   2.117   2.050  13.707  1.1910  0.5607  0.4991
 5230TIP3    H237182   2.103   2.021  13.854 -0.3293 -0.2826  0.2126
 5231TIP3   OH237183   0.819   2.726   1.791  0.3972 -0.1840 -0.2274
 5231TIP3    H137184   0.787   2.636   1.784  1.3310 -0.5294 -0.1396
 5231TIP3    H237185   0.912   2.717   1.808  0.3578  0.8007  0.5716
 5232TIP3   OH237186   0.539   2.992  11.272  0.1149  0.0490 -0.3026
 5232TIP3    H137187   0.511   3.057  11.336  1.6498  0.7439 -0.2934
 5232TIP3    H237188   0.481   2.917  11.287 -0.0155  0.4533  1.4297
 5233TIP3   OH237189   2.196   0.190   5.688  0.5876  0.2872 -0.1211
 5233TIP3    H137190   2.124   0.218   5.744  1.0055 -1.8804  1.6542
 5233TIP3    H237191   2.157   0.124   5.630  0.4592  1.5219 -1.4767
 5234TIP3   OH237192   1.512   6.478  15.688 -0.7010 -0.2014 -0.6208
 5234TIP3    H137193   1.504   6.398  15.740 -2.8266 -0.1125 -0.6992
 5234TIP3    H237194   1.577   6.530  15.734 -2.6399 -0.0381  2.1649
 5235TIP3   OH237195   2.933   3.340   4.586 -0.2062 -0.1625  0.1748
 5235TIP3    H137196   2.969   3.426   4.609 -1.0965  0.9276 -2.0910
 5235TIP3    H237197   3.009   3.287   4.562  0.2738  0.3578  0.5302
 5236TIP3   OH237198   4.154   5.546  14.733 -0.2714  0.1882  0.6934
 5236TIP3    H137199   4.150   5.636  14.700  0.8803 -0.0364 -0.1125
 5236TIP3    H237200   4.131   5.492  14.657 -0.7597 -0.2178  1.1244
 5237TIP3   OH237201   2.994   1.145   3.205 -0.8131  0.3054  0.1873
 5237TIP3    H137202   2.964   1.066   3.251 -1.8983 -0.0275 -1.0222
 5237TIP3    H237203   2.925   1.162   3.140 -0.4543  2.0901  0.2262
 5238TIP3   OH237204   1.470   3.570  15.995 -0.3225 -0.0625  0.2509
 5238TIP3    H137205   1.519   3.633  16.048 -1.2240  0.7852  0.0989
 5238TIP3    H237206   1.407   3.623  15.946  0.1199 -0.8689 -1.2811
 5239TIP3   OH237207   4.829   2.273  11.947 -0.0767  0.3842 -0.3332
 5239TIP3    H137208   4.890   2.347  11.946  0.4053  0.0526  1.3425
 5239TIP3    H237209   4.743   2.313  11.934  0.0657  1.4025  1.5559
 5240TIP3   OH237210   6.743   2.349  13.931  0.1717 -0.3033 -0.1166
 5240TIP3    H137211   6.667   2.363  13.874 -0.0564 -1.4167 -0.1131
 5240TIP3    H237212   6.706   2.351  14.019  0.4765  1.1192 -0.0003
 5241TIP3   OH237213   2.998   4.913  10.421  0.3516  0.1857 -0.0221
 5241TIP3    H137214   3.002   4.900  10.516 -0.3099  0.6372  0.0745
 5241TIP3    H237215   3.011   4.826  10.384  2.2179  0.2265  0.4308
 5242TIP3   OH237216   1.996   4.419   2.807 -0.0746 -0.3158 -0.8798
 5242TIP3    H137217   1.915   4.390   2.766 -0.3513 -1.6223  0.5158
 5242TIP3    H237218   2.021   4.347   2.864  1.2689  0.6994 -0.1311
 5243TIP3   OH237219   0.998   2.210   4.366  0.4599  0.1481  0.8388
 5243TIP3    H137220   0.946   2.266   4.423 -1.4222  0.8952 -1.4618
 5243TIP3    H237221   1.069   2.266   4.336  0.5341  0.2364  1.1673
 5244TIP3   OH237222   2.412   1.688   3.255 -0.1164  0.0559  0.1550
 5244TIP3    H137223   2.460   1.611   3.286 -1.1892 -0.9747 -0.6875
 5244TIP3    H237224   2.461   1.762   3.292  0.7932 -1.0117  1.1967
 5245TIP3   OH237225   6.597   4.041  16.121 -0.2933  1.1115 -0.2846
 5245TIP3    H137226   6.548   4.081  16.193 -0.3260 -0.0195  0.3334
 5245TIP3    H237227   6.581   3.947  16.129  1.2602  0.7843 -0.5942
 5246TIP3   OH237228   3.987   6.208  12.867  0.5876 -0.3235  0.0030
 5246TIP3    H137229   4.014   6.285  12.918  1.9608 -0.0150 -1.1168
 5246TIP3    H237230   3.892   6.214  12.863  0.6601  1.2867  0.0097
 5247TIP3   OH237231   1.870   0.035   5.904  0.0029  0.2002  0.6191
 5247TIP3    H137232   1.860  -0.007   5.989  0.4539  0.3962  0.7725
 5247TIP3    H237233   1.955   0.005   5.872 -0.4446 -0.3861 -0.0619
 5248TIP3   OH237234   2.476   0.422  14.269 -0.7138  0.4686 -0.0169
 5248TIP3    H137235   2.549   0.461  14.221 -1.1465  1.3504  0.0187
 5248TIP3    H237236   2.502   0.428  14.361  0.1366 -1.2655 -0.1094
 5249TIP3   OH237237   3.182   6.044   4.782 -0.2446  0.1254 -0.0409
 5249TIP3    H137238   3.253   6.021   4.723  0.3745  0.4921  0.5515
 5249TIP3    H237239   3.218   6.112   4.839 -0.0610 -1.7385  2.2272
 5250TIP3   OH237240   0.861   3.018  13.439  0.4387 -0.7432  0.3738
 5250TIP3    H137241   0.796   2.959  13.476  0.3174  0.1101  1.5618
 5250TIP3    H237242   0.918   3.041  13.512 -0.0287  1.2667  0.1768
 5251TIP3   OH237243   4.810   0.325  17.073 -0.0613  0.1774  0.1378
 5251TIP3    H137244   4.844   0.352  16.987  1.3997 -1.8217  0.0285
 5251TIP3    H237245   4.864   0.372  17.136  0.1071  0.2284 -0.0426
 5252TIP3   OH237246   1.586   5.776   5.092 -0.7749 -0.0261 -0.0546
 5252TIP3    H137247   1.565   5.830   5.169  1.5817 -0.3739  0.9067
 5252TIP3    H237248   1.581   5.686   5.124 -2.6294 -0.3670 -1.1276
 5253TIP3   OH237249   3.967   4.389  14.881  0.1994 -0.2638  0.4703
 5253TIP3    H137250   3.993   4.450  14.812 -0.2869  0.5636  0.9979
 5253TIP3    H237251   3.918   4.321  14.836  0.4558 -0.0832 -0.0868
 5254TIP3   OH237252   3.375   6.038   4.586  0.3773 -0.0746  0.2263
 5254TIP3    H137253   3.347   5.947   4.579 -1.3913  0.3651  0.9476
 5254TIP3    H237254   3.434   6.051   4.512  0.2260 -1.6545 -0.2043
 5255TIP3   OH237255   0.406   6.104   5.433 -0.1763 -0.0381 -0.4318
 5255TIP3    H137256   0.346   6.070   5.367 -2.0672 -0.4299  1.3933
 5255TIP3    H237257   0.429   6.192   5.401 -2.8521  0.6940 -0.5473
 5256TIP3   OH237258   4.056   1.882  12.686 -0.0867 -0.1864  0.5983
 5256TIP3    H137259   4.082   1.908  12.774  0.6702 -1.6654  0.8484
 5256TIP3    H237260   3.974   1.928  12.670  1.2606  2.5010  0.8611
 5257TIP3   OH237261   4.845   6.320  14.406  0.0960  0.7313 -0.3231
 5257TIP3    H137262   4.816   6.247  14.460  1.3346  0.7551  0.4152
 5257TIP3    H237263   4.915   6.284  14.351  1.2564  1.5102  0.5918
 5258TIP3   OH237264   2.099   3.640  16.621 -0.0340  0.2806  0.5583
 5258TIP3    H137265   2.012   3.604  16.642  0.2065  0.9702  3.1402
 5258TIP3    H237266   2.160   3.572  16.649  0.3227 -0.5674 -2.0504
 5259TIP3   OH237267   2.765   2.549   1.439 -0.3969  0.2753  0.4631
 5259TIP3    H137268   2.739   2.544   1.348  0.5000 -3.2327  0.2166
 5259TIP3    H237269   2.861   2.554   1.436 -0.4241  2.1820  1.2890
 5260TIP3   OH237270   3.563   4.527  12.571 -0.5505  0.2831  0.1156
 5260TIP3    H137271   3.557   4.432  12.568  0.6192  0.1339  1.2711
 5260TIP3    H237272   3.645   4.547  12.525 -0.5688  0.6916  0.2578
 5261TIP3   OH237273   0.817   6.007   2.203  0.3225 -0.4559 -0.0983
 5261TIP3    H137274   0.843   5.973   2.117  1.5638 -0.5350  0.2934
 5261TIP3    H237275   0.835   6.100   2.199  2.5553 -0.7779  0.7909
 5262TIP3   OH237276   3.700   6.162   4.781  0.2921 -0.2033  0.2503
 5262TIP3    H137277   3.724   6.133   4.868  1.9699  0.3729  0.0085
 5262TIP3    H237278   3.685   6.081   4.732  0.5175 -0.5515  0.7533
 5263TIP3   OH237279   4.884   6.282   3.678  0.0326  0.2565  0.2226
 5263TIP3    H137280   4.812   6.219   3.677 -1.7041  2.1065 -1.4262
 5263TIP3    H237281   4.895   6.306   3.586 -0.6013  3.5994  0.9133
 5264TIP3   OH237282   4.787   5.320   2.291  0.0503  0.0983 -0.2600
 5264TIP3    H137283   4.705   5.354   2.257 -1.9853 -2.5773  1.4960
 5264TIP3    H237284   4.812   5.251   2.229 -0.3091 -0.6034  0.3536
 5265TIP3   OH237285   3.260   5.730  15.005  0.5438 -0.0739 -0.4540
 5265TIP3    H137286   3.205   5.660  15.040  1.3585 -0.2086  0.6355
 5265TIP3    H237287   3.322   5.686  14.948  2.3828 -0.6241  1.7965
 5266TIP3   OH237288   0.205   3.789  12.977  0.1560 -0.0923  0.1248
 5266TIP3    H137289   0.286   3.738  12.982  1.1073  1.3522  0.1826
 5266TIP3    H237290   0.167   3.784  13.064  0.9781  0.4132  0.5314
 5267TIP3   OH237291   0.849   3.445  15.237 -0.5109 -0.0767 -0.2424
 5267TIP3    H137292   0.937   3.408  15.244 -0.2100  0.5754 -0.4958
 5267TIP3    H237293   0.855   3.528  15.286 -0.3597  1.0498 -2.0819
 5268TIP3   OH237294   6.730   5.166  12.335 -0.0759 -0.0709 -0.2811
 5268TIP3    H137295   6.746   5.258  12.352 -0.2430  0.2549 -1.7757
 5268TIP3    H237296   6.650   5.146  12.385 -0.9002  0.9871 -1.1293
 5269TIP3   OH237297   5.870   0.061   4.786 -0.3322 -0.2670 -0.1876
 5269TIP3    H137298   5.903   0.050   4.696  1.7294 -0.5607  0.5459
 5269TIP3    H237299   5.931   0.125   4.825 -3.0291  2.3171  0.1455
 5270TIP3   OH237300   2.788   3.055  14.991 -0.3126  0.2970  0.0125
 5270TIP3    H137301   2.717   3.036  14.930  0.6328  0.1071 -1.0443
 5270TIP3    H237302   2.846   2.980  14.986 -0.0301  0.4398  0.8866
 5271TIP3   OH237303   6.112   5.097  16.254 -0.0195 -0.1990 -0.0136
 5271TIP3    H137304   6.094   5.029  16.189  0.2775 -0.6620  0.3803
 5271TIP3    H237305   6.071   5.065  16.335 -3.0781  1.7717 -0.6170
 5272TIP3   OH237306   1.228   0.880   0.773 -0.7562 -0.1999 -0.4494
 5272TIP3    H137307   1.288   0.906   0.844 -1.8224 -0.6093  0.6433
 5272TIP3    H237308   1.283   0.830   0.713  0.3305  0.7576 -0.2770
 5273TIP3   OH237309   4.618   3.677   6.024 -0.4142 -0.4456  0.1032
 5273TIP3    H137310   4.681   3.605   6.013 -1.3811 -1.1087 -1.4019
 5273TIP3    H237311   4.669   3.756   6.005  0.4636 -0.7819  0.9794
 5274TIP3   OH237312   5.967   0.796   6.392 -0.1126 -0.1932 -0.5309
 5274TIP3    H137313   6.023   0.720   6.375  1.2052 -0.1084  2.7787
 5274TIP3    H237314   5.877   0.762   6.383  0.4348 -1.3837 -1.8691
 5275TIP3   OH237315   5.458   3.395   5.712  0.0578 -0.0561 -0.6201
 5275TIP3    H137316   5.431   3.345   5.634  3.3651  0.5200 -2.3330
 5275TIP3    H237317   5.451   3.487   5.685  1.1176  0.1495 -0.2515
 5276TIP3   OH237318   4.875   1.490   3.869  0.0831  0.0246 -0.2909
 5276TIP3    H137319   4.825   1.450   3.939  0.9690 -3.0689 -1.2624
 5276TIP3    H237320   4.966   1.481   3.896  0.3857 -0.3465 -1.3594
 5277TIP3   OH237321   1.492   6.029   4.459  0.3903  0.2881  0.3718
 5277TIP3    H137322   1.520   6.052   4.548 -0.9258  0.6849  0.7129
 5277TIP3    H237323   1.432   6.100   4.434  0.9561  0.3160 -0.9437
 5278TIP3   OH237324   4.786   4.205  10.874  0.0585  0.1397  0.0839
 5278TIP3    H137325   4.773   4.240  10.786  1.5230 -1.0248 -0.6461
 5278TIP3    H237326   4.712   4.145  10.888 -0.9483  1.3838  0.2446
 5279TIP3   OH237327   4.869   4.507  11.790 -0.8731 -0.1348  0.3199
 5279TIP3    H137328   4.783   4.532  11.757 -1.2134 -0.0137  1.2886
 5279TIP3    H237329   4.868   4.530  11.883 -0.1583 -1.0455  0.5770
 5280TIP3   OH237330   2.978   6.598   2.732 -0.1274 -0.5659  0.6019
 5280TIP3    H137331   3.061   6.637   2.706 -0.2478  0.8195  2.1605
 5280TIP3    H237332   2.995   6.560   2.818 -0.6702 -1.8375  0.1693
 5281TIP3   OH237333   3.793   0.178  12.343  0.8493  0.2560 -0.1353
 5281TIP3    H137334   3.762   0.089  12.360  2.1877 -0.1114  0.5963
 5281TIP3    H237335   3.813   0.179  12.249  0.1413  0.0167 -0.2915
 5282TIP3   OH237336   2.492   5.335   3.437  0.1192  0.1814  0.2882
 5282TIP3    H137337   2.546   5.307   3.363  0.9053  1.5619  0.3034
 5282TIP3    H237338   2.516   5.426   3.451 -0.2220  0.0422  2.0611
 5283TIP3   OH237339   3.303   4.690   0.699 -0.5457 -0.0435 -0.1949
 5283TIP3    H137340   3.245   4.651   0.634 -2.8193  2.5450  0.0684
 5283TIP3    H237341   3.245   4.716   0.770  1.2665  0.8320  1.0415
 5284TIP3   OH237342   4.797   4.740  15.160 -0.4318  0.4874 -0.1641
 5284TIP3    H137343   4.738   4.814  15.174  0.2080  0.9043  0.3582
 5284TIP3    H237344   4.877   4.764  15.206 -1.4843 -2.2167  3.5551
 5285TIP3   OH237345   4.938   1.310  16.995 -0.5493  0.1903 -0.0463
 5285TIP3    H137346   4.974   1.317  17.084  0.2823 -0.7236 -0.2936
 5285TIP3    H237347   4.844   1.322  17.006 -0.3823  0.7282  0.8740
 5286TIP3   OH237348   0.721   6.158  14.283 -0.2675 -0.3204  0.4765
 5286TIP3    H137349   0.759   6.075  14.254 -0.0006 -0.4082  1.0539
 5286TIP3    H237350   0.777   6.224  14.243 -1.1206 -0.3880 -0.8561
 5287TIP3   OH237351   4.234   0.177  14.711 -0.1079  0.0287  0.5203
 5287TIP3    H137352   4.268   0.251  14.661 -1.0725 -0.2863 -0.6339
 5287TIP3    H237353   4.168   0.214  14.768  1.0455  0.4011  1.6691
 5288TIP3   OH237354   5.416   3.561   3.316  0.2641 -0.3025 -0.0271
 5288TIP3    H137355   5.394   3.590   3.227 -0.1356  0.1751  0.2302
 5288TIP3    H237356   5.332   3.544   3.358  0.4586 -0.6721  0.2168
 5289TIP3   OH237357   6.016   3.266   2.909 -0.1186 -0.3748 -0.2968
 5289TIP3    H137358   5.980   3.340   2.958  0.8360  0.0479 -0.2099
 5289TIP3    H237359   6.053   3.208   2.975  0.1041 -0.3936 -0.4366
 5290TIP3   OH237360   0.982   2.387   3.813 -0.1520  0.5954  0.6865
 5290TIP3    H137361   0.964   2.344   3.897 -0.0461 -0.1261  0.3425
 5290TIP3    H237362   0.946   2.327   3.747  0.1820  0.9339  0.1924
 5291TIP3   OH237363   4.485   1.144   5.504 -0.3224  0.1789 -0.1460
 5291TIP3    H137364   4.475   1.163   5.597  0.8885  3.2722 -0.5401
 5291TIP3    H237365   4.418   1.197   5.461 -0.4445 -0.7093 -1.1031
 5292TIP3   OH237366   0.767   5.885  11.161  0.3765  0.4102 -0.6279
 5292TIP3    H137367   0.758   5.873  11.255  1.6605  0.0176 -0.5481
 5292TIP3    H237368   0.677   5.893  11.130 -0.0305  2.5642  0.8790
 5293TIP3   OH237369   4.678   5.582  11.609 -0.4532  0.5083 -0.2114
 5293TIP3    H137370   4.763   5.550  11.577 -0.3703  1.6333 -1.1470
 5293TIP3    H237371   4.660   5.526  11.685  0.1900 -1.0574 -1.1415
 5294TIP3   OH237372   5.558   2.647   4.870  0.6578 -0.3681  1.0543
 5294TIP3    H137373   5.648   2.681   4.870  1.3012 -1.9379  1.6711
 5294TIP3    H237374   5.568   2.554   4.853 -1.1455 -0.1235 -2.1297
 5295TIP3   OH237375   0.504   5.200   2.878  0.1149  0.4971 -0.6239
 5295TIP3    H137376   0.516   5.185   2.972  0.0493 -0.3465 -0.7395
 5295TIP3    H237377   0.514   5.294   2.867 -1.0455  0.7764  0.4059
 5296TIP3   OH237378   1.625   4.927  16.845  0.8591  0.1179 -0.1942
 5296TIP3    H137379   1.604   4.860  16.780 -1.3514 -1.4666  1.9493
 5296TIP3    H237380   1.715   4.907  16.873  0.8310 -0.8859 -0.8014
 5297TIP3   OH237381   4.167   4.542  15.907 -0.3390 -0.1698 -0.1878
 5297TIP3    H137382   4.136   4.487  15.835 -0.0938 -1.0442  0.3645
 5297TIP3    H237383   4.261   4.548  15.894 -0.3902  0.3265 -0.3737
 5298TIP3   OH237384   5.484   0.510   4.351  0.5252  0.2944 -0.4990
 5298TIP3    H137385   5.525   0.539   4.270  1.8083 -1.2563 -0.4398
 5298TIP3    H237386   5.394   0.487   4.326  0.5114  1.0799 -1.1892
 5299TIP3   OH237387   2.835   6.708  11.568 -0.3364  0.0999  0.1025
 5299TIP3    H137388   2.844   6.738  11.478 -0.0085 -1.6237 -0.4707
 5299TIP3    H237389   2.743   6.683  11.576 -0.4839  0.7099  0.4212
 5300TIP3   OH237390   1.541   3.739  17.266 -0.4018 -0.0816  0.2441
 5300TIP3    H137391   1.510   3.739  17.175 -0.6135  0.9825  0.3073
 5300TIP3    H237392   1.626   3.781  17.262 -0.4343  0.0107  0.5476
 5301TIP3   OH237393   6.373   2.139  11.281  0.0501 -0.5905  0.1046
 5301TIP3    H137394   6.462   2.131  11.246 -0.6590 -2.4625 -1.4527
 5301TIP3    H237395   6.377   2.093  11.365  0.5437 -0.6951  0.0315
 5302TIP3   OH237396   5.456   5.365  15.080 -0.2397 -0.3272 -0.5923
 5302TIP3    H137397   5.447   5.447  15.128  0.3105 -0.6481  0.0882
 5302TIP3    H237398   5.394   5.372  15.008 -0.1684  0.7028 -0.5712
 5303TIP3   OH237399   3.459   1.445   4.149  0.4243  0.2178 -0.3132
 5303TIP3    H137400   3.535   1.470   4.202  1.1435  0.2161 -1.3179
 5303TIP3    H237401   3.396   1.515   4.163  0.3616 -0.0596  0.9779
 5304TIP3   OH237402   1.016   0.525   5.630 -0.4824  0.1303 -0.0645
 5304TIP3    H137403   1.001   0.432   5.646  2.7530 -0.3412  0.9268
 5304TIP3    H237404   0.984   0.569   5.709 -0.2767 -0.3467  0.2844
 5305TIP3   OH237405   2.550   4.662   2.094 -0.0241 -0.1132  0.2547
 5305TIP3    H137406   2.587   4.599   2.032 -0.9417 -0.8234  0.3977
 5305TIP3    H237407   2.578   4.747   2.061  1.7239 -0.6113  0.3907
 5306TIP3   OH237408   0.819   1.566   1.195  0.1955 -0.4635  0.0622
 5306TIP3    H137409   0.730   1.532   1.202  0.2542 -0.7745 -0.6068
 5306TIP3    H237410   0.827   1.627   1.268 -0.3521 -0.9105  0.5099
 5307TIP3   OH237411   0.334   5.345  16.301 -0.4052 -0.9003 -0.4114
 5307TIP3    H137412   0.346   5.380  16.389 -1.3368 -0.6289 -0.3734
 5307TIP3    H237413   0.422   5.344  16.262  0.3688 -3.0353  1.2445
 5308TIP3   OH237414   6.444   4.707   4.483  0.9362 -0.2153 -0.2623
 5308TIP3    H137415   6.466   4.788   4.438 -0.5418  0.6441  0.4534
 5308TIP3    H237416   6.383   4.662   4.424 -1.0660  0.9509  0.8139
 5309TIP3   OH237417   6.706   5.726  13.817  0.2986  0.1291 -0.2263
 5309TIP3    H137418   6.687   5.656  13.879 -0.3473  1.5303  1.2465
 5309TIP3    H237419   6.760   5.787  13.868 -1.0075  1.7653 -0.7177
 5310TIP3   OH237420   6.524   2.711  15.904  0.0587  0.2031  0.1646
 5310TIP3    H137421   6.599   2.655  15.888  0.7027  1.3414 -0.9975
 5310TIP3    H237422   6.521   2.770  15.828 -2.9967 -0.8561 -0.7004
 5311TIP3   OH237423   4.819   5.274  13.535  0.0443  0.4693  0.0276
 5311TIP3    H137424   4.891   5.267  13.598  2.8010  2.3692 -2.6414
 5311TIP3    H237425   4.795   5.367  13.535 -1.1094  0.1936 -0.5083
 5312TIP3   OH237426   3.590   3.042  14.548 -0.0697 -0.5918  0.3735
 5312TIP3    H137427   3.586   2.998  14.633  1.8618  1.2893  1.5579
 5312TIP3    H237428   3.658   2.994  14.499  0.8402  0.0025  1.0208
 5313TIP3   OH237429   3.015   0.659   3.513  0.0122 -0.1467 -0.2300
 5313TIP3    H137430   3.087   0.687   3.457  0.7304  1.0101  1.2097
 5313TIP3    H237431   3.052   0.654   3.601 -0.7302 -3.3314  0.0106
 5314TIP3   OH237432   0.801   4.691   5.856  0.6202  0.1723  0.3114
 5314TIP3    H137433   0.847   4.734   5.784  0.7547 -0.0556  0.2610
 5314TIP3    H237434   0.828   4.599   5.851  0.4510  0.1104  0.5106
 5315TIP3   OH237435   1.035   6.024  15.154 -0.1167  0.3485  0.0244
 5315TIP3    H137436   1.129   6.027  15.135 -0.3446  0.4438 -1.1395
 5315TIP3    H237437   0.993   6.033  15.069 -1.2069  1.8635  0.6795
 5316TIP3   OH237438   4.840   3.527   2.228 -0.2222  0.0591 -0.1397
 5316TIP3    H137439   4.898   3.457   2.257  0.1540  0.6090  0.4646
 5316TIP3    H237440   4.887   3.569   2.156  0.4031  0.8694  0.7261
 5317TIP3   OH237441   1.877   4.572  12.671 -0.5203 -0.5538  0.0054
 5317TIP3    H137442   1.892   4.580  12.577 -0.6441 -1.3757 -0.0970
 5317TIP3    H237443   1.842   4.657  12.697  1.9106  0.5696 -0.1938
 5318TIP3   OH237444   2.557   4.447   3.456 -0.3439 -0.1287 -0.1382
 5318TIP3    H137445   2.576   4.383   3.525  1.4588  1.2166  0.7161
 5318TIP3    H237446   2.463   4.440   3.441 -0.7503 -0.6427  2.2988
 5319TIP3   OH237447   5.049   4.773   5.347 -0.5904  0.0869  0.1431
 5319TIP3    H137448   5.078   4.846   5.402  0.0985  0.8394 -1.1574
 5319TIP3    H237449   5.128   4.722   5.331 -0.2964  1.0737 -1.8459
 5320TIP3   OH237450   5.667   0.978  14.256  0.2231 -0.7158 -0.4168
 5320TIP3    H137451   5.613   0.900  14.259 -0.0359 -0.5123  1.7170
 5320TIP3    H237452   5.750   0.951  14.296  0.5832 -0.2060 -0.8006
 5321TIP3   OH237453   5.276   4.899   3.147  0.3863 -0.3783  0.0900
 5321TIP3    H137454   5.369   4.908   3.125  0.4654 -2.1434 -0.4802
 5321TIP3    H237455   5.263   4.955   3.223  1.7607  0.3998 -0.2218
 5322TIP3   OH237456   1.793   2.326  17.192 -0.0567 -1.2105 -0.1736
 5322TIP3    H137457   1.799   2.385  17.267  1.5601 -2.5717  0.8592
 5322TIP3    H237458   1.803   2.383  17.116  2.7861 -0.1914  0.8124
 5323TIP3   OH237459   3.983   0.837  15.445 -0.2599  0.8160 -0.2443
 5323TIP3    H137460   4.032   0.849  15.364  0.5790 -1.7248 -0.1771
 5323TIP3    H237461   3.892   0.825  15.417  0.0188  0.0124 -0.8056
 5324TIP3   OH237462   3.256   5.708   5.008 -0.0970 -0.4034 -0.6576
 5324TIP3    H137463   3.195   5.764   5.056  0.6799 -0.2224  0.1373
 5324TIP3    H237464   3.341   5.726   5.047  0.4193 -0.9238 -1.5093
 5325TIP3   OH237465   5.285   5.024   4.537  0.3848 -0.1916 -0.7509
 5325TIP3    H137466   5.293   5.098   4.598 -3.1681  1.1009 -1.5530
 5325TIP3    H237467   5.205   4.979   4.566  1.0932 -2.2397 -1.8225
 5326TIP3   OH237468   1.541   0.947   3.227 -0.2659  0.5740  0.4377
 5326TIP3    H137469   1.462   0.965   3.278 -0.4364  1.3106 -0.0601
 5326TIP3    H237470   1.510   0.940   3.137  0.1460  0.1521  0.3247
 5327TIP3   OH237471   1.230   4.421  14.718  0.1197 -0.0321 -0.0714
 5327TIP3    H137472   1.192   4.362  14.653 -0.0398  1.4815 -1.3927
 5327TIP3    H237473   1.155   4.455  14.767  0.2529 -1.3209  1.0959
 5328TIP3   OH237474   2.492   4.095   5.240 -0.8649 -0.3567 -0.0488
 5328TIP3    H137475   2.554   4.121   5.309  0.3803  0.6722 -1.4760
 5328TIP3    H237476   2.541   4.108   5.159 -1.7725 -2.9662 -1.1073
 5329TIP3   OH237477   3.466   1.010  12.509 -0.0886  0.5875  0.0236
 5329TIP3    H137478   3.399   0.952  12.544  0.6853  1.3951  3.2595
 5329TIP3    H237479   3.540   0.953  12.490 -0.2472  0.1683  0.6198
 5330TIP3   OH237480   5.751   3.471   6.411  0.2325  0.4182  0.3282
 5330TIP3    H137481   5.738   3.392   6.464 -2.1968 -0.5878 -1.5781
 5330TIP3    H237482   5.690   3.535   6.449  1.0566  0.8894  0.8874
 5331TIP3   OH237483   5.000   0.628  12.500  0.3279  0.9285  0.5060
 5331TIP3    H137484   5.004   0.558  12.435 -1.3541 -0.3644  1.6858
 5331TIP3    H237485   4.923   0.679  12.475 -0.9071 -0.1500  1.9575
 5332TIP3   OH237486   2.155   4.517  11.255  0.2270  0.2898 -0.1383
 5332TIP3    H137487   2.222   4.565  11.207 -0.2600  1.1904  0.0695
 5332TIP3    H237488   2.146   4.563  11.338 -0.5744  0.1350 -0.1257
 5333TIP3   OH237489   4.827   5.681  12.460  0.1461  0.6921 -0.4280
 5333TIP3    H137490   4.789   5.767  12.478  2.2206  1.1329  2.5429
 5333TIP3    H237491   4.884   5.664  12.535  0.3563 -3.0020 -1.2516
 5334TIP3   OH237492   0.503   2.637  13.551 -0.5431  0.2763  0.5872
 5334TIP3    H137493   0.495   2.576  13.477 -1.8729  0.4206  0.5793
 5334TIP3    H237494   0.481   2.585  13.628  0.5071  0.2130  0.8621
 5335TIP3   OH237495   5.380   0.178   6.330 -0.1970  0.2198 -0.0492
 5335TIP3    H137496   5.308   0.166   6.267  0.3435  0.7302 -0.7749
 5335TIP3    H237497   5.422   0.093   6.334 -0.1006  0.2376 -0.5593
 5336TIP3   OH237498   4.551   6.037   1.193 -0.1763 -0.0143  0.1061
 5336TIP3    H137499   4.596   6.122   1.194  1.2044 -0.7104  0.6349
 5336TIP3    H237500   4.538   6.015   1.285 -0.6612 -0.3124 -0.0292
 5337TIP3   OH237501   5.002   3.392  15.126  0.1288 -0.3129  0.4473
 5337TIP3    H137502   5.084   3.424  15.090 -0.0774 -0.5822 -0.2803
 5337TIP3    H237503   4.940   3.396  15.053 -0.6746  0.4837  1.1479
 5338TIP3   OH237504   1.216   2.965  16.391 -0.4653 -0.2497  0.1881
 5338TIP3    H137505   1.156   2.928  16.326  1.7258 -2.4823 -0.7158
 5338TIP3    H237506   1.188   2.927  16.474 -0.3215 -1.3004 -0.2292
 5339TIP3   OH237507   2.681   2.696  11.859  0.0971  0.2264 -0.3807
 5339TIP3    H137508   2.618   2.675  11.789 -0.1123  1.1064 -0.4715
 5339TIP3    H237509   2.630   2.748  11.921  0.7852  1.1587 -0.5751
 5340TIP3   OH237510   3.485   6.636  11.989  0.1637  0.7683  0.6105
 5340TIP3    H137511   3.575   6.670  11.988  0.6918 -0.3565  2.8567
 5340TIP3    H237512   3.485   6.568  11.922  0.4716  1.8930 -0.5686
 5341TIP3   OH237513   2.930   2.440   5.437 -0.0133 -0.0918  0.3658
 5341TIP3    H137514   2.909   2.407   5.524  0.2485  0.0649  0.4905
 5341TIP3    H237515   2.845   2.461   5.398 -0.0913  0.4714  0.8341
 5342TIP3   OH237516   5.755   0.874   5.218 -0.0706  0.0353  0.1840
 5342TIP3    H137517   5.672   0.869   5.265 -0.4533 -0.7374 -0.5481
 5342TIP3    H237518   5.818   0.831   5.276 -0.8525 -2.4152 -0.6180
 5343TIP3   OH237519   5.569   2.116   2.731  0.4881 -0.2868  0.1092
 5343TIP3    H137520   5.660   2.109   2.702  0.5964 -1.5314  0.6503
 5343TIP3    H237521   5.561   2.050   2.801 -0.2119  1.3609  1.6821
 5344TIP3   OH237522   5.924   2.526   1.953 -0.2786 -0.2558  0.1053
 5344TIP3    H137523   5.941   2.485   1.869  1.1104 -1.7108  1.0250
 5344TIP3    H237524   5.892   2.455   2.009  2.2298 -0.2462  1.7542
 5345TIP3   OH237525   1.321   0.622   5.670 -0.0684  0.5025 -0.8233
 5345TIP3    H137526   1.369   0.539   5.673  1.1494  1.2008  0.4133
 5345TIP3    H237527   1.261   0.613   5.597 -1.3483 -2.2056  0.4387
 5346TIP3   OH237528   4.052   5.459   4.115  0.1073 -0.0114 -0.0440
 5346TIP3    H137529   4.002   5.391   4.161  0.2165  0.3879  0.6713
 5346TIP3    H237530   3.985   5.520   4.084  0.1355  0.5045  0.8826
 5347TIP3   OH237531   5.021   4.079  12.944  0.2260  0.1548  0.3288
 5347TIP3    H137532   5.105   4.038  12.924 -0.6050 -1.5767  0.2243
 5347TIP3    H237533   5.044   4.163  12.983  1.9769  0.8013 -1.8824
 5348TIP3   OH237534   4.067   5.768   4.402  0.4166  0.0545  0.2373
 5348TIP3    H137535   4.108   5.846   4.365  1.5711 -1.3089 -1.5116
 5348TIP3    H237536   3.990   5.752   4.348  0.5560 -0.4030  0.1749
 5349TIP3   OH237537   3.445   2.008  12.894  0.2890 -0.4603  0.5319
 5349TIP3    H137538   3.407   2.067  12.829  0.3478  1.2384  1.9909
 5349TIP3    H237539   3.497   2.064  12.951  0.9178 -2.0226  1.5644
 5350TIP3   OH237540   5.264   6.336  11.192  0.7119 -0.3495  0.4856
 5350TIP3    H137541   5.340   6.371  11.145 -0.6098  1.0074 -0.7496
 5350TIP3    H237542   5.262   6.385  11.274 -0.4077  1.7246 -0.7025
 5351TIP3   OH237543   2.766   1.357  16.289  0.0466  0.2326 -0.1522
 5351TIP3    H137544   2.818   1.284  16.322 -0.5227 -0.4671 -0.7529
 5351TIP3    H237545   2.692   1.363  16.349 -1.1502 -1.2374 -1.3979
 5352TIP3   OH237546   4.695   6.632   2.900  0.1693  0.4016 -0.1136
 5352TIP3    H137547   4.626   6.667   2.956  1.2258  1.5377  0.5258
 5352TIP3    H237548   4.693   6.538   2.916 -0.7870  0.4983  0.3991
 5353TIP3   OH237549   5.822   5.659   5.504  0.4318  0.1805  0.5132
 5353TIP3    H137550   5.844   5.750   5.525  1.0923  0.0690  0.3501
 5353TIP3    H237551   5.873   5.607   5.567 -0.1565 -0.0702  0.7869
 5354TIP3   OH237552   0.147   2.725  12.591 -0.0433 -0.1793  0.2644
 5354TIP3    H137553   0.212   2.773  12.539  1.2107 -1.6148  0.4279
 5354TIP3    H237554   0.199   2.665  12.644 -1.5163 -1.3475  0.4416
 5355TIP3   OH237555   4.616   0.197   4.036  0.4791 -0.5771  0.1164
 5355TIP3    H137556   4.676   0.122   4.035 -1.0122 -1.8241 -0.4801
 5355TIP3    H237557   4.562   0.184   4.114  1.0705  0.6412  0.7566
 5356TIP3   OH237558   5.343   5.581  15.874 -0.2437 -0.4410 -0.2829
 5356TIP3    H137559   5.291   5.628  15.939  0.2816  1.0196 -0.8828
 5356TIP3    H237560   5.302   5.495  15.869 -0.7945 -0.3158  1.3695
 5357TIP3   OH237561   2.755   5.070   0.582  0.0707  0.0020  0.0684
 5357TIP3    H137562   2.661   5.086   0.591 -0.3074 -2.7483  3.6250
 5357TIP3    H237563   2.765   5.032   0.495 -1.9828  0.8000 -0.5808
 5358TIP3   OH237564   5.177   0.991  11.495  0.1271  0.2893 -0.3015
 5358TIP3    H137565   5.235   1.011  11.422  1.1568 -0.2015  0.3645
 5358TIP3    H237566   5.208   0.907  11.528  0.0579  0.7721  1.0546
 5359TIP3   OH237567   6.099   0.765  12.283  0.4842  0.0515  0.2827
 5359TIP3    H137568   6.173   0.786  12.226 -0.8678 -0.2249 -1.7033
 5359TIP3    H237569   6.046   0.844  12.283  1.7798  1.0834  3.5602
 5360TIP3   OH237570   2.471   4.489  11.366  0.3911  0.3984  0.0629
 5360TIP3    H137571   2.550   4.527  11.404  1.4164  0.1287 -1.6858
 5360TIP3    H237572   2.495   4.468  11.276 -1.4980 -0.2741 -0.3412
 5361TIP3   OH237573   0.804   0.349  15.692  0.1774 -0.2875 -0.0238
 5361TIP3    H137574   0.821   0.324  15.783 -0.7951 -2.4310 -0.3555
 5361TIP3    H237575   0.818   0.443  15.689  0.9462 -0.2904  2.1708
 5362TIP3   OH237576   2.902   6.512   2.034 -0.0759 -0.6972 -0.0204
 5362TIP3    H137577   2.881   6.453   2.107 -1.4127 -0.2922 -0.0546
 5362TIP3    H237578   2.826   6.569   2.027  0.7081  0.2818 -0.7418
 5363TIP3   OH237579   6.291   2.803   4.861  0.0278 -0.0477  0.0857
 5363TIP3    H137580   6.322   2.869   4.924 -0.1947 -0.2174  0.3737
 5363TIP3    H237581   6.371   2.759   4.832  0.3236  1.1629 -1.0387
 5364TIP3   OH237582   6.784   6.549   2.839 -0.3029  0.6431 -0.2169
 5364TIP3    H137583   6.813   6.469   2.795 -2.0131  0.5946 -1.4007
 5364TIP3    H237584   6.864   6.593   2.865  0.7134 -0.7501 -0.8526
 5365TIP3   OH237585   1.579   2.849   1.938  0.7940  0.2794  0.7343
 5365TIP3    H137586   1.634   2.928   1.940  2.1527 -0.6415  0.8614
 5365TIP3    H237587   1.579   2.818   2.028  0.6722 -0.1285  0.5936
 5366TIP3   OH237588   4.423   3.345   1.124  0.2716  0.9449 -0.0230
 5366TIP3    H137589   4.447   3.257   1.154 -1.1595  0.6634  0.3323
 5366TIP3    H237590   4.465   3.353   1.038 -2.9495 -1.7863 -2.1092
 5367TIP3   OH237591   0.958   4.850  13.161  0.4646  0.2646 -0.0889
 5367TIP3    H137592   1.005   4.925  13.196  0.7346  0.6173 -1.1709
 5367TIP3    H237593   0.966   4.858  13.066  1.6975 -1.8852 -0.2369
 5368TIP3   OH237594   3.757   0.216   0.995  0.3896  0.1916 -0.0717
 5368TIP3    H137595   3.845   0.250   0.980  0.8815 -0.6458  0.8458
 5368TIP3    H237596   3.728   0.187   0.908  1.6169 -0.8998 -0.1492
 5369TIP3   OH237597   2.370   4.792  11.355  0.6065 -0.0471  0.2953
 5369TIP3    H137598   2.369   4.705  11.317 -1.9702 -0.1583  0.3770
 5369TIP3    H237599   2.462   4.810  11.375  1.1224 -3.0581  1.0204
 5370TIP3   OH237600   5.978   3.548   2.796 -0.3498  0.0230 -0.2064
 5370TIP3    H137601   5.922   3.500   2.736 -2.1185  1.1006  0.5085
 5370TIP3    H237602   6.011   3.622   2.746  0.7903 -0.8111 -0.7350
 5371TIP3   OH237603   2.223   3.117  11.002  0.1133  0.7038  0.1938
 5371TIP3    H137604   2.241   3.110  11.096  0.1881  0.9149  0.1973
 5371TIP3    H237605   2.309   3.112  10.961  0.1651  1.4419  0.1919
 5372TIP3   OH237606   2.749   4.966   0.340  0.1060 -0.3380  0.4058
 5372TIP3    H137607   2.710   4.887   0.303 -2.8444  0.9637  0.4380
 5372TIP3    H237608   2.834   4.973   0.297 -0.8042 -1.9202 -1.8697
 5373TIP3   OH237609   1.789   1.369  10.637  0.4204 -0.2405 -0.4084
 5373TIP3    H137610   1.776   1.311  10.562 -0.3743 -0.6451  0.0220
 5373TIP3    H237611   1.751   1.452  10.611  1.6895  0.1468 -1.0821
 5374TIP3   OH237612   2.566   4.803   5.467  0.3134  0.4992  0.0723
 5374TIP3    H137613   2.573   4.783   5.561 -2.1513  0.7871  0.4053
 5374TIP3    H237614   2.539   4.895   5.464  0.1411  0.4265 -0.9093
 5375TIP3   OH237615   1.625   6.443  12.079  0.1760 -0.0028  0.6654
 5375TIP3    H137616   1.596   6.359  12.117  0.8893 -0.2870  0.6051
 5375TIP3    H237617   1.720   6.445  12.096  0.2706  0.5055  0.1105
 5376TIP3   OH237618   3.612   3.347  12.496  0.1882  0.3578 -0.2317
 5376TIP3    H137619   3.642   3.260  12.523  0.3015  0.5729  0.3596
 5376TIP3    H237620   3.656   3.407  12.557 -2.1204  0.6344  1.2802
 5377TIP3   OH237621   5.947   5.300  11.977  0.4936  0.3373  0.0575
 5377TIP3    H137622   5.964   5.246  12.055 -1.3923  1.5564  1.3752
 5377TIP3    H237623   6.029   5.347  11.963  0.6801  0.5749  1.7151
 5378TIP3   OH237624   3.022   4.467  11.376  0.4322 -0.3547  0.3485
 5378TIP3    H137625   3.043   4.413  11.299  1.2958  0.7524 -0.2219
 5378TIP3    H237626   3.058   4.417  11.449 -0.0827 -1.2548  0.0112
 5379TIP3   OH237627   1.188   1.003   2.209  0.0091 -0.2109 -0.1069
 5379TIP3    H137628   1.167   0.915   2.242  0.4444  0.1970  1.3718
 5379TIP3    H237629   1.248   1.038   2.275 -0.2166  1.2272 -0.6496
 5380TIP3   OH237630   4.812   3.491  14.437 -0.1090 -0.3992  0.0598
 5380TIP3    H137631   4.842   3.567  14.388  0.0791 -0.3807  0.2027
 5380TIP3    H237632   4.801   3.422  14.372 -0.0340 -0.3228 -0.0329
 5381TIP3   OH237633   1.859   4.500  12.050 -0.3316 -0.0586 -0.9182
 5381TIP3    H137634   1.802   4.512  11.974  0.8186 -0.6474 -1.9272
 5381TIP3    H237635   1.920   4.431  12.023  0.5621  0.2262  0.2775
 5382TIP3   OH237636   3.910   1.110  13.801  0.0274  0.1214  0.8170
 5382TIP3    H137637   3.959   1.182  13.761  0.1976  1.1368  2.7105
 5382TIP3    H237638   3.843   1.088  13.737  0.8568  1.0075 -0.4067
 5383TIP3   OH237639   3.508   1.011  13.106 -0.0306 -0.3312 -0.0201
 5383TIP3    H137640   3.498   1.106  13.107  1.8187 -0.0923  1.4184
 5383TIP3    H237641   3.573   0.995  13.037  0.4191 -0.4446  0.4265
 5384TIP3   OH237642   2.470   3.739   0.838 -0.3756  0.5292  0.0721
 5384TIP3    H137643   2.522   3.699   0.908 -0.5049  0.4023  0.0958
 5384TIP3    H237644   2.471   3.674   0.768 -0.5192  0.5180  0.0809
 5385TIP3   OH237645   3.596   5.340   4.249 -0.3713 -0.0269 -0.1425
 5385TIP3    H137646   3.669   5.319   4.190 -0.6781 -0.3720 -0.4036
 5385TIP3    H237647   3.531   5.272   4.232 -1.6088  1.4010 -1.3839
 5386TIP3   OH237648   0.114   4.392   4.670  0.5822 -0.2448  0.1602
 5386TIP3    H137649   0.031   4.379   4.623  0.5061 -2.7304  0.8318
 5386TIP3    H237650   0.122   4.487   4.678 -1.4007  0.1272 -1.3123
 5387TIP3   OH237651   4.990   6.396   4.505  0.1539  0.0781  0.5212
 5387TIP3    H137652   5.028   6.445   4.578  1.0919  1.2077 -0.6759
 5387TIP3    H237653   5.047   6.319   4.496 -0.0203 -0.1144  1.0289
 5388TIP3   OH237654   2.021   4.211   4.661 -0.3589  0.5449 -0.2317
 5388TIP3    H137655   2.107   4.247   4.637 -0.9064  1.2757 -1.1557
 5388TIP3    H237656   2.007   4.139   4.599  0.3267 -0.7188  1.0263
 5389TIP3   OH237657   5.559   0.704   1.164 -0.3688  0.3358  0.1838
 5389TIP3    H137658   5.563   0.798   1.181 -1.5332  0.3486  0.4711
 5389TIP3    H237659   5.650   0.674   1.169 -0.2545  0.9608  2.9245
 5390TIP3   OH237660   3.210   3.490  11.912  0.0667 -0.1504  0.1707
 5390TIP3    H137661   3.227   3.580  11.942 -0.5146 -0.0456  0.1894
 5390TIP3    H237662   3.121   3.472  11.940  0.0251 -0.5733 -0.2323
 5391TIP3   OH237663   1.589   6.419   3.886  0.1837 -0.7025 -0.6425
 5391TIP3    H137664   1.662   6.450   3.940  0.3234 -1.1102 -0.5948
 5391TIP3    H237665   1.515   6.476   3.910  0.2975 -0.7475 -0.1743
 5392TIP3   OH237666   4.885   2.284   4.408  0.2289 -0.5015  0.2764
 5392TIP3    H137667   4.913   2.373   4.386 -0.9583  0.3284  1.9671
 5392TIP3    H237668   4.865   2.286   4.501  3.9484 -3.5881  1.4106
 5393TIP3   OH237669   3.910   4.066  14.002  0.6785 -0.0190 -0.2704
 5393TIP3    H137670   3.926   4.095  14.092  1.2554 -1.5102  0.1408
 5393TIP3    H237671   3.821   4.094  13.984  1.3485  2.4437 -0.1307
 5394TIP3   OH237672   4.095   3.803   3.963  0.3041  0.5174 -0.2341
 5394TIP3    H137673   4.081   3.897   3.949 -1.4514  0.3134 -0.0048
 5394TIP3    H237674   4.008   3.764   3.957  0.8978 -1.0088  0.4614
 5395TIP3   OH237675   0.097   5.206   2.562  0.2869 -0.1105 -0.5487
 5395TIP3    H137676   0.146   5.150   2.623  0.6699 -0.7348 -1.4034
 5395TIP3    H237677   0.028   5.245   2.615  1.2337  0.1805  0.5208
 5396TIP3   OH237678   1.863   5.142   4.099  0.0345 -0.1367 -0.8994
 5396TIP3    H137679   1.939   5.143   4.157 -0.1460  0.0221 -0.6601
 5396TIP3    H237680   1.788   5.153   4.158 -0.2906 -1.7642 -0.9520
 5397TIP3   OH237681   0.206   6.234   0.808  0.1079 -0.4744 -0.4038
 5397TIP3    H137682   0.149   6.177   0.756 -0.2837  1.0036 -1.6634
 5397TIP3    H237683   0.224   6.183   0.887  0.2542 -2.5709 -1.7102
 5398TIP3   OH237684   4.812   6.290  13.198 -0.2263  0.3708 -0.3001
 5398TIP3    H137685   4.900   6.329  13.200  0.2169 -0.5623  2.2440
 5398TIP3    H237686   4.755   6.362  13.174  0.7967  2.2044  2.2924
 5399TIP3   OH237687   5.853   1.215   1.013  0.3306 -0.7720 -0.0206
 5399TIP3    H137688   5.822   1.273   1.082  0.1711  0.1339 -0.8247
 5399TIP3    H237689   5.923   1.265   0.970  1.6227 -2.0013  0.5440
 5400TIP3   OH237690   2.582   6.639  12.507 -0.1436  0.3456  0.5928
 5400TIP3    H137691   2.501   6.663  12.463 -0.4251 -1.5138  0.0132
 5400TIP3    H237692   2.616   6.565  12.457  0.2748 -0.9218  2.6270
 5401TIP3   OH237693   6.250   0.841  14.422  0.0336  0.5759  0.6436
 5401TIP3    H137694   6.191   0.873  14.489 -0.2688  0.6712  0.3368
 5401TIP3    H237695   6.329   0.814  14.469 -0.7155 -0.7319  1.1989
 5402TIP3   OH237696   1.623   4.617  16.180  0.3477 -0.7016  0.4451
 5402TIP3    H137697   1.653   4.608  16.090  1.3809 -1.1869  0.8198
 5402TIP3    H237698   1.558   4.547  16.192 -0.2329 -0.2602 -0.0875
 5403TIP3   OH237699   0.552   4.659   3.390  0.3241  0.8208  0.0988
 5403TIP3    H137700   0.580   4.661   3.298  0.6303 -1.0324  0.1190
 5403TIP3    H237701   0.547   4.566   3.412 -2.2898  1.1182  1.2125
 5404TIP3   OH237702   0.593   6.263  15.719 -0.7062 -0.8331 -0.1791
 5404TIP3    H137703   0.623   6.173  15.727 -0.1245 -0.6986 -0.7970
 5404TIP3    H237704   0.561   6.285  15.807 -1.5928 -1.8866 -0.2171
 5405TIP3   OH237705   3.124   4.445   5.987  0.0532  0.1728  0.1197
 5405TIP3    H137706   3.087   4.480   6.068  0.3556  1.1690 -0.1564
 5405TIP3    H237707   3.129   4.350   6.001  0.3214  0.3567  1.3634
 5406TIP3   OH237708   5.455   0.414  13.054 -0.0967  0.4233  0.5586
 5406TIP3    H137709   5.472   0.334  13.005  0.9632 -0.4260  2.2111
 5406TIP3    H237710   5.397   0.387  13.125  0.6184  0.9911  1.3903
 5407TIP3   OH237711   3.586   1.101  16.052  0.4407 -0.1992  0.0388
 5407TIP3    H137712   3.673   1.083  16.016  0.3024 -0.5433 -0.1247
 5407TIP3    H237713   3.601   1.121  16.144  0.7281  0.0510 -0.0596
 5408TIP3   OH237714   2.313   0.177   3.405  0.4636 -1.2104  0.0595
 5408TIP3    H137715   2.264   0.173   3.487 -0.9411 -1.0098 -0.7375
 5408TIP3    H237716   2.402   0.149   3.429  0.2614 -0.5503  1.7572
 5409TIP3   OH237717   2.300   0.400   1.358  0.0718  0.2093 -0.4878
 5409TIP3    H137718   2.368   0.338   1.331  0.2279 -0.0343  0.4529
 5409TIP3    H237719   2.219   0.360   1.328  0.1773 -0.4169  0.0452
 5410TIP3   OH237720   4.974   2.257  16.357 -0.0612  0.9911 -0.5753
 5410TIP3    H137721   5.002   2.245  16.448  2.0768 -0.2461 -1.3054
 5410TIP3    H237722   4.907   2.325  16.361 -1.5374 -0.4784  2.1400
 5411TIP3   OH237723   3.787   2.847  11.512 -0.6824 -0.0526  0.3283
 5411TIP3    H137724   3.759   2.932  11.477 -1.0132  0.3109  1.4364
 5411TIP3    H237725   3.713   2.817  11.565 -0.3130 -0.7394  0.4697
 5412TIP3   OH237726   2.682   6.418   3.972 -0.3289  0.8122  0.3568
 5412TIP3    H137727   2.621   6.396   3.902  1.5174 -1.5162 -0.6624
 5412TIP3    H237728   2.650   6.369   4.048 -0.5602  0.7963  0.2484
 5413TIP3   OH237729   1.738   0.527  15.631  0.1635 -0.2912 -1.1470
 5413TIP3    H137730   1.664   0.472  15.654 -0.7352  0.2135 -2.7457
 5413TIP3    H237731   1.717   0.613  15.668  1.6379 -0.9391  1.4891
 5414TIP3   OH237732   3.954   5.640  13.508  0.1893  0.2428  0.2992
 5414TIP3    H137733   3.864   5.650  13.478  0.3238 -0.0050 -0.1988
 5414TIP3    H237734   3.958   5.552  13.543  0.3179  0.1358  0.0218
 5415TIP3   OH237735   0.184   6.816   6.263 -0.0034 -0.3188 -0.1201
 5415TIP3    H137736   0.093   6.787   6.256  0.3464 -1.1927 -1.2901
 5415TIP3    H237737   0.231   6.740   6.299  0.7925 -1.0321 -2.5216
 5416TIP3   OH237738   2.255   2.420   6.453  0.2191  0.1352  0.7872
 5416TIP3    H137739   2.310   2.409   6.530  2.1802 -1.1334 -0.6973
 5416TIP3    H237740   2.239   2.331   6.421 -2.3637  0.4794  0.8566
 5417TIP3   OH237741   4.423   4.522  17.218 -0.0106  0.3059  0.5358
 5417TIP3    H137742   4.508   4.497  17.183 -0.3392 -0.5362  0.3003
 5417TIP3    H237743   4.389   4.586  17.155  0.3767  0.5235  0.5464
 5418TIP3   OH237744   5.758   0.311  16.275  0.0431  0.1462 -0.1356
 5418TIP3    H137745   5.695   0.332  16.206  0.0015  0.9033  0.1237
 5418TIP3    H237746   5.834   0.275  16.229 -0.9296 -1.6692 -0.3800
 5419TIP3   OH237747   5.685   1.171  12.350  0.2694 -0.0754 -0.0262
 5419TIP3    H137748   5.695   1.266  12.350 -0.1721 -0.0220  1.1812
 5419TIP3    H237749   5.694   1.145  12.441  2.3424 -1.4335 -0.5309
 5420TIP3   OH237750   2.691   1.324   5.019  0.7132 -0.1007  0.2478
 5420TIP3    H137751   2.627   1.387   5.052  0.1033  0.6089 -2.1067
 5420TIP3    H237752   2.684   1.329   4.924  4.1633 -0.1236 -0.1426
 5421TIP3   OH237753   1.647   2.098  15.009 -0.1569 -0.1191  0.1572
 5421TIP3    H137754   1.658   2.165  14.941  0.0025  0.3647  0.6563
 5421TIP3    H237755   1.624   2.018  14.960  0.7177  0.0301 -0.5300
 5422TIP3   OH237756   5.590   6.464  10.173  0.5343  0.0260 -0.7697
 5422TIP3    H137757   5.612   6.556  10.189 -1.2366  0.4997 -0.8676
 5422TIP3    H237758   5.521   6.444  10.235  0.2523 -0.9694 -1.3762
 5423TIP3   OH237759   1.989   6.537  12.793 -0.1140  0.0001  0.6589
 5423TIP3    H137760   1.908   6.503  12.756 -0.3323  0.8339  0.3518
 5423TIP3    H237761   1.988   6.508  12.884 -2.0770  2.2027  1.4398
 5424TIP3   OH237762   4.058   3.474   0.162  0.4452 -0.2949  0.0788
 5424TIP3    H137763   4.018   3.509   0.241  0.0254  1.2008 -0.7507
 5424TIP3    H237764   4.080   3.383   0.184 -0.5870 -0.2251  1.5573
 5425TIP3   OH237765   0.541   5.046  10.929  0.0498 -0.3226  0.2055
 5425TIP3    H137766   0.591   4.986  10.874  1.2556 -0.2612  1.1873
 5425TIP3    H237767   0.493   5.102  10.867  2.0923  0.3670 -0.8384
 5426TIP3   OH237768   4.024   1.595  11.433 -0.2936 -0.0357 -0.3435
 5426TIP3    H137769   3.932   1.616  11.416 -0.5851 -0.3256  0.7861
 5426TIP3    H237770   4.026   1.499  11.436 -0.2813 -0.0120  1.1986
 5427TIP3   OH237771   5.583   5.656   1.891 -0.3623 -0.0143  0.1033
 5427TIP3    H137772   5.537   5.739   1.900 -2.0205 -0.7748 -0.8951
 5427TIP3    H237773   5.649   5.656   1.961 -1.3716  1.4446  1.0850
 5428TIP3   OH237774   0.240   3.098   5.317 -0.5046  0.2344 -0.0900
 5428TIP3    H137775   0.221   3.164   5.250  0.8267 -1.6954 -2.5328
 5428TIP3    H237776   0.154   3.078   5.356 -1.1360  2.2613 -0.3138
 5429TIP3   OH237777   3.777   1.938   6.239 -0.3633  0.0046  0.0110
 5429TIP3    H137778   3.779   2.021   6.191 -0.1890  0.8685  1.4670
 5429TIP3    H237779   3.802   1.873   6.174  0.8375  1.2589 -0.8490
 5430TIP3   OH237780   4.711   3.136  12.601  0.1259 -0.1287 -0.0286
 5430TIP3    H137781   4.686   3.079  12.528  0.0026 -1.2151  0.8346
 5430TIP3    H237782   4.687   3.087  12.679  2.0406  0.1456  0.8020
 5431TIP3   OH237783   3.397   3.168  10.711  0.3513  0.3146  0.1312
 5431TIP3    H137784   3.418   3.251  10.668 -0.4158 -0.1618 -1.2199
 5431TIP3    H237785   3.391   3.191  10.804  1.7664  1.4355 -0.0151
 5432TIP3   OH237786   3.583   4.034   4.133 -0.4030  0.1153  0.1112
 5432TIP3    H137787   3.512   3.982   4.170 -0.0146  0.2173  1.0307
 5432TIP3    H237788   3.594   4.000   4.045 -1.6673  0.1774 -0.0884
 5433TIP3   OH237789   0.698   3.420  11.023  0.5294  0.3329  0.3244
 5433TIP3    H137790   0.669   3.336  11.060  2.3751 -1.3275 -1.6960
 5433TIP3    H237791   0.791   3.425  11.044  0.7946  1.0791 -0.9107
 5434TIP3   OH237792   3.098   4.538  14.786  0.2116 -0.1991 -0.3583
 5434TIP3    H137793   3.102   4.634  14.790 -0.1477 -0.1869  2.9460
 5434TIP3    H237794   3.056   4.513  14.869 -0.0834 -3.2150 -1.3174
 5435TIP3   OH237795   3.450   2.780   2.484 -0.3384  0.3616  0.2345
 5435TIP3    H137796   3.452   2.815   2.574  1.4562  1.9109 -0.3520
 5435TIP3    H237797   3.391   2.839   2.437  2.8667  3.0308 -0.8113
 5436TIP3   OH237798   2.931   6.339  15.546 -0.3083 -0.2126  0.4088
 5436TIP3    H137799   2.973   6.392  15.614  0.3437  0.4633 -0.5039
 5436TIP3    H237800   2.872   6.281  15.595 -0.7408  1.0630  1.4599
 5437TIP3   OH237801   1.317   0.020  15.029 -0.5006 -0.3237 -0.2209
 5437TIP3    H137802   1.366   0.001  14.949 -0.0499 -0.1919  0.0181
 5437TIP3    H237803   1.287  -0.066  15.060  2.5627 -0.9080  1.5176
 5438TIP3   OH237804   5.578   6.749   5.974 -0.4962 -0.0970 -0.5335
 5438TIP3    H137805   5.638   6.779   6.043 -0.0631  1.3909 -1.5081
 5438TIP3    H237806   5.500   6.803   5.985 -0.2825  0.4165 -1.4125
 5439TIP3   OH237807   0.655   4.047   1.914 -0.5574  0.7952  0.4179
 5439TIP3    H137808   0.599   4.078   1.985  1.2776  0.4700  2.0883
 5439TIP3    H237809   0.739   4.090   1.929  0.7026 -1.3934  0.1132
 5440TIP3   OH237810   6.488   3.938   0.778  0.1981  0.9125  0.2601
 5440TIP3    H137811   6.550   3.870   0.754 -2.6287 -2.3894  1.4225
 5440TIP3    H237812   6.462   3.978   0.695  1.0238 -0.3110 -0.6225
 5441TIP3   OH237813   2.661   4.603  14.815 -0.1917  0.0850  0.0339
 5441TIP3    H137814   2.699   4.527  14.771 -0.8821 -0.4635  0.3616
 5441TIP3    H237815   2.724   4.673  14.801 -0.7318  0.1564 -2.5257
 5442TIP3   OH237816   2.841   3.696  12.368 -0.0410  0.7296  0.3357
 5442TIP3    H137817   2.849   3.609  12.329  0.1852  0.1042  1.6879
 5442TIP3    H237818   2.852   3.757  12.295 -0.3703 -0.3731 -0.6647
 5443TIP3   OH237819   2.475   5.390   2.866 -0.0056  0.0039  0.0611
 5443TIP3    H137820   2.559   5.347   2.851  0.7923  1.4041  0.3742
 5443TIP3    H237821   2.463   5.388   2.961 -0.0282  0.3388  0.0676
 5444TIP3   OH237822   1.952   0.933   1.063 -0.5194  0.6762  0.5013
 5444TIP3    H137823   2.037   0.915   1.022 -0.9098  0.0310 -0.0426
 5444TIP3    H237824   1.900   0.855   1.045 -1.3468  1.2130  0.5350
 5445TIP3   OH237825   0.759   4.960   2.046 -0.0107  0.0489  0.2421
 5445TIP3    H137826   0.780   5.002   2.129 -0.6890 -0.3251  0.6217
 5445TIP3    H237827   0.666   4.981   2.032  0.5981  1.8935 -1.5019
 5446TIP3   OH237828   1.823   3.825   5.627  0.7918 -0.1608  0.5948
 5446TIP3    H137829   1.806   3.870   5.709  1.3795  0.8946  0.1547
 5446TIP3    H237830   1.741   3.780   5.606 -0.3835  2.0440  0.2066
 5447TIP3   OH237831   1.700   4.564   3.765  0.1709 -0.4145  0.2293
 5447TIP3    H137832   1.607   4.544   3.756  0.0436 -0.0919  0.7588
 5447TIP3    H237833   1.740   4.481   3.791 -0.4104  0.0291  2.8167
 5448TIP3   OH237834   5.755   3.512  12.902 -0.0033 -0.2391  0.0509
 5448TIP3    H137835   5.671   3.488  12.865 -0.7697 -0.9727  2.1219
 5448TIP3    H237836   5.817   3.505  12.829 -1.4884 -1.0633 -1.1692
 5449TIP3   OH237837   1.693   0.841   1.495  0.6520 -0.4712  0.3171
 5449TIP3    H137838   1.619   0.877   1.447  2.6179  0.9468 -1.8727
 5449TIP3    H237839   1.693   0.748   1.474 -0.1728 -0.3738 -0.1274
 5450TIP3   OH237840   6.391   0.885   2.116  0.2165 -0.2879  0.0157
 5450TIP3    H137841   6.397   0.822   2.188 -2.5501  0.4319  0.9953
 5450TIP3    H237842   6.464   0.945   2.130  1.7812 -2.1294  0.1557
 5451TIP3   OH237843   6.523   0.751   5.923 -0.4118 -0.0428 -0.3187
 5451TIP3    H137844   6.463   0.685   5.888 -2.8336  1.7905  0.0866
 5451TIP3    H237845   6.585   0.702   5.976 -0.5458 -2.2148 -2.0689
 5452TIP3   OH237846   3.239   4.114   3.633  0.2546 -0.3422  0.3878
 5452TIP3    H137847   3.283   4.108   3.718  0.4237 -1.0250  0.2548
 5452TIP3    H237848   3.226   4.208   3.620 -0.8049 -0.2745  1.6896
 5453TIP3   OH237849   1.508   5.364  14.895  0.1459  0.3944  0.1101
 5453TIP3    H137850   1.518   5.419  14.972  0.6974 -0.3653  0.5986
 5453TIP3    H237851   1.582   5.387  14.838 -0.6825  1.4962 -0.5536
 5454TIP3   OH237852   5.732   1.024   3.128  0.0884  0.1212  0.5205
 5454TIP3    H137853   5.654   1.049   3.079  1.3011  0.4900 -1.3367
 5454TIP3    H237854   5.738   1.089   3.198 -1.8788 -0.6225  1.4569
 5455TIP3   OH237855   5.296   1.870  11.704  0.2643  0.1125 -0.7291
 5455TIP3    H137856   5.340   1.786  11.702 -1.1146 -0.7279  1.3216
 5455TIP3    H237857   5.308   1.902  11.793 -2.1893  0.3803 -0.4312
 5456TIP3   OH237858   0.463   1.082  15.128 -0.0637 -0.7394  0.2708
 5456TIP3    H137859   0.536   1.025  15.103 -0.2688 -1.5072  1.3293
 5456TIP3    H237860   0.500   1.139  15.195 -0.0285 -0.0460 -0.3318
 5457TIP3   OH237861   1.422   5.550  15.092  0.2243 -0.3900 -0.1979
 5457TIP3    H137862   1.409   5.465  15.133 -1.1275  0.9897  2.4715
 5457TIP3    H237863   1.511   5.575  15.115 -0.3766  0.1772  1.7307
 5458TIP3   OH237864   0.921   0.284   1.634  0.4502 -0.0009 -0.3068
 5458TIP3    H137865   1.005   0.311   1.596  1.5217 -2.3733  0.1502
 5458TIP3    H237866   0.944   0.212   1.693 -1.9452 -0.9393 -0.3988
 5459TIP3   OH237867   4.071   0.508   0.444 -0.2180 -0.1047  0.0216
 5459TIP3    H137868   4.147   0.562   0.420  0.0133 -0.6700 -0.5544
 5459TIP3    H237869   3.996   0.563   0.423  0.0202  0.5350  0.7757
 5460TIP3   OH237870   1.242   4.946   2.544 -0.0385 -0.1930  0.4918
 5460TIP3    H137871   1.329   4.909   2.529  0.0515  0.2599 -0.1515
 5460TIP3    H237872   1.252   5.039   2.522 -1.0100 -0.3947 -0.8612
 5461TIP3   OH237873   5.144   3.178  14.932  0.3876 -0.0624  0.2496
 5461TIP3    H137874   5.130   3.230  15.011  2.1321 -3.0415  2.7640
 5461TIP3    H237875   5.072   3.115  14.931  0.3985 -0.0702 -0.5088
 5462TIP3   OH237876   5.882   3.021   3.505  0.6348  0.2652  0.6754
 5462TIP3    H137877   5.904   2.931   3.478  0.5567  0.3796  0.2258
 5462TIP3    H237878   5.939   3.038   3.580 -1.0645 -1.0664  2.3894
 5463TIP3   OH237879   1.592   5.774   0.865 -0.4869  0.3269  0.5030
 5463TIP3    H137880   1.636   5.691   0.845  1.5536  1.5225 -0.2744
 5463TIP3    H237881   1.535   5.753   0.939  1.0629 -1.4664  1.2933
 5464TIP3   OH237882   2.276   4.407  14.503 -0.2233  0.4982  0.1413
 5464TIP3    H137883   2.364   4.414  14.540  0.1348  0.1049 -0.5992
 5464TIP3    H237884   2.228   4.480  14.541  0.5401  0.9622  0.2466
 5465TIP3   OH237885   5.940   4.216  14.203 -0.4685 -0.1330 -0.1737
 5465TIP3    H137886   5.923   4.289  14.144  0.2138 -0.0778 -0.3084
 5465TIP3    H237887   5.938   4.255  14.290 -3.5439 -0.5655  0.0545
 5466TIP3   OH237888   4.235   0.977   0.972  0.5903  0.0120 -0.7522
 5466TIP3    H137889   4.164   0.956   1.033 -0.5995 -0.8225 -2.3645
 5466TIP3    H237890   4.282   0.895   0.960  1.8237  0.5377  0.2278
 5467TIP3   OH237891   3.770   6.007   2.506 -0.7457  0.1159  0.1043
 5467TIP3    H137892   3.688   6.056   2.514 -0.9030  0.3104 -2.1905
 5467TIP3    H237893   3.770   5.975   2.416  1.3056 -0.6343  0.3280
 5468TIP3   OH237894   3.044   5.939  15.842  0.0982 -0.2561 -0.6052
 5468TIP3    H137895   3.126   5.977  15.810  1.2574 -1.6581  0.5972
 5468TIP3    H237896   3.040   5.852  15.803  0.3198 -1.0445  1.0293
 5469TIP3   OH237897   2.329   2.585  10.844  0.3168  0.6889 -0.0462
 5469TIP3    H137898   2.246   2.607  10.885  1.0030  1.3479  1.0540
 5469TIP3    H237899   2.322   2.619  10.754 -0.3222  1.3833  0.2639
 5470TIP3   OH237900   5.352   2.739   3.211  0.2677 -0.3613 -0.7012
 5470TIP3    H137901   5.328   2.831   3.206  0.6914 -0.1848  0.1983
 5470TIP3    H237902   5.269   2.692   3.208 -0.1233  0.1611  0.9007
 5471TIP3   OH237903   0.661   4.494  14.893  0.2117 -0.0625 -0.5092
 5471TIP3    H137904   0.692   4.426  14.834  3.0219  0.9469 -0.3541
 5471TIP3    H237905   0.660   4.574  14.840  2.2389  0.7478  0.5755
 5472TIP3   OH237906   3.572   6.434   2.414  0.2508 -0.0488 -0.2566
 5472TIP3    H137907   3.619   6.505   2.457  3.6625 -1.9373 -0.4970
 5472TIP3    H237908   3.607   6.433   2.325 -3.0293  0.6467 -1.7048
 5473TIP3   OH237909   2.015   6.644   5.586 -0.0623  0.2308  0.6840
 5473TIP3    H137910   1.930   6.686   5.571  1.0111  2.9764  1.7314
 5473TIP3    H237911   2.079   6.706   5.552  1.6083 -2.9510 -2.7529
 5474TIP3   OH237912   6.619   0.308   3.385  0.3014  0.3081 -0.4203
 5474TIP3    H137913   6.695   0.263   3.348 -0.2915 -0.8192 -0.3278
 5474TIP3    H237914   6.562   0.237   3.416  0.2530  1.1665  1.6347
 5475TIP3   OH237915   6.432   3.134  13.616  0.3780  0.1747  0.2095
 5475TIP3    H137916   6.528   3.136  13.613  0.4216  0.2561  1.3469
 5475TIP3    H237917   6.409   3.049  13.577  0.9343 -0.0780  0.4178
 5476TIP3   OH237918   1.254   3.666  15.043  0.1862  0.0190  0.1719
 5476TIP3    H137919   1.206   3.584  15.053  0.5027 -0.4101 -1.3961
 5476TIP3    H237920   1.344   3.638  15.024  0.9740  0.7936  2.4262
 5477TIP3   OH237921   4.256   1.643   5.222  0.8958  0.3875 -0.2154
 5477TIP3    H137922   4.332   1.687   5.262  0.5767 -0.0780  0.9567
 5477TIP3    H237923   4.294   1.591   5.151  1.3453  2.1095 -1.2991
 5478TIP3   OH237924   4.441   4.628  16.097  0.8561  0.7431 -0.4282
 5478TIP3    H137925   4.393   4.710  16.087 -1.8498 -0.7580 -0.7859
 5478TIP3    H237926   4.395   4.581  16.167  2.5512 -0.3667  0.0153
 5479TIP3   OH237927   4.115   2.469   1.724  0.4303 -0.2536  0.5851
 5479TIP3    H137928   4.101   2.396   1.785  2.9577  0.0184  1.6126
 5479TIP3    H237929   4.127   2.545   1.780 -1.7767  0.9469 -0.4707
 5480TIP3   OH237930   6.510   4.152   5.749  0.5468 -0.0659 -0.2890
 5480TIP3    H137931   6.502   4.059   5.772 -0.9429 -0.0476 -0.6730
 5480TIP3    H237932   6.592   4.179   5.791  1.6658 -1.8429 -1.2174
 5481TIP3   OH237933   0.105   1.680  11.176 -0.2944  0.0079  0.5409
 5481TIP3    H137934   0.055   1.609  11.136 -0.0501  0.2117 -0.1533
 5481TIP3    H237935   0.136   1.644  11.259  2.3097 -1.8082 -1.0540
 5482TIP3   OH237936   0.621   3.025  13.136 -0.0712  0.2054 -0.2650
 5482TIP3    H137937   0.646   2.941  13.174  1.0977 -0.0306 -1.4936
 5482TIP3    H237938   0.527   3.031  13.152 -0.2009 -1.3923 -0.2724
 5483TIP3   OH237939   6.445   1.310   4.076  0.0007  0.0336 -0.4515
 5483TIP3    H137940   6.505   1.246   4.039  1.8835  1.1264  0.5497
 5483TIP3    H237941   6.449   1.296   4.170  0.1892  1.3615 -0.2327
 5484TIP3   OH237942   2.118   2.895   0.866 -0.3791 -0.3999  0.7610
 5484TIP3    H137943   2.112   2.978   0.912 -0.6069  0.1117 -0.1596
 5484TIP3    H237944   2.158   2.917   0.782 -1.0821 -1.0864  0.2234
 5485TIP3   OH237945   2.454   6.238  12.624 -0.8637  0.3945 -0.4380
 5485TIP3    H137946   2.546   6.218  12.608 -0.0498  3.0384  0.3482
 5485TIP3    H237947   2.450   6.260  12.717 -1.9418  1.8425 -0.7860
 5486TIP3   OH237948   0.175   4.249   5.140 -0.2405  0.6721 -0.5199
 5486TIP3    H137949   0.206   4.170   5.097 -0.8248  0.2390 -0.1614
 5486TIP3    H237950   0.202   4.239   5.231 -1.4776  0.2484 -0.1833
 5487TIP3   OH237951   5.894   3.588   1.091  0.0085  0.0326  0.4387
 5487TIP3    H137952   5.953   3.592   1.016 -0.9555 -1.3541 -0.4270
 5487TIP3    H237953   5.815   3.544   1.058 -0.8602  0.3520  1.9884
 5488TIP3   OH237954   3.768   3.103   1.321  0.1236  0.3063 -0.0004
 5488TIP3    H137955   3.781   3.181   1.267 -2.5512  3.7307  3.6697
 5488TIP3    H237956   3.852   3.089   1.365  0.5297  1.4605 -0.3881
 5489TIP3   OH237957   3.806   5.731   4.282  0.3822  0.5643 -0.2918
 5489TIP3    H137958   3.788   5.737   4.188  0.1061 -0.3891 -0.3112
 5489TIP3    H237959   3.764   5.807   4.320 -1.4092 -0.1949 -0.6696
 5490TIP3   OH237960   3.773   4.243  10.855  0.0149 -0.4106 -0.3642
 5490TIP3    H137961   3.764   4.174  10.920  0.0695 -0.4778 -0.4282
 5490TIP3    H237962   3.841   4.301  10.890 -1.0645  0.4231  0.4061
 5491TIP3   OH237963   4.013   2.663  15.445  0.5111  0.6568 -0.4161
 5491TIP3    H137964   4.106   2.641  15.450  0.6825  1.5500  0.7795
 5491TIP3    H237965   3.983   2.660  15.536 -0.1915  2.1653 -0.5787
 5492TIP3   OH237966   4.528   3.436   1.694 -0.2288 -0.0127 -0.5538
 5492TIP3    H137967   4.552   3.518   1.736 -0.4743 -0.3131  0.1903
 5492TIP3    H237968   4.536   3.454   1.600 -1.8987  1.3637 -0.4834
 5493TIP3   OH237969   4.423   2.260  12.201  0.1186 -0.0348  0.0832
 5493TIP3    H137970   4.338   2.228  12.231  0.3304  1.3486  2.3064
 5493TIP3    H237971   4.486   2.196  12.233  0.0575 -0.3141 -0.3440
 5494TIP3   OH237972   6.404   4.998  13.032  0.2629 -0.0928  0.3320
 5494TIP3    H137973   6.361   5.021  12.950  1.4470 -0.2381 -0.3331
 5494TIP3    H237974   6.484   4.952  13.007  1.0183  0.4959  1.5390
 5495TIP3   OH237975   0.118   5.547   0.061  0.3056  0.2780  0.0197
 5495TIP3    H137976   0.034   5.502   0.067 -0.8294  2.1789 -0.7066
 5495TIP3    H237977   0.109   5.624   0.118  1.0040  1.2826 -1.1574
 5496TIP3   OH237978   2.645   6.145  16.957 -0.5042 -0.4933 -0.0610
 5496TIP3    H137979   2.691   6.224  16.988  3.3440 -2.3461 -0.5123
 5496TIP3    H237980   2.561   6.147  17.003  0.6842  2.2930  2.3035
 5497TIP3   OH237981   5.886   6.102  16.198  0.7967  0.0493 -0.6680
 5497TIP3    H137982   5.832   6.169  16.157  1.3541  0.5615 -0.5814
 5497TIP3    H237983   5.840   6.020  16.182 -0.6254  0.5907  0.4318
 5498TIP3   OH237984   3.648   3.194  16.124  0.1746  1.0235 -0.0755
 5498TIP3    H137985   3.626   3.278  16.084  1.7754  1.6664  0.3238
 5498TIP3    H237986   3.741   3.201  16.145 -0.0144 -0.2685  1.3884
 5499TIP3   OH237987   5.469   6.072  13.135  0.6946 -0.2396  0.2950
 5499TIP3    H137988   5.562   6.082  13.115  0.5372  0.9406  0.0963
 5499TIP3    H237989   5.430   6.041  13.053  0.7457  0.3071  0.0622
 5500TIP3   OH237990   3.835   0.080   2.650 -0.1940 -0.8286  0.4288
 5500TIP3    H137991   3.859   0.121   2.733  1.5909  2.1102 -1.3710
 5500TIP3    H237992   3.916   0.038   2.620 -0.0162  0.4759 -1.0259
 5501TIP3   OH237993   6.118   6.543   5.393  0.3031  0.1919 -0.0351
 5501TIP3    H137994   6.075   6.524   5.310 -0.3782 -1.0440  0.5767
 5501TIP3    H237995   6.047   6.561   5.453  0.6839 -0.6261  0.6879
 5502TIP3   OH237996   0.360   5.630  17.153 -0.0938 -0.1513 -0.7433
 5502TIP3    H137997   0.363   5.706  17.094  1.6194 -0.5623 -1.2372
 5502TIP3    H237998   0.269   5.628  17.185 -0.2560  1.9310 -0.9298
 5503TIP3   OH237999   3.503   3.651   1.261  0.3751 -0.3543 -0.2323
 5503TIP3    H138000   3.594   3.681   1.261  0.6177 -1.0379  1.1499
 5503TIP3    H238001   3.480   3.645   1.169  1.4937  0.5182 -0.5960
 5504TIP3   OH238002   6.046   0.892   2.882  0.1743  0.0386 -0.3088
 5504TIP3    H138003   6.019   0.981   2.907  0.8103  0.0014  0.5632
 5504TIP3    H238004   6.065   0.849   2.965 -1.4939 -1.3878 -0.6229
 5505TIP3   OH238005   1.856   1.184  14.601 -0.9054  0.3954  0.1502
 5505TIP3    H138006   1.895   1.267  14.575 -1.2059  0.2612 -0.7474
 5505TIP3    H238007   1.876   1.124  14.528  2.0009 -1.2184  2.0301
 5506TIP3   OH238008   3.191   1.988   4.223  0.1272  0.0058  0.1086
 5506TIP3    H138009   3.180   1.929   4.298  0.1225 -0.4865 -0.2680
 5506TIP3    H238010   3.197   2.075   4.261  1.1423 -0.3300  0.7541
 5507TIP3   OH238011   2.246   0.278   2.229 -0.3379 -0.2404 -0.3217
 5507TIP3    H138012   2.311   0.249   2.165  0.9720 -0.6815  1.1244
 5507TIP3    H238013   2.216   0.363   2.197 -1.3292 -1.3889 -2.6023
 5508TIP3   OH238014   3.256   4.308   2.637  0.3588 -0.2162 -0.4440
 5508TIP3    H138015   3.332   4.276   2.686 -0.3272  0.3671  1.0231
 5508TIP3    H238016   3.252   4.250   2.561  2.6540  0.1273 -0.9203
 5509TIP3   OH238017   4.869   3.568   5.162  0.0912 -0.4022 -0.3232
 5509TIP3    H138018   4.819   3.565   5.080  0.4675  0.5536 -0.5989
 5509TIP3    H238019   4.824   3.635   5.215  0.3713 -0.3933 -0.0971
 5510TIP3   OH238020   0.830   6.598   2.885  0.0855  0.0158  0.1295
 5510TIP3    H138021   0.790   6.678   2.919 -1.3737 -0.3656 -0.5952
 5510TIP3    H238022   0.835   6.612   2.791  2.5753  0.4050  0.2477
 5511TIP3   OH238023   3.231   4.816  14.726  0.1001 -0.1105 -0.1126
 5511TIP3    H138024   3.305   4.830  14.785  0.0736 -0.0299 -0.0988
 5511TIP3    H238025   3.185   4.900  14.724  0.6175  0.1686 -0.9511
 5512TIP3   OH238026   2.778   3.450  12.244  0.2472 -0.5066  0.1209
 5512TIP3    H138027   2.806   3.360  12.228  1.3163 -0.0878 -0.5073
 5512TIP3    H238028   2.735   3.476  12.163 -1.0713 -0.7889  0.6978
 5513TIP3   OH238029   1.990   4.934   2.807  0.5395 -0.1093  0.3209
 5513TIP3    H138030   1.953   4.862   2.857  0.8045 -0.2313  0.3403
 5513TIP3    H238031   1.914   4.985   2.778  0.4368  1.0473  2.4378
 5514TIP3   OH238032   4.004   5.813  11.632 -0.1151  0.9293  0.3603
 5514TIP3    H138033   4.087   5.786  11.672  0.8802  1.0092 -1.5663
 5514TIP3    H238034   3.938   5.784  11.695  1.1383 -2.2072  0.4259
 5515TIP3   OH238035   0.416   0.143  16.458 -0.4019 -0.4070 -0.2069
 5515TIP3    H138036   0.327   0.172  16.440 -0.3102 -0.4618 -0.7671
 5515TIP3    H238037   0.410   0.098  16.542 -1.5146 -2.9621 -1.5365
 5516TIP3   OH238038   1.518   1.957   0.027  0.1710  0.1809  0.0897
 5516TIP3    H138039   1.518   1.991   0.117  1.3061 -0.0667  0.1979
 5516TIP3    H238040   1.595   1.996  -0.013  0.7705 -1.2510 -0.1780
 5517TIP3   OH238041   6.536   2.097   2.091  0.2581  0.8099  0.1834
 5517TIP3    H138042   6.551   2.052   2.174 -1.0581  1.6738  0.9190
 5517TIP3    H238043   6.606   2.163   2.087  0.3751  0.7112  0.5758
 5518TIP3   OH238044   1.306   3.442  11.576  1.0250 -0.7846 -0.0909
 5518TIP3    H138045   1.293   3.470  11.667 -1.2533 -0.0736 -0.5723
 5518TIP3    H238046   1.384   3.386  11.579  2.7122  1.4883  1.7798
 5519TIP3   OH238047   2.918   6.453  15.985  1.1408 -0.5014  0.1746
 5519TIP3    H138048   2.848   6.518  15.987  0.3484 -1.2694 -0.9332
 5519TIP3    H238049   2.925   6.422  16.075  0.7641  0.3187  0.4899
 5520TIP3   OH238050   0.874   4.395   2.697  0.0282  0.5976 -0.5992
 5520TIP3    H138051   0.858   4.427   2.786  0.7682  1.6224 -0.8089
 5520TIP3    H238052   0.969   4.403   2.686 -0.0570  0.4611 -1.4740
 5521TIP3   OH238053   4.200   6.777   2.311  0.3724  0.0847  0.4284
 5521TIP3    H138054   4.148   6.813   2.383 -0.1944 -0.7798  0.4693
 5521TIP3    H238055   4.232   6.693   2.345 -1.3806 -1.1949 -0.9174
 5522TIP3   OH238056   6.043   5.209   3.385 -0.5477 -0.1779  0.3633
 5522TIP3    H138057   6.067   5.124   3.348 -2.1310 -1.0320  1.2401
 5522TIP3    H238058   6.063   5.271   3.315  1.3642 -1.1439 -0.0183
 5523TIP3   OH238059   5.933   4.615  15.863  0.3784 -0.3274 -0.1977
 5523TIP3    H138060   5.903   4.532  15.899 -0.6949  0.4608  0.7961
 5523TIP3    H238061   5.860   4.645  15.808 -1.0766  1.8796  2.6754
 5524TIP3   OH238062   0.950   3.070   6.559  0.3783 -0.2528  0.0756
 5524TIP3    H138063   0.990   3.146   6.602  0.1379 -0.7491  1.2330
 5524TIP3    H238064   1.024   3.020   6.526  0.7476 -0.9119  1.7694
 5525TIP3   OH238065   5.718   4.767  16.733  0.3046 -0.0449 -0.1215
 5525TIP3    H138066   5.647   4.824  16.764 -0.1527 -0.6926  0.0303
 5525TIP3    H238067   5.796   4.822  16.741  0.0336  0.2156  1.0562
 5526TIP3   OH238068   5.869   1.563  14.312  0.2743 -0.1878 -0.2709
 5526TIP3    H138069   5.932   1.501  14.275  1.2236  1.1420 -0.9564
 5526TIP3    H238070   5.791   1.553  14.258  0.4093 -0.8055 -0.3571
 5527TIP3   OH238071   0.777   3.062  11.658  0.1863  0.1021 -0.5640
 5527TIP3    H138072   0.825   3.097  11.583  2.1311  3.7573  2.0830
 5527TIP3    H238073   0.686   3.082  11.639  0.2227 -1.5849 -3.0442
 5528TIP3   OH238074   0.972   3.680  15.760  0.3188 -0.0800 -0.7779
 5528TIP3    H138075   1.002   3.761  15.720 -0.3362  0.5055 -0.1140
 5528TIP3    H238076   0.968   3.618  15.688  1.6763  0.2190 -1.1370
 5529TIP3   OH238077   2.592   4.675  13.862  0.7134  0.4709  0.2442
 5529TIP3    H138078   2.621   4.697  13.951  3.2370 -0.4960 -0.2404
 5529TIP3    H238079   2.590   4.759  13.816  1.6109  0.7428  0.6663
 5530TIP3   OH238080   6.344   6.697  15.027 -0.7097  0.1883  1.2645
 5530TIP3    H138081   6.433   6.677  15.056 -0.7299  0.6869  1.6792
 5530TIP3    H238082   6.355   6.743  14.944 -0.5527  0.8180  1.6329
 5531TIP3   OH238083   5.589   2.311   1.617  0.5201  0.2511  0.0418
 5531TIP3    H138084   5.620   2.232   1.571  0.5486  0.3111 -0.0418
 5531TIP3    H238085   5.493   2.302   1.615  0.5351 -0.0138  0.4416
 5532TIP3   OH238086   3.221   5.655  15.473  0.1466  0.3117 -0.3764
 5532TIP3    H138087   3.298   5.621  15.428  1.6021  0.7913  1.6370
 5532TIP3    H238088   3.237   5.749  15.480  0.0582  0.2305  1.2773
 5533TIP3   OH238089   3.985   0.775   5.656  0.1075 -0.0450 -0.4196
 5533TIP3    H138090   4.033   0.856   5.675 -0.8122  0.7347 -1.2521
 5533TIP3    H238091   4.033   0.735   5.584  1.2300 -0.8564  0.7640
 5534TIP3   OH238092   1.680   5.068  13.322  0.1826 -0.2166 -0.5201
 5534TIP3    H138093   1.646   5.101  13.239 -0.4793 -1.6020 -0.8294
 5534TIP3    H238094   1.755   5.014  13.299 -0.2022 -0.8771 -0.2658
 5535TIP3   OH238095   4.120   6.817   2.054 -0.2755  0.2820  0.1040
 5535TIP3    H138096   4.184   6.868   2.004 -0.8122  0.5018 -0.3762
 5535TIP3    H238097   4.166   6.792   2.134  0.1532  1.1176  0.1352
 5536TIP3   OH238098   5.218   3.588  15.475  0.1948 -0.2503  0.6282
 5536TIP3    H138099   5.195   3.645  15.402  1.1743  1.1404  1.3721
 5536TIP3    H238100   5.294   3.540  15.444 -0.3117 -0.8028  0.1981
 5537TIP3   OH238101   1.199   1.892  15.763 -0.5020 -0.1051 -0.0794
 5537TIP3    H138102   1.138   1.935  15.702  0.7566  0.7700 -0.7644
 5537TIP3    H238103   1.257   1.962  15.792 -0.3362 -0.7627  1.2235
 5538TIP3   OH238104   2.957   6.608  15.415  1.0724  0.2971  0.1408
 5538TIP3    H138105   2.973   6.514  15.420  0.0842  0.1226  0.2402
 5538TIP3    H238106   2.998   6.635  15.333  1.2098 -0.2520  0.0285
 5539TIP3   OH238107   0.450   0.685   1.757 -0.1904  0.0574 -0.5588
 5539TIP3    H138108   0.434   0.741   1.681  0.3707  2.9654  1.3082
 5539TIP3    H238109   0.531   0.640   1.737  0.8216  2.0080 -1.0851
 5540TIP3   OH238110   3.439   3.402   5.961 -0.1590 -0.2169 -0.7715
 5540TIP3    H138111   3.399   3.403   6.048  1.3079  1.9487 -0.0426
 5540TIP3    H238112   3.372   3.440   5.903 -0.2713  0.6241 -0.1127
 5541TIP3   OH238113   0.719   1.360  16.677  0.3844 -0.4398 -0.4448
 5541TIP3    H138114   0.667   1.279  16.678  1.6984 -1.3545 -1.3640
 5541TIP3    H238115   0.800   1.336  16.723  0.1129  0.8864  0.7855
 5542TIP3   OH238116   4.949   5.200   3.973  0.3237 -0.6927  0.4896
 5542TIP3    H138117   4.940   5.114   4.015 -2.1154 -0.4055  0.6912
 5542TIP3    H238118   4.942   5.182   3.880  0.8209 -0.7983  0.4682
 5543TIP3   OH238119   4.873   2.210  14.409  0.0053 -0.0423 -0.1221
 5543TIP3    H138120   4.865   2.205  14.314 -0.3040 -0.2412 -0.0866
 5543TIP3    H238121   4.880   2.304  14.428 -0.7836  0.0493 -0.2730
 5544TIP3   OH238122   0.056   5.743   4.659  0.0207 -0.3026  0.6592
 5544TIP3    H138123   0.018   5.825   4.628 -2.1711 -0.9686  1.4234
 5544TIP3    H238124   0.004   5.675   4.616  1.8428 -1.3354 -0.0266
 5545TIP3   OH238125   3.130   4.346  11.049  0.1633 -0.2061 -0.1482
 5545TIP3    H138126   3.055   4.405  11.038 -0.4077 -0.5907  1.4182
 5545TIP3    H238127   3.146   4.311  10.961 -3.1095 -2.0359 -0.1544
 5546TIP3   OH238128   2.288   5.876   3.445 -0.1764  0.7763  0.0673
 5546TIP3    H138129   2.256   5.903   3.359 -1.0325  0.8568  0.3997
 5546TIP3    H238130   2.297   5.957   3.494 -0.3574  0.6718  0.2747
 5547TIP3   OH238131   3.713   6.117  10.479 -0.0296 -0.5419  0.5727
 5547TIP3    H138132   3.664   6.188  10.521 -0.7222 -2.0504  2.4291
 5547TIP3    H238133   3.780   6.093  10.543  1.2923 -0.4829 -0.7300
 5548TIP3   OH238134   1.747   2.846   2.448 -0.0520  0.3878  0.0199
 5548TIP3    H138135   1.768   2.760   2.412  2.0373  1.0743 -0.5144
 5548TIP3    H238136   1.800   2.853   2.527  0.5336  1.5484 -0.4579
 5549TIP3   OH238137   6.786   3.603   2.575  0.0335  0.4642 -0.1349
 5549TIP3    H138138   6.873   3.613   2.614 -0.1753  0.1008  0.4396
 5549TIP3    H238139   6.803   3.560   2.491  0.3696 -0.0745  0.2009
 5550TIP3   OH238140   2.724   1.871   0.788  0.0829  0.2880  0.2617
 5550TIP3    H138141   2.688   1.922   0.860  0.5492  0.0688  0.6540
 5550TIP3    H238142   2.655   1.808   0.766  0.7884 -1.2128  2.0782
 5551TIP3   OH238143   1.537   2.770   1.646 -0.0824  0.0512  0.6410
 5551TIP3    H138144   1.561   2.780   1.738  0.3420  2.1278  0.3543
 5551TIP3    H238145   1.614   2.729   1.605 -0.3470 -1.0579  1.2142
 5552TIP3   OH238146   1.706   6.384  17.089 -0.3574 -0.4416  0.0623
 5552TIP3    H138147   1.667   6.318  17.145  1.0208 -1.0441  0.3349
 5552TIP3    H238148   1.671   6.467  17.122 -1.8523 -0.9691 -0.0902
 5553TIP3   OH238149   4.344   6.052   2.477  0.1546  0.4716 -0.0576
 5553TIP3    H138150   4.421   6.023   2.427 -1.3476 -1.0798 -1.6454
 5553TIP3    H238151   4.281   5.980   2.467 -0.8949  0.9075  2.6549
 5554TIP3   OH238152   3.716   3.249  11.227  0.2292  0.3335 -0.6535
 5554TIP3    H138153   3.796   3.289  11.193 -0.1333  1.1384 -0.5772
 5554TIP3    H238154   3.647   3.310  11.202 -0.4644 -0.7255 -1.3747
 5555TIP3   OH238155   5.223   6.246  13.568 -0.2486  0.3681  0.2592
 5555TIP3    H138156   5.247   6.224  13.478 -0.7098 -0.0254  0.2235
 5555TIP3    H238157   5.252   6.170  13.620 -0.3062  0.4339  0.3893
 5556TIP3   OH238158   0.949   2.651  15.901 -0.6194 -0.1638  0.1447
 5556TIP3    H138159   1.032   2.699  15.906  0.4248 -2.0052  1.6485
 5556TIP3    H238160   0.958   2.597  15.823 -0.0111 -0.9954  0.7754
 5557TIP3   OH238161   3.388   1.746  14.767  0.1161 -0.0518  0.1342
 5557TIP3    H138162   3.412   1.703  14.849 -1.2653  0.1797  0.6844
 5557TIP3    H238163   3.392   1.676  14.701 -2.2077 -1.1102  1.0325
 5558TIP3   OH238164   5.300   1.329   6.499 -0.0369  0.6322 -0.1383
 5558TIP3    H138165   5.340   1.243   6.485 -2.1140 -0.4944  0.3057
 5558TIP3    H238166   5.207   1.310   6.510 -0.5859  2.9829 -0.1644
 5559TIP3   OH238167   4.554   2.367   4.418 -0.0676  0.6171 -0.6031
 5559TIP3    H138168   4.548   2.463   4.412  0.9419  0.6551 -1.1228
 5559TIP3    H238169   4.480   2.343   4.474  0.6591  1.8582  0.9863
 5560TIP3   OH238170   0.155   0.637   4.753  0.0093 -0.2425 -0.1782
 5560TIP3    H138171   0.220   0.586   4.704  1.4072 -0.3366  1.6524
 5560TIP3    H238172   0.172   0.728   4.726 -0.0531 -0.3899 -0.7364
 5561TIP3   OH238173   2.715   3.804  13.612  0.4674  0.0554  0.1427
 5561TIP3    H138174   2.632   3.830  13.573  1.0717  2.5849  0.3884
 5561TIP3    H238175   2.694   3.783  13.703 -0.0895 -0.6249 -0.1369
 5562TIP3   OH238176   4.393   5.135  17.270  0.2580 -0.2220 -0.2850
 5562TIP3    H138177   4.372   5.183  17.350  1.4875 -1.8211  1.0801
 5562TIP3    H238178   4.310   5.126  17.224 -0.9709 -1.3308  2.0180
 5563TIP3   OH238179   0.389   1.474  12.301  0.3844  0.3491  0.7565
 5563TIP3    H138180   0.352   1.404  12.246 -0.2190  0.7107  0.6933
 5563TIP3    H238181   0.451   1.429  12.359  0.5495 -0.1319  0.2209
 5564TIP3   OH238182   6.661   5.393   2.536 -0.8598  0.1180  0.3217
 5564TIP3    H138183   6.612   5.326   2.583 -1.3740  0.8586  0.8704
 5564TIP3    H238184   6.711   5.439   2.604  0.9663 -0.8939 -0.2765
 5565TIP3   OH238185   5.200   5.946  15.826  0.1357  0.1855 -0.3212
 5565TIP3    H138186   5.234   6.031  15.798 -1.7736  0.1620 -3.1491
 5565TIP3    H238187   5.225   5.886  15.756 -1.8565 -0.6766 -0.3734
 5566TIP3   OH238188   6.584   4.777   6.060 -0.6093 -0.2007  0.7250
 5566TIP3    H138189   6.621   4.797   5.974  0.0079 -1.9076  0.5665
 5566TIP3    H238190   6.591   4.860   6.108  1.6301  0.0813  0.0507
 5567TIP3   OH238191   5.896   5.533   0.771 -0.0533 -0.0127 -0.4501
 5567TIP3    H138192   5.826   5.514   0.834  1.0941  0.2082  0.9417
 5567TIP3    H238193   5.926   5.447   0.742  0.9708 -0.2342  1.1296
 5568TIP3   OH238194   6.700   6.026  17.238 -0.5200 -0.1693  0.2585
 5568TIP3    H138195   6.722   5.950  17.184 -1.6108  0.3759 -1.0190
 5568TIP3    H238196   6.691   6.098  17.175  0.3570  0.9977  1.4213
 5569TIP3   OH238197   1.179   2.065  14.345  0.2648  0.8715  0.2557
 5569TIP3    H138198   1.118   2.135  14.326  0.5851  1.6428  1.8815
 5569TIP3    H238199   1.142   1.988  14.301 -1.4213  1.4993  0.4896
 5570TIP3   OH238200   5.620   6.320   1.953  0.1787 -0.2587  0.4921
 5570TIP3    H138201   5.664   6.299   1.870 -1.8926 -0.6323 -0.5882
 5570TIP3    H238202   5.610   6.236   1.997 -1.6727 -0.6229 -0.4901
 5571TIP3   OH238203   6.336   3.755   3.282 -0.6060  0.2450  0.8415
 5571TIP3    H138204   6.255   3.788   3.320 -0.8998  0.3958  0.0903
 5571TIP3    H238205   6.375   3.702   3.352 -0.5580  1.4529  1.7587
 5572TIP3   OH238206   3.023   1.331  12.010  0.8013 -0.3719 -0.4406
 5572TIP3    H138207   3.037   1.365  11.922 -1.2575  0.3732 -0.5244
 5572TIP3    H238208   2.982   1.403  12.058 -0.5292 -1.5952  0.3617
 5573TIP3   OH238209   2.318   2.654   5.412 -0.0569 -0.5481  0.4602
 5573TIP3    H138210   2.319   2.746   5.440  0.6589 -0.1532 -0.7658
 5573TIP3    H238211   2.352   2.605   5.487  0.3899  0.2857  0.8101
 5574TIP3   OH238212   1.179   2.241   1.490  0.0697  0.6571  0.8410
 5574TIP3    H138213   1.122   2.189   1.434  1.7045 -1.0582  0.6678
 5574TIP3    H238214   1.238   2.285   1.429  0.8902 -0.0257  1.1305
 5575TIP3   OH238215   4.373   0.441   6.182  0.3102 -0.1364  0.6318
 5575TIP3    H138216   4.310   0.383   6.139 -0.4650 -0.6811  2.4052
 5575TIP3    H238217   4.352   0.528   6.149 -1.6531 -0.2534  1.4665
 5576TIP3   OH238218   6.552   4.393   4.993  0.0063 -0.1623 -0.0440
 5576TIP3    H138219   6.606   4.325   4.953 -0.3765 -0.1700 -0.5470
 5576TIP3    H238220   6.473   4.347   5.023  0.4241 -0.2218  1.0335
 5577TIP3   OH238221   0.297   2.952   3.640  0.3408 -0.1831 -0.0154
 5577TIP3    H138222   0.286   2.972   3.733  1.9512 -0.8060  0.3351
 5577TIP3    H238223   0.238   3.013   3.596  2.3039  2.8296  1.1977
 5578TIP3   OH238224   1.652   3.560   5.105 -0.0158 -0.7503 -0.1752
 5578TIP3    H138225   1.597   3.493   5.146  0.3274 -0.3812  0.9068
 5578TIP3    H238226   1.723   3.574   5.167  0.7119 -0.4279 -1.0637
 5579TIP3   OH238227   3.426   0.972  16.959 -0.2259 -0.4720 -0.3231
 5579TIP3    H138228   3.351   1.032  16.959 -0.2791 -0.5336 -0.6230
 5579TIP3    H238229   3.444   0.957  16.866  0.3906 -0.1679 -0.2578
 5580TIP3   OH238230   4.215   3.481   6.172 -0.2015  0.3773  0.0708
 5580TIP3    H138231   4.278   3.548   6.198 -0.3581  0.6496 -0.2346
 5580TIP3    H238232   4.265   3.400   6.171 -0.4441  0.1318  2.3382
 5581TIP3   OH238233   4.980   3.815  13.094  0.5565 -0.1282  0.2404
 5581TIP3    H138234   4.951   3.762  13.021 -1.9204  0.1080  0.9572
 5581TIP3    H238235   4.979   3.905  13.061 -0.3994 -0.0397  0.4597
 5582TIP3   OH238236   2.673   4.911  14.253 -0.6059  0.1625  0.1592
 5582TIP3    H138237   2.707   4.880  14.337  0.5376  0.5315 -0.1537
 5582TIP3    H238238   2.604   4.974  14.277  0.9151  1.6395  0.8808
 5583TIP3   OH238239   4.098   3.149   6.047 -0.1677 -0.0773 -0.2599
 5583TIP3    H138240   4.147   3.152   5.964 -1.5478 -1.2758 -1.1724
 5583TIP3    H238241   4.077   3.241   6.065  0.3800  0.2326 -1.0965
 5584TIP3   OH238242   4.310   2.697   1.118  0.1511 -0.1342 -0.4016
 5584TIP3    H138243   4.286   2.627   1.058  2.3764  0.3039 -1.9182
 5584TIP3    H238244   4.232   2.754   1.121 -0.1503 -0.3173 -2.6955
 5585TIP3   OH238245   4.542   5.457   2.109 -0.1317 -0.3171 -0.0608
 5585TIP3    H138246   4.477   5.496   2.051 -1.3190 -0.5258  1.0839
 5585TIP3    H238247   4.623   5.457   2.058 -0.8881  0.4868 -1.3076
 5586TIP3   OH238248   3.772   4.901   4.679  0.0608  0.0161  0.1157
 5586TIP3    H138249   3.800   4.840   4.610  3.4175  0.2319  1.0937
 5586TIP3    H238250   3.733   4.844   4.746  1.1376 -0.8295  0.0574
 5587TIP3   OH238251   5.271   1.194  17.185  0.0785 -0.5870 -0.7062
 5587TIP3    H138252   5.222   1.155  17.112  0.2291 -1.9942 -0.0825
 5587TIP3    H238253   5.347   1.137  17.196 -0.2309 -0.7489  0.8972
 5588TIP3   OH238254   6.291   5.036  14.728 -0.0933  0.1977  0.2343
 5588TIP3    H138255   6.310   4.952  14.686 -1.1270 -0.3200  0.7487
 5588TIP3    H238256   6.221   5.016  14.790  0.1697  1.2933  0.9240
 5589TIP3   OH238257   4.872   4.611   2.037  0.2160  0.2282 -0.2264
 5589TIP3    H138258   4.910   4.636   1.953 -0.0649 -0.9093 -0.7118
 5589TIP3    H238259   4.930   4.543   2.070 -0.1679  0.0429  0.0750
 5590TIP3   OH238260   5.944   6.628  12.785 -0.6640 -0.6262  0.8471
 5590TIP3    H138261   5.966   6.721  12.789 -0.7973 -0.6226  1.5363
 5590TIP3    H238262   6.017   6.588  12.736 -1.2734  0.0329 -0.6799
 5591TIP3   OH238263   1.565   0.386   0.254 -0.2664  0.3673 -0.5004
 5591TIP3    H138264   1.563   0.466   0.200 -0.1664  0.6386 -0.1042
 5591TIP3    H238265   1.635   0.334   0.216  0.4089  0.9522 -0.0862
 5592TIP3   OH238266   2.471   2.318  12.796  0.5027 -0.0793 -0.6903
 5592TIP3    H138267   2.566   2.309  12.801  0.4632 -0.0993  0.4438
 5592TIP3    H238268   2.447   2.357  12.881 -0.5623 -0.7009 -0.6920
 5593TIP3   OH238269   3.329   4.098  12.074  0.0897  0.3432  0.1506
 5593TIP3    H138270   3.245   4.052  12.078  1.5115 -2.3422  1.8871
 5593TIP3    H238271   3.374   4.059  11.999  0.2938  0.8619  0.0005
 5594TIP3   OH238272   6.548   1.775   2.184 -0.0318  0.7029  0.0260
 5594TIP3    H138273   6.459   1.742   2.198 -1.5678  2.3032 -4.3002
 5594TIP3    H238274   6.554   1.853   2.239 -1.8214  1.2775 -0.5475
 5595TIP3   OH238275   2.672   5.439   1.670 -0.1236  0.2872  0.0306
 5595TIP3    H138276   2.738   5.468   1.606 -0.1073 -1.9050 -1.0335
 5595TIP3    H238277   2.713   5.456   1.755  0.7843  1.2225 -0.5627
 5596TIP3   OH238278   0.148   4.028  13.829  0.0578  0.1648 -0.0866
 5596TIP3    H138279   0.170   4.088  13.900  0.9467  0.1691 -0.3442
 5596TIP3    H238280   0.054   4.040  13.815  0.5220  3.2160 -1.6483
 5597TIP3   OH238281   2.004   4.381   6.399 -0.2496 -0.0368 -0.0840
 5597TIP3    H138282   2.083   4.404   6.447 -0.7523 -0.1466  0.8106
 5597TIP3    H238283   1.984   4.459   6.348  1.0663 -0.3933 -1.2297
 5598TIP3   OH238284   5.511   6.086   5.631 -0.5439 -0.1782 -0.3944
 5598TIP3    H138285   5.425   6.115   5.600 -1.7395 -2.3942  0.6280
 5598TIP3    H238286   5.526   6.003   5.585  0.7605 -0.1536 -0.0526
 5599TIP3   OH238287   3.630   3.696   4.492  0.1503  0.1570 -0.2480
 5599TIP3    H138288   3.678   3.614   4.477  0.2126  0.2484 -0.5428
 5599TIP3    H238289   3.651   3.719   4.582 -0.5912 -0.6328  0.1459
 5600TIP3   OH238290   2.015   6.577   0.171 -0.0976 -0.0252  0.2091
 5600TIP3    H138291   2.092   6.628   0.146 -1.3724  1.1510 -1.5630
 5600TIP3    H238292   2.029   6.491   0.131  0.2431  0.2206 -0.2073
 5601TIP3   OH238293   4.985   2.271  11.292 -0.1065  0.0465  0.0537
 5601TIP3    H138294   4.940   2.236  11.215  1.4545  0.3893 -1.0636
 5601TIP3    H238295   4.952   2.360  11.301 -0.7753 -0.2091  0.1844
 5602TIP3   OH238296   6.317   2.861   5.998 -0.1859  0.2280  0.1204
 5602TIP3    H138297   6.322   2.920   6.073 -0.1664  1.5459 -0.8656
 5602TIP3    H238298   6.352   2.913   5.925  0.4749 -1.2522 -0.6676
 5603TIP3   OH238299   1.480   4.364  17.004  0.4683  0.2382 -0.4457
 5603TIP3    H138300   1.403   4.310  17.024 -0.3319  0.9964 -1.3836
 5603TIP3    H238301   1.495   4.415  17.084  0.9760 -1.0361  0.3009
 5604TIP3   OH238302   1.896   3.235  14.450 -0.0169  0.2029  0.5892
 5604TIP3    H138303   1.824   3.296  14.439  0.4139  0.7562  0.7748
 5604TIP3    H238304   1.860   3.165  14.505 -0.8513 -0.3181 -0.5806
 5605TIP3   OH238305   5.839   1.841  12.755 -0.0657  0.2900  0.6307
 5605TIP3    H138306   5.828   1.758  12.802  0.0337 -0.5924 -0.8389
 5605TIP3    H238307   5.924   1.834  12.713 -0.5278  0.6733 -0.3899
 5606TIP3   OH238308   1.111   4.810  14.465  0.1962  0.6718 -0.4463
 5606TIP3    H138309   1.194   4.766  14.482 -0.3899 -0.1276  0.4791
 5606TIP3    H238310   1.112   4.828  14.371  0.2422 -1.8508 -0.9965
 5607TIP3   OH238311   1.586   0.055  11.507 -0.0792 -0.0716  0.2057
 5607TIP3    H138312   1.651   0.068  11.576 -0.1921 -1.6455  0.6440
 5607TIP3    H238313   1.639   0.037  11.429  0.0385 -0.8423  0.4517
 5608TIP3   OH238314   2.182   2.639  17.208 -0.2375 -0.0186 -0.6185
 5608TIP3    H138315   2.174   2.734  17.204  3.1270  0.6679  2.5560
 5608TIP3    H238316   2.263   2.619  17.161 -0.1235 -1.1148 -0.0058
 5609TIP3   OH238317   5.425   1.412   4.934  0.1707 -0.3850 -0.1371
 5609TIP3    H138318   5.515   1.421   4.904  0.1813  1.4580  0.3700
 5609TIP3    H238319   5.431   1.404   5.029 -0.2925  2.6123  0.2203
 5610TIP3   OH238320   0.871   5.991  11.869  0.2558 -0.3999 -0.3389
 5610TIP3    H138321   0.929   6.063  11.845 -2.3548  2.1682  0.4403
 5610TIP3    H238322   0.836   6.015  11.954 -2.3016 -1.5127 -0.9669
 5611TIP3   OH238323   0.076   0.530  15.617 -0.4455  0.1900  0.4300
 5611TIP3    H138324   0.044   0.448  15.579 -1.3055  0.4793  0.5004
 5611TIP3    H238325   0.081   0.591  15.543  0.9506 -0.1218  0.2316
 5612TIP3   OH238326   4.422   2.293  16.562 -0.0982 -0.2767 -0.3517
 5612TIP3    H138327   4.490   2.234  16.530 -0.1228 -0.0175 -0.8951
 5612TIP3    H238328   4.349   2.280  16.501 -0.4613 -0.3867  0.0920
 5613TIP3   OH238329   4.905   4.166  16.764  0.0312  0.2562 -0.1112
 5613TIP3    H138330   4.922   4.169  16.858  0.3121  2.0529 -0.1705
 5613TIP3    H238331   4.838   4.099  16.753 -1.7530  1.6235  1.7037
 5614TIP3   OH238332   3.184   2.438  13.518  0.2334 -0.2125 -0.1831
 5614TIP3    H138333   3.109   2.485  13.554  2.1709  2.3142  0.8233
 5614TIP3    H238334   3.178   2.350  13.557 -0.1536  1.0730  2.8979
 5615TIP3   OH238335   5.858   0.806   6.038  0.1765 -0.4074  0.5219
 5615TIP3    H138336   5.925   0.810   5.971  1.4982 -3.9081  1.4418
 5615TIP3    H238337   5.805   0.729   6.016 -3.5869  2.0453 -0.0458
 5616TIP3   OH238338   3.059   0.816  13.424  0.0209  0.2971  0.3106
 5616TIP3    H138339   3.025   0.730  13.397  0.1170  0.3458  0.0372
 5616TIP3    H238340   3.134   0.831  13.367  0.3731  0.2886  0.7666
 5617TIP3   OH238341   5.268   6.621  15.966 -0.6832  0.6222 -0.2614
 5617TIP3    H138342   5.289   6.688  16.031 -0.8130 -0.2608  0.7194
 5617TIP3    H238343   5.350   6.606  15.920 -0.1366  0.0272  0.8720
 5618TIP3   OH238344   3.292   6.463   0.980  0.3776 -0.1958 -0.1610
 5618TIP3    H138345   3.221   6.404   0.957  1.7560 -1.4912 -1.2797
 5618TIP3    H238346   3.308   6.514   0.901  1.9508 -1.2839 -0.5816
 5619TIP3   OH238347   6.064   5.994  15.929  0.3196  0.1551 -0.1220
 5619TIP3    H138348   6.150   5.987  15.972 -0.6207 -2.4750  1.6073
 5619TIP3    H238349   6.025   6.073  15.966  1.4916  0.7151 -0.0131
 5620TIP3   OH238350   6.041   1.667   5.036  0.3011  0.0780  0.0241
 5620TIP3    H138351   6.081   1.583   5.011 -1.7482 -1.3279  1.2262
 5620TIP3    H238352   6.104   1.706   5.096  0.1604 -1.8745  1.5274
 5621TIP3   OH238353   3.408   1.909   3.005  0.1626  0.8356 -0.3590
 5621TIP3    H138354   3.502   1.899   3.018  0.0360 -1.0076 -0.5588
 5621TIP3    H238355   3.394   1.884   2.913 -0.4462  1.8147 -0.5521
 5622TIP3   OH238356   3.736   2.361   3.085  0.2112 -0.8209  0.1108
 5622TIP3    H138357   3.718   2.269   3.065  0.2142 -1.3851  2.3867
 5622TIP3    H238358   3.785   2.358   3.167  3.2800  1.0905 -1.4899
 5623TIP3   OH238359   6.580   0.350   5.409 -0.5530  0.3037 -0.1300
 5623TIP3    H138360   6.669   0.379   5.387 -0.8884  1.1712 -0.3919
 5623TIP3    H238361   6.561   0.396   5.491  0.7211 -2.9320  2.2021
 5624TIP3   OH238362   6.785   3.005   5.102  0.3082 -0.1092 -0.2399
 5624TIP3    H138363   6.869   2.960   5.090 -0.3864 -1.2495 -1.1677
 5624TIP3    H238364   6.720   2.938   5.079 -0.8891  0.4888  1.2791
 5625TIP3   OH238365   5.899   0.107  15.508  0.2069  0.0881  0.2180
 5625TIP3    H138366   5.950   0.187  15.522 -0.9306  0.9573 -0.4405
 5625TIP3    H238367   5.932   0.072  15.425 -1.6880  1.8417 -1.3674
 5626TIP3   OH238368   2.214   6.193  13.945  0.3601 -0.1953  0.9501
 5626TIP3    H138369   2.269   6.205  14.022  1.1369 -1.5786  0.6432
 5626TIP3    H238370   2.181   6.103  13.951  0.9587 -0.5643 -0.6229
 5627TIP3   OH238371   4.952   4.334   2.414 -0.6639 -0.1251 -0.2394
 5627TIP3    H138372   4.935   4.341   2.320 -0.4848  0.3604 -0.2407
 5627TIP3    H238373   5.044   4.360   2.424 -0.8611  0.4546  0.1414
 5628TIP3   OH238374   6.212   2.339   0.617  0.6033  0.0634  0.1613
 5628TIP3    H138375   6.125   2.303   0.600  0.3209  0.3382  0.9667
 5628TIP3    H238376   6.267   2.262   0.630  0.8018 -0.1572 -1.7276
 5629TIP3   OH238377   0.244   3.789  17.174  0.2231 -0.0443  0.4156
 5629TIP3    H138378   0.210   3.872  17.140  2.5163  0.4578 -0.8473
 5629TIP3    H238379   0.182   3.723  17.142  1.2493  0.6018 -3.4044
 5630TIP3   OH238380   6.624   0.744   0.632 -0.5862  0.4666  0.0088
 5630TIP3    H138381   6.628   0.656   0.668 -2.6363 -0.0181 -0.7822
 5630TIP3    H238382   6.604   0.731   0.539  0.5345  1.7518 -0.4494
 5631TIP3   OH238383   4.847   1.885   2.902 -0.1145  0.6265 -0.2439
 5631TIP3    H138384   4.841   1.979   2.887  0.0087  0.5285 -0.9292
 5631TIP3    H238385   4.923   1.857   2.852 -1.4194 -0.1887 -1.8526
 5632TIP3   OH238386   6.009   6.295  17.165 -0.1369 -0.4446 -0.3295
 5632TIP3    H138387   5.941   6.229  17.175  0.6670 -1.3192 -0.5574
 5632TIP3    H238388   5.970   6.362  17.110 -1.2301 -0.3409  0.5377
 5633TIP3   OH238389   1.429   5.598  17.003 -0.2526 -0.3249  0.9235
 5633TIP3    H138390   1.497   5.657  16.971 -0.8419 -0.6169 -1.0259
 5633TIP3    H238391   1.358   5.608  16.940 -1.5993 -0.8173  2.3211
 5634TIP3   OH238392   6.579   0.553  15.019  0.3333 -0.3999  0.2077
 5634TIP3    H138393   6.544   0.466  15.001 -0.7746  0.0214  0.2545
 5634TIP3    H238394   6.502   0.609  15.031  1.0190  0.5830  0.2289
 5635TIP3   OH238395   3.351   6.722   3.649  0.4375  0.6871 -0.1699
 5635TIP3    H138396   3.303   6.751   3.572 -0.9017 -0.2500  0.2871
 5635TIP3    H238397   3.286   6.677   3.703  1.6871 -0.0519  0.7788
 5636TIP3   OH238398   3.024   6.735   5.238  0.5504 -0.3389 -0.2737
 5636TIP3    H138399   2.978   6.659   5.273 -2.0513  0.8571 -0.8742
 5636TIP3    H238400   3.048   6.787   5.315  1.4856 -1.2692  0.0776
 5637TIP3   OH238401   0.624   0.186  14.504 -0.2385  0.2791  0.0365
 5637TIP3    H138402   0.579   0.111  14.543 -0.6226  1.1547  1.3193
 5637TIP3    H238403   0.627   0.252  14.573  0.7280  1.2020 -0.8375
 5638TIP3   OH238404   0.322   6.429  11.881  0.4241 -0.1309  0.1782
 5638TIP3    H138405   0.295   6.337  11.873  1.0529 -0.2527 -0.6653
 5638TIP3    H238406   0.275   6.461  11.958 -0.6579 -0.8555 -0.1547
 5639TIP3   OH238407   2.473   2.281   1.460  0.0963 -0.2521  0.6666
 5639TIP3    H138408   2.447   2.191   1.477 -2.4603  0.3624  0.4109
 5639TIP3    H238409   2.425   2.332   1.524 -0.2963  1.1107 -0.6530
 5640TIP3   OH238410   1.335   5.263  15.894  0.1032 -0.0138  0.3403
 5640TIP3    H138411   1.296   5.237  15.811 -1.6704  2.4337  0.2943
 5640TIP3    H238412   1.283   5.216  15.960 -0.2178  0.0578  0.1428
 5641TIP3   OH238413   3.228   0.132   1.690 -0.7051  0.1063  0.4969
 5641TIP3    H138414   3.274   0.207   1.728 -1.0461  0.3392  0.4533
 5641TIP3    H238415   3.192   0.084   1.764  2.1539 -1.8065  0.8045
 5642TIP3   OH238416   6.699   1.804   5.501  0.3188  0.2656 -0.6198
 5642TIP3    H138417   6.770   1.762   5.550 -0.6904 -0.6044  0.1576
 5642TIP3    H238418   6.722   1.897   5.500  0.0995  0.4256  2.0686
 5643TIP3   OH238419   1.644   0.007   4.123  0.1568 -0.1603 -0.1507
 5643TIP3    H138420   1.605   0.049   4.046 -2.2352 -0.7997  0.6564
 5643TIP3    H238421   1.724  -0.034   4.089 -1.1491 -0.9721 -2.4749
 5644TIP3   OH238422   1.420   2.489  13.862 -0.3941 -0.3427  0.3332
 5644TIP3    H138423   1.325   2.489  13.866 -0.4925 -0.2481 -1.2919
 5644TIP3    H238424   1.440   2.481  13.768  1.1635  1.3822  0.4644
 5645TIP3   OH238425   1.552   3.969  14.254 -0.1568  0.2657  0.6304
 5645TIP3    H138426   1.644   3.971  14.226 -0.0259  0.4388  1.0680
 5645TIP3    H238427   1.518   3.887  14.218 -0.4790  1.2625 -1.5328
 5646TIP3   OH238428   3.581   1.360   3.494 -0.4031  0.1242 -0.3664
 5646TIP3    H138429   3.540   1.339   3.578 -2.2664  0.7970 -1.0489
 5646TIP3    H238430   3.569   1.282   3.441  0.9489 -0.3738  0.0054
 5647TIP3   OH238431   1.747   6.817  17.182 -0.2622  0.6975 -0.4522
 5647TIP3    H138432   1.761   6.752  17.250 -0.9355  2.7400  1.7931
 5647TIP3    H238433   1.819   6.803  17.120  1.8670  0.2683  1.9453
 5648TIP3   OH238434   0.270   1.485   6.091  0.5483  0.4177  0.5830
 5648TIP3    H138435   0.273   1.477   6.187  0.5750 -0.6298  0.5123
 5648TIP3    H238436   0.363   1.486   6.065  0.7810  5.0666  0.8073
 5649TIP3   OH238437   5.475   6.237   2.948  0.3582  0.2847 -0.0617
 5649TIP3    H138438   5.459   6.315   3.000 -2.1073  0.4263 -0.8945
 5649TIP3    H238439   5.463   6.164   3.008  0.6792  0.4972  0.2632
 5650TIP3   OH238440   1.281   5.639   3.363 -0.2843 -0.0988 -0.1039
 5650TIP3    H138441   1.243   5.598   3.441 -2.5381  0.3267 -0.8966
 5650TIP3    H238442   1.224   5.714   3.344  1.2675  0.9073 -1.1359
 5651TIP3   OH238443   1.184   0.436   2.267 -0.7237  0.0719  0.6160
 5651TIP3    H138444   1.270   0.459   2.303  0.2032 -0.8467 -0.9301
 5651TIP3    H238445   1.139   0.520   2.259  0.7567  0.8126 -0.3414
 5652TIP3   OH238446   0.444   3.428  12.782  0.4997 -0.3444 -0.0271
 5652TIP3    H138447   0.380   3.373  12.826 -0.0728 -0.2476 -0.7253
 5652TIP3    H238448   0.528   3.405  12.823  0.7185 -3.5631 -1.9301
 5653TIP3   OH238449   5.074   5.800   3.006  0.6743  0.2138  0.0139
 5653TIP3    H138450   5.110   5.888   2.998 -0.5904  0.6530 -1.2340
 5653TIP3    H238451   5.006   5.809   3.074  0.0470  0.3957 -0.6229
 5654TIP3   OH238452   0.758   5.310  14.605  0.6124 -0.1680  0.3283
 5654TIP3    H138453   0.666   5.339  14.610  0.6688  0.3483 -1.2680
 5654TIP3    H238454   0.757   5.222  14.644 -1.2130 -1.5707 -2.5598
 5655TIP3   OH238455   6.160   4.320   1.970  0.1638 -0.5813  0.4502
 5655TIP3    H138456   6.243   4.309   1.923  0.7208  0.5524  1.1287
 5655TIP3    H238457   6.101   4.357   1.904  1.0677  1.4331  0.6732
 5656TIP3   OH238458   2.632   0.638   5.349 -0.4066 -0.0890 -0.1481
 5656TIP3    H138459   2.715   0.661   5.390  0.1623 -1.6302 -0.3914
 5656TIP3    H238460   2.585   0.721   5.342  0.4737  0.5843  1.3932
 5657TIP3   OH238461   2.694   3.160   5.712  0.0771 -0.0002  0.0766
 5657TIP3    H138462   2.750   3.148   5.790 -0.8344 -2.3670  0.4633
 5657TIP3    H238463   2.605   3.155   5.746 -0.3369 -0.5476 -1.0410
 5658TIP3   OH238464   2.117   1.557   4.967  0.7927 -0.0165 -0.0349
 5658TIP3    H138465   2.183   1.580   4.901  1.6081  1.3263  1.1983
 5658TIP3    H238466   2.098   1.640   5.011  1.0511 -1.0336  2.1084
 5659TIP3   OH238467   1.260   1.752  14.241  0.2417  0.0861 -0.1045
 5659TIP3    H138468   1.168   1.724  14.239 -0.3724  1.6907  1.9709
 5659TIP3    H238469   1.308   1.676  14.209 -1.5951 -1.9843  1.6624
 5660TIP3   OH238470   1.094   6.082  13.731  0.7496 -0.1490 -0.3380
 5660TIP3    H138471   1.181   6.044  13.719 -0.0401 -1.9809 -0.6580
 5660TIP3    H238472   1.041   6.043  13.662  0.1789  2.8140 -1.7391
 5661TIP3   OH238473   4.201   2.797   4.445  0.2895  0.2710  0.4535
 5661TIP3    H138474   4.169   2.720   4.398  0.1440  1.0074 -0.6918
 5661TIP3    H238475   4.280   2.822   4.398  0.3348  0.8116  0.8180
 5662TIP3   OH238476   5.421   1.955   4.780 -0.3271  0.2636  0.6116
 5662TIP3    H138477   5.419   1.860   4.763 -0.2639  0.4369 -0.4167
 5662TIP3    H238478   5.373   1.965   4.862 -0.2009 -0.6777  0.8154
 5663TIP3   OH238479   4.986   1.877  11.278 -0.0238  0.4682 -1.2715
 5663TIP3    H138480   4.895   1.893  11.300 -0.5835  0.0878 -3.1147
 5663TIP3    H238481   5.036   1.930  11.341 -1.5149  1.1723 -0.6327
 5664TIP3   OH238482   5.906   3.025   4.519 -0.3256  0.4548  0.2353
 5664TIP3    H138483   5.986   2.993   4.561 -0.3635  1.0751  0.8117
 5664TIP3    H238484   5.910   2.991   4.430  0.5886  0.4805  0.2510
 5665TIP3   OH238485   4.841   4.725   4.293  0.0717  0.1344  0.3950
 5665TIP3    H138486   4.910   4.686   4.347 -0.0306 -0.1023  0.3572
 5665TIP3    H238487   4.777   4.654   4.280  0.0219  0.2319  0.0878
 5666TIP3   OH238488   0.316   2.947   4.152  0.2364 -0.3711 -0.3106
 5666TIP3    H138489   0.347   2.987   4.233 -0.7743 -0.1188 -0.0324
 5666TIP3    H238490   0.221   2.941   4.163  0.2272 -1.6318 -0.8972
 5667TIP3   OH238491   6.022   1.116   2.164  0.6895  0.3274  0.0733
 5667TIP3    H138492   5.930   1.134   2.144 -0.4397 -2.0098  2.5746
 5667TIP3    H238493   6.041   1.169   2.241  0.8119 -0.6364  0.7206
 5668TIP3   OH238494   6.079   5.152   5.099  0.1819 -0.4654  0.8552
 5668TIP3    H138495   6.081   5.135   5.005  1.1864 -0.7232  0.9055
 5668TIP3    H238496   6.171   5.163   5.123 -0.1862  2.4998  1.3015
 5669TIP3   OH238497   2.417   0.329  12.022  0.3610  0.5752 -0.8187
 5669TIP3    H138498   2.478   0.402  12.029  0.7804  0.1373  0.2472
 5669TIP3    H238499   2.354   0.342  12.093  1.1115 -0.6955  0.1232
 5670TIP3   OH238500   5.075   3.992   1.729 -0.1506 -0.1727 -0.6066
 5670TIP3    H138501   5.132   3.925   1.765  0.2694  0.1358 -0.6864
 5670TIP3    H238502   5.008   3.943   1.681 -0.9117 -0.6010  0.8347
 5671TIP3   OH238503   3.609   5.627  17.168 -0.0057  0.2372  0.4159
 5671TIP3    H138504   3.675   5.679  17.213  0.1071  1.4760 -1.0877
 5671TIP3    H238505   3.532   5.683  17.164 -1.0457 -1.0089  1.7228
 5672TIP3   OH238506   4.098   0.815   3.206 -0.1234 -0.5768  0.6115
 5672TIP3    H138507   4.174   0.806   3.149 -0.3540 -0.5950  0.3100
 5672TIP3    H238508   4.031   0.857   3.152  1.0787  3.7407  2.0661
 5673TIP3   OH238509   1.512   2.300  13.268 -0.0423 -0.5516  0.1585
 5673TIP3    H138510   1.600   2.336  13.279 -0.1231 -0.6047  1.0191
 5673TIP3    H238511   1.499   2.245  13.345 -0.9520 -0.2729  0.2135
 5674TIP3   OH238512   6.304   4.694  14.694 -0.5369  0.2399 -0.2540
 5674TIP3    H138513   6.318   4.672  14.787 -1.8467  0.2381 -0.0359
 5674TIP3    H238514   6.317   4.611  14.648 -0.6883  0.0541  0.0301
 5675TIP3   OH238515   6.745   3.012   0.430 -0.2033  0.2273 -0.2287
 5675TIP3    H138516   6.665   3.016   0.378 -0.9906 -0.7337  0.8541
 5675TIP3    H238517   6.729   2.942   0.494  0.9277  1.0057  0.9612
 5676TIP3   OH238518   4.653   5.290  16.670 -0.2459  0.0549 -0.1600
 5676TIP3    H138519   4.571   5.310  16.715 -0.7725 -2.1455 -0.0103
 5676TIP3    H238520   4.722   5.317  16.731 -0.9012  0.0601  0.5843
 5677TIP3   OH238521   1.973   4.767   6.475  0.0226 -0.2879  0.0074
 5677TIP3    H138522   2.064   4.749   6.499  0.1303  0.9977  0.6428
 5677TIP3    H238523   1.951   4.698   6.412  2.3955  1.0332 -2.5213
 5678TIP3   OH238524   4.502   4.122  11.482  0.0341 -0.1487  0.3208
 5678TIP3    H138525   4.482   4.119  11.389  2.4862 -1.0611 -0.2499
 5678TIP3    H238526   4.561   4.048  11.497  1.0786  0.9765  2.2295
 5679TIP3   OH238527   1.489   0.286  12.483  0.1791 -0.4022  0.4430
 5679TIP3    H138528   1.402   0.256  12.456  0.2268  0.2840 -0.5289
 5679TIP3    H238529   1.546   0.210  12.470  0.0386 -0.3450 -0.6269
 5680TIP3   OH238530   5.338   1.980   2.632  0.3452  0.1194 -0.1983
 5680TIP3    H138531   5.278   1.984   2.706  0.4270  2.1300 -0.1867
 5680TIP3    H238532   5.425   1.983   2.673  0.6581 -4.1694 -0.1154
 5681TIP3   OH238533   3.024   0.049   1.494  0.1288 -0.0980  0.2641
 5681TIP3    H138534   3.055  -0.032   1.455 -1.6174 -1.4834  1.5944
 5681TIP3    H238535   3.096   0.077   1.552  0.0013 -1.7997  1.3049
 5682TIP3   OH238536   1.575   3.279  12.911  0.1683 -0.2076 -0.2258
 5682TIP3    H138537   1.498   3.228  12.938  0.6589 -0.8114  0.0489
 5682TIP3    H238538   1.629   3.217  12.862  0.5889  0.1543 -0.2233
 5683TIP3   OH238539   1.221   2.191  11.269 -0.0030 -0.6322  0.3646
 5683TIP3    H138540   1.296   2.158  11.317 -0.4271 -1.4003  0.5164
 5683TIP3    H238541   1.212   2.131  11.194  2.2870  2.0448 -2.2972
 5684TIP3   OH238542   0.803   6.453  15.604 -0.0797 -0.3795 -0.0302
 5684TIP3    H138543   0.775   6.375  15.652 -0.4299 -0.5442 -0.4834
 5684TIP3    H238544   0.798   6.524  15.667 -1.2336 -0.4609  0.0021
 5685TIP3   OH238545   2.186   1.785   0.487  0.3282  0.4011  0.4938
 5685TIP3    H138546   2.251   1.731   0.532  0.2110  1.3095  1.8181
 5685TIP3    H238547   2.109   1.781   0.543 -0.5123 -0.0287 -0.6636
 5686TIP3   OH238548   1.966   2.736  11.101  0.0449  0.3945 -0.8105
 5686TIP3    H138549   1.903   2.736  11.173  0.3950 -1.2006 -0.4585
 5686TIP3    H238550   1.915   2.760  11.024 -0.6828  0.5356 -0.2925
 5687TIP3   OH238551   3.521   3.372  13.563 -0.2285  0.7130 -0.1297
 5687TIP3    H138552   3.522   3.293  13.617  0.1663  0.7839 -0.0358
 5687TIP3    H238553   3.452   3.356  13.498 -0.4134  0.4533  0.1302
 5688TIP3   OH238554   4.979   5.915  16.605 -0.0630 -0.0731  0.0962
 5688TIP3    H138555   5.050   5.955  16.556  0.6137  0.1213  1.2004
 5688TIP3    H238556   4.990   5.947  16.695 -1.8112  0.3174  0.2104
 5689TIP3   OH238557   2.797   5.372   5.339  0.4991  0.4401  0.0134
 5689TIP3    H138558   2.740   5.408   5.271  1.9222  1.6071 -0.6167
 5689TIP3    H238559   2.802   5.441   5.405  0.3639 -0.0718  0.5706
 5690TIP3   OH238560   4.768   0.027   2.702  0.6781  0.9142 -0.1293
 5690TIP3    H138561   4.784  -0.044   2.640  2.7348 -0.5731  1.9370
 5690TIP3    H238562   4.733  -0.017   2.780  0.4815  2.3896  0.6562
 5691TIP3   OH238563   6.613   1.105   2.129 -0.2921 -0.4346 -0.1233
 5691TIP3    H138564   6.697   1.131   2.167  0.4070  0.3897 -2.0729
 5691TIP3    H238565   6.559   1.184   2.134 -0.3230 -0.4311 -0.4766
 5692TIP3   OH238566   1.327   5.689  15.586  0.0922  0.2051  0.1628
 5692TIP3    H138567   1.335   5.627  15.514 -0.8456  0.4161 -0.1485
 5692TIP3    H238568   1.292   5.768  15.545 -1.6380 -0.0594  1.0131
 5693TIP3   OH238569   4.372   4.451   3.806 -0.3243 -0.0455  0.1111
 5693TIP3    H138570   4.417   4.534   3.820 -1.5279  0.8183 -0.9550
 5693TIP3    H238571   4.284   4.475   3.780 -1.3762 -1.6900  1.8578
 5694TIP3   OH238572   0.718   1.937   0.303 -0.0370  0.1585 -0.4170
 5694TIP3    H138573   0.671   1.861   0.339  0.6326 -0.2288 -0.3403
 5694TIP3    H238574   0.808   1.906   0.292  0.2558  0.9701 -0.3309
 5695TIP3   OH238575   2.357   2.331  13.514 -0.0650 -0.1753  0.1568
 5695TIP3    H138576   2.377   2.238  13.521  0.6636  0.0041  0.5091
 5695TIP3    H238577   2.266   2.334  13.483  0.3478 -0.9962 -1.2106
 5696TIP3   OH238578   5.070   5.172  17.049 -0.1034 -0.0324  0.3497
 5696TIP3    H138579   5.088   5.179  16.955  0.0422 -0.9449  0.3004
 5696TIP3    H238580   5.046   5.261  17.076  0.7326  0.4171 -0.3631
 5697TIP3   OH238581   0.463   5.958  15.516  0.2610 -0.8316  0.9357
 5697TIP3    H138582   0.441   6.006  15.437  3.3996 -1.9632 -0.7835
 5697TIP3    H238583   0.391   5.977  15.577 -2.7064 -0.5125 -2.3750
 5698TIP3   OH238584   5.332   3.279   5.957 -0.1456  0.1534 -0.9225
 5698TIP3    H138585   5.372   3.306   5.874 -2.6429 -0.1844 -2.3380
 5698TIP3    H238586   5.360   3.188   5.968  0.9632  0.4804 -0.8594
 5699TIP3   OH238587   4.611   2.085   6.279  0.2825  0.0352  0.4813
 5699TIP3    H138588   4.613   2.178   6.253 -0.0633 -0.1501 -0.2335
 5699TIP3    H238589   4.703   2.062   6.290  0.4180  0.2671 -0.0860
 5700TIP3   OH238590   4.509   3.426  14.264  0.1731 -0.2349 -0.3143
 5700TIP3    H138591   4.474   3.345  14.300 -0.5158 -0.7082 -1.9696
 5700TIP3    H238592   4.596   3.402  14.231  0.2200 -0.1381 -0.2631
 5701TIP3   OH238593   1.345   6.475   2.524 -0.6248 -0.0065  0.0643
 5701TIP3    H138594   1.429   6.488   2.479  0.2265  1.9124  1.9874
 5701TIP3    H238595   1.357   6.395   2.575 -0.0039  0.1784  0.2193
 5702TIP3   OH238596   6.463   3.734  16.109  0.1175 -0.3773  0.5061
 5702TIP3    H138597   6.375   3.705  16.085  0.6932 -0.7086 -1.3703
 5702TIP3    H238598   6.508   3.747  16.026  1.6684  0.3931  1.4069
 5703TIP3   OH238599   3.539   3.201  14.802  0.0471 -0.1765  0.1074
 5703TIP3    H138600   3.544   3.255  14.723  0.8258 -0.8416 -0.3072
 5703TIP3    H238601   3.457   3.229  14.843  0.5167  1.4705  0.0266
 5704TIP3   OH238602   0.959   3.942  12.812  0.4521  0.7490  0.2990
 5704TIP3    H138603   1.020   3.910  12.878 -0.8479  0.7397  1.5704
 5704TIP3    H238604   0.968   3.882  12.739  0.8091 -0.2073  1.1114
 5705TIP3   OH238605   4.439   4.389   2.292  0.1187 -0.1126 -0.1670
 5705TIP3    H138606   4.471   4.461   2.346  0.3097 -0.5093  0.2587
 5705TIP3    H238607   4.397   4.329   2.355  0.1819 -0.4904 -0.4834
 5706TIP3   OH238608   0.181   0.522  13.340 -0.3216  0.2291 -0.3412
 5706TIP3    H138609   0.215   0.537  13.429 -0.4150  0.5011 -0.3505
 5706TIP3    H238610   0.115   0.591  13.328  0.4087  0.8285 -1.0020
 5707TIP3   OH238611   1.564   5.817  13.872  0.0643 -0.2132 -0.4452
 5707TIP3    H138612   1.625   5.752  13.907  1.0170  0.0926 -1.4713
 5707TIP3    H238613   1.608   5.852  13.795 -0.5032  1.5036 -0.0455
 5708TIP3   OH238614   3.027   3.930  16.496 -0.1235  0.3743  0.3851
 5708TIP3    H138615   3.114   3.961  16.474  0.3084 -1.1546 -0.2120
 5708TIP3    H238616   2.980   3.928  16.413  0.7597 -3.1172 -0.2070
 5709TIP3   OH238617   0.935   0.216  15.907  0.0404 -0.7198  0.0757
 5709TIP3    H138618   1.016   0.250  15.944  0.9367 -1.8022 -0.8162
 5709TIP3    H238619   0.905   0.151  15.970 -0.7690  0.4379  0.9472
 5710TIP3   OH238620   2.900   2.359   0.212  0.0666 -0.1635 -0.3308
 5710TIP3    H138621   2.850   2.311   0.146 -1.1106  1.2221 -0.4975
 5710TIP3    H238622   2.892   2.306   0.291  1.9589 -2.1381 -1.3484
 5711TIP3   OH238623   1.165   2.526   3.367  0.1987 -0.2457  0.2609
 5711TIP3    H138624   1.198   2.484   3.288 -0.0991  0.4309 -0.2376
 5711TIP3    H238625   1.236   2.586   3.393  0.2440 -0.3725  0.4293
 5712TIP3   OH238626   0.958   6.317  12.497 -0.1840  0.0873 -0.0368
 5712TIP3    H138627   0.872   6.317  12.539  0.0887 -1.0175  0.5568
 5712TIP3    H238628   0.938   6.325  12.403 -0.9372 -0.2534  0.0865
 5713TIP3   OH238629   6.663   2.692  14.939 -0.1264 -0.3295 -0.3766
 5713TIP3    H138630   6.715   2.739  14.874  0.9589 -0.5481  0.3049
 5713TIP3    H238631   6.727   2.646  14.992 -1.1134 -1.8302 -0.4348
 5714TIP3   OH238632   1.495   6.192  16.377  0.0383  0.3398  0.0900
 5714TIP3    H138633   1.429   6.260  16.371 -0.9074 -0.5359  0.2642
 5714TIP3    H238634   1.452   6.113  16.344  0.4709 -0.5824  1.5999
 5715TIP3   OH238635   6.306   6.608  11.076 -0.4640 -0.0337 -0.5839
 5715TIP3    H138636   6.349   6.657  11.006  1.0184 -1.7057 -0.9178
 5715TIP3    H238637   6.227   6.573  11.036 -0.2708  0.0565 -1.0496
 5716TIP3   OH238638   0.822   2.278  11.762  0.3031  0.3815 -0.2959
 5716TIP3    H138639   0.882   2.340  11.721  0.7499 -0.8306 -1.5631
 5716TIP3    H238640   0.743   2.328  11.779  0.4680  1.1782 -1.7675
 5717TIP3   OH238641   0.264   2.852   2.980  0.0538  0.1206 -0.6432
 5717TIP3    H138642   0.249   2.762   3.010  0.8397  0.6989  1.6953
 5717TIP3    H238643   0.194   2.903   3.022 -0.7793  0.5653 -2.4606
 5718TIP3   OH238644   1.286   1.347   6.243 -0.7747 -0.0348 -0.0800
 5718TIP3    H138645   1.373   1.323   6.273 -0.4823  2.0515  0.9053
 5718TIP3    H238646   1.301   1.405   6.168 -1.3700 -0.4404 -0.5331
 5719TIP3   OH238647   3.107   1.574  12.409 -0.0514 -0.3077 -0.0217
 5719TIP3    H138648   3.091   1.642  12.344  0.3208 -0.1542  0.0430
 5719TIP3    H238649   3.123   1.622  12.490 -0.2710 -0.4891  0.1284
 5720TIP3   OH238650   2.796   6.205  13.788  0.2996 -0.0618 -0.1110
 5720TIP3    H138651   2.859   6.255  13.840 -0.4446  0.2670  0.4831
 5720TIP3    H238652   2.711   6.240  13.813 -0.2867 -1.9505  0.6702
 5721TIP3   OH238653   1.235   0.003   3.613 -0.0284  0.0688 -0.5629
 5721TIP3    H138654   1.169  -0.041   3.559 -1.6965  1.4845  0.2359
 5721TIP3    H238655   1.240  -0.050   3.692 -1.4678  0.8029  0.0678
 5722TIP3   OH238656   3.205   0.758   4.506  0.2085  0.4385 -0.0059
 5722TIP3    H138657   3.259   0.742   4.428  2.3399 -0.4737  1.5553
 5722TIP3    H238658   3.191   0.671   4.543 -0.4151  0.8872  0.8431
 5723TIP3   OH238659   6.343   4.631   2.541  0.5524 -0.3685 -0.5008
 5723TIP3    H138660   6.299   4.568   2.598  0.1850  1.7252  1.6476
 5723TIP3    H238661   6.436   4.617   2.557  0.4841 -0.5270 -0.2394
 5724TIP3   OH238662   5.498   6.665  13.006 -0.3975  0.1331  0.1548
 5724TIP3    H138663   5.580   6.703  13.038 -1.4450  2.0679  0.6831
 5724TIP3    H238664   5.437   6.673  13.079 -0.8483 -2.2711  0.1520
 5725TIP3   OH238665   1.963   6.684  15.838 -0.3859  0.0804  0.2247
 5725TIP3    H138666   1.871   6.675  15.813 -0.5554  1.6521  0.1596
 5725TIP3    H238667   1.978   6.613  15.900 -1.5225 -0.4706 -0.1097
 5726TIP3   OH238668   6.038   2.070   4.058  0.6370  0.5648 -0.0168
 5726TIP3    H138669   6.007   2.133   4.123 -0.9064 -0.4476  0.2904
 5726TIP3    H238670   6.120   2.107   4.025  0.5050  2.0006  1.1765
 5727TIP3   OH238671   0.775   6.744  14.751 -0.5165 -0.1223 -0.9105
 5727TIP3    H138672   0.692   6.792  14.753  0.0472  0.8484  0.0190
 5727TIP3    H238673   0.799   6.742  14.658 -3.1781 -3.3451 -1.7521
 5728TIP3   OH238674   3.720   2.012  12.077 -0.1400  0.4861  0.1472
 5728TIP3    H138675   3.713   2.002  12.172  1.7117  1.7394  0.4818
 5728TIP3    H238676   3.686   2.100  12.059  2.1221  1.4311  0.1144
 5729TIP3   OH238677   1.355   1.707  15.338  0.5365  0.3772  0.0061
 5729TIP3    H138678   1.376   1.798  15.360  1.1323  0.4384 -0.7839
 5729TIP3    H238679   1.402   1.690  15.257  0.4289 -0.6406  0.1404
 5730TIP3   OH238680   5.449   5.627  15.035 -0.0231 -0.2096 -0.6689
 5730TIP3    H138681   5.424   5.678  14.958 -1.5297 -1.8792 -1.3509
 5730TIP3    H238682   5.513   5.564  15.002  0.8564  0.3509 -0.0923
 5731TIP3   OH238683   0.054   3.338  17.159  0.3305 -0.5358  0.6112
 5731TIP3    H138684   0.020   3.382  17.237 -0.5121 -3.5009  2.0565
 5731TIP3    H238685   0.135   3.295  17.189  0.4033 -1.1010 -0.3340
 5732TIP3   OH238686   1.368   6.799  11.315  0.2385 -0.1308 -0.1220
 5732TIP3    H138687   1.436   6.854  11.354  0.7668  0.3937 -1.7068
 5732TIP3    H238688   1.414   6.721  11.285  0.3294  0.5348 -1.8414
 5733TIP3   OH238689   6.568   3.372  15.191 -0.0628 -0.1198  0.2658
 5733TIP3    H138690   6.506   3.301  15.176  0.6592 -1.1391  1.8926
 5733TIP3    H238691   6.578   3.414  15.105 -1.9617 -0.7530 -0.3019
 5734TIP3   OH238692   0.872   1.640   1.462 -0.3364  0.8335 -0.4233
 5734TIP3    H138693   0.857   1.545   1.460 -1.0749  0.9510 -2.9799
 5734TIP3    H238694   0.875   1.661   1.556  0.6787 -1.8178  0.2300
 5735TIP3   OH238695   3.570   4.635   3.998 -0.4276  0.2403 -0.1164
 5735TIP3    H138696   3.635   4.601   4.060 -1.5006  1.5750  1.8788
 5735TIP3    H238697   3.563   4.568   3.930 -1.0907 -2.6816  2.5900
 5736TIP3   OH238698   6.089   0.589  11.647  0.3384  0.4284  0.0102
 5736TIP3    H138699   6.054   0.626  11.728  1.3421  0.4507  0.4487
 5736TIP3    H238700   6.106   0.665  11.591 -0.2663  0.4198 -0.1872
 5737TIP3   OH238701   3.607   1.549   2.927 -0.3631  0.0948 -0.1237
 5737TIP3    H138702   3.602   1.634   2.972 -0.1323  0.5175 -0.8885
 5737TIP3    H238703   3.521   1.540   2.885 -0.7128 -0.4720  0.6916
 5738TIP3   OH238704   4.084   1.646  16.981 -0.2856 -0.0703 -0.6014
 5738TIP3    H138705   4.016   1.677  16.922 -0.8621  0.0522  0.1172
 5738TIP3    H238706   4.160   1.700  16.961 -0.4881 -0.0011 -1.1931
 5739TIP3   OH238707   0.649   2.141   0.078 -0.4444  0.2985 -0.6434
 5739TIP3    H138708   0.693   2.093   0.148 -0.7182 -0.9228 -1.2955
 5739TIP3    H238709   0.604   2.212   0.124  0.8741  0.6419  0.2093
 5740TIP3   OH238710   2.816   0.750  14.575  0.0857  0.4789 -0.2149
 5740TIP3    H138711   2.902   0.716  14.551  0.4193 -0.3764  1.9211
 5740TIP3    H238712   2.802   0.824  14.517  2.7035  1.2237 -0.0049
 5741TIP3   OH238713   0.400   2.832  12.688  0.5237  0.4515 -0.7207
 5741TIP3    H138714   0.429   2.892  12.757  0.2686  0.2249 -0.4128
 5741TIP3    H238715   0.381   2.750  12.734 -1.4704  0.8394 -0.7364
 5742TIP3   OH238716   6.443   4.173  12.515  0.0548  0.3664 -0.2987
 5742TIP3    H138717   6.487   4.250  12.480 -0.4708  1.3063  1.0366
 5742TIP3    H238718   6.460   4.104  12.450  0.5421  1.5850 -1.5137
 5743TIP3   OH238719   4.141   0.909  15.693 -0.4306 -0.0529  1.5482
 5743TIP3    H138720   4.215   0.945  15.644  0.2072 -0.5055  2.1587
 5743TIP3    H238721   4.074   0.892  15.626  1.1571 -2.5678  0.4459
 5744TIP3   OH238722   4.102   5.946   6.626 -0.2682 -0.2025  0.1666
 5744TIP3    H138723   4.136   6.034   6.642  2.7682 -1.3277  0.6199
 5744TIP3    H238724   4.135   5.923   6.539  2.6641 -2.3219  1.6811
 5745TIP3   OH238725   1.293   5.904  14.903 -0.2834  0.1962  0.2927
 5745TIP3    H138726   1.309   5.945  14.988 -1.7704 -1.5024  1.4668
 5745TIP3    H238727   1.380   5.892  14.865  0.4006  1.1100  1.4983
 5746TIP3   OH238728   6.524   2.358   3.535 -0.2138  0.4848 -0.2054
 5746TIP3    H138729   6.553   2.317   3.617 -0.7890  0.1371 -0.1704
 5746TIP3    H238730   6.429   2.365   3.544 -0.4061 -0.4660 -1.2532
 5747TIP3   OH238731   5.294   1.329   0.317 -0.8414  0.0714  0.0924
 5747TIP3    H138732   5.260   1.302   0.232  0.4901 -0.6123 -0.2598
 5747TIP3    H238733   5.244   1.277   0.380  0.8516 -2.4765 -0.5173
 5748TIP3   OH238734   6.530   3.094   5.591 -0.2748 -0.2011  0.1485
 5748TIP3    H138735   6.490   3.039   5.658  0.0007 -0.7254 -0.1151
 5748TIP3    H238736   6.571   3.033   5.530 -0.4896  0.2708 -0.4856
 5749TIP3   OH238737   5.216   3.456  13.273 -0.2232  0.2158  0.2605
 5749TIP3    H138738   5.227   3.480  13.181  1.1449 -0.8080  0.1114
 5749TIP3    H238739   5.303   3.466  13.311 -0.8649  1.0557  1.5793
 5750TIP3   OH238740   5.384   0.697  14.540  0.4833  0.7455 -0.3513
 5750TIP3    H138741   5.305   0.662  14.497  1.3110 -1.2331 -0.3777
 5750TIP3    H238742   5.449   0.702  14.470  0.5653  1.8284 -0.2134
 5751TIP3   OH238743   6.580   3.896   0.002  0.2503  0.2447 -0.1674
 5751TIP3    H138744   6.533   3.868   0.080 -0.7078  0.8340 -0.5035
 5751TIP3    H238745   6.653   3.948   0.035  0.1459  0.0670  0.3489
 5752TIP3   OH238746   2.755   5.264   5.702 -0.3071 -0.0246 -0.4905
 5752TIP3    H138747   2.697   5.338   5.685 -1.8865 -0.8199  1.1020
 5752TIP3    H238748   2.752   5.253   5.798  1.6500 -0.7666 -0.4724
 5753TIP3   OH238749   2.780   4.445   2.821  0.1955 -0.3456  0.2285
 5753TIP3    H138750   2.699   4.394   2.827  1.5524 -2.7899 -0.7144
 5753TIP3    H238751   2.785   4.470   2.729  1.0848 -1.2936  0.0011
 5754TIP3   OH238752   1.324   4.095  12.035  0.0552  0.2989 -0.1416
 5754TIP3    H138753   1.390   4.059  11.975 -1.5191 -0.7796 -1.3289
 5754TIP3    H238754   1.331   4.040  12.113  1.0349  0.6605  0.0365
 5755TIP3   OH238755   4.112   2.969  14.009 -0.0032  0.0031 -0.4045
 5755TIP3    H138756   4.186   2.914  14.037 -0.3791 -1.6367 -2.3306
 5755TIP3    H238757   4.103   2.949  13.916 -1.7212  1.5804 -0.6150
 5756TIP3   OH238758   0.566   6.734   6.131  0.0331  0.6822  0.2623
 5756TIP3    H138759   0.534   6.669   6.193  1.4699  1.1327  1.5339
 5756TIP3    H238760   0.497   6.800   6.129  0.2367  1.0118  1.9773
 5757TIP3   OH238761   1.576   6.346   1.142  0.2542  0.2955  0.3075
 5757TIP3    H138762   1.508   6.389   1.195 -0.2510 -0.2826  0.1377
 5757TIP3    H238763   1.539   6.261   1.121  1.2135 -0.1942  0.5646
 5758TIP3   OH238764   0.391   1.686   5.862  0.7013 -0.7015  0.7778
 5758TIP3    H138765   0.397   1.763   5.919 -0.2741 -0.6026  0.7631
 5758TIP3    H238766   0.307   1.646   5.884  0.3930 -0.7650 -0.4499
 5759TIP3   OH238767   4.202   1.518  14.726  0.1990 -0.3557 -0.4621
 5759TIP3    H138768   4.231   1.583  14.662 -0.1718  0.4731  0.1752
 5759TIP3    H238769   4.247   1.438  14.703  0.4392  0.0579 -1.4626
 5760TIP3   OH238770   0.937   2.939   5.941 -0.3918 -0.0647  0.0757
 5760TIP3    H138771   1.007   2.894   5.893 -0.5681 -1.7279  1.2795
 5760TIP3    H238772   0.895   2.870   5.993 -2.0745  1.1399  0.4028
 5761TIP3   OH238773   4.178   2.159   4.716 -0.1087  0.3163  0.8420
 5761TIP3    H138774   4.094   2.163   4.761 -0.3574 -1.4073  0.6157
 5761TIP3    H238775   4.232   2.103   4.771  0.7413  1.0189  0.7407
 5762TIP3   OH238776   1.377   6.145  13.132 -0.5653 -0.2439 -0.5199
 5762TIP3    H138777   1.301   6.186  13.174 -0.0823  1.1062 -0.8946
 5762TIP3    H238778   1.442   6.137  13.202 -1.3011 -2.1793  0.0016
 5763TIP3   OH238779   6.478   5.189   2.604  0.2015 -0.2781  0.7191
 5763TIP3    H138780   6.408   5.254   2.614  0.3197 -0.0627  0.2023
 5763TIP3    H238781   6.441   5.124   2.543  0.1714 -0.5702  1.0476
 5764TIP3   OH238782   4.544   3.021  17.228  0.4610 -0.0195  0.7479
 5764TIP3    H138783   4.615   3.014  17.291  0.4549  0.1098  0.7682
 5764TIP3    H238784   4.587   3.048  17.147  0.4281  0.0954  0.7697
 5765TIP3   OH238785   6.676   1.435  10.466 -0.0164 -0.1782  0.0119
 5765TIP3    H138786   6.649   1.433  10.558 -0.0823  3.4587  0.2316
 5765TIP3    H238787   6.594   1.445  10.418  0.1872  1.3443 -0.0856
 5766TIP3   OH238788   6.672   3.586  14.432  0.5985 -0.1758  0.6546
 5766TIP3    H138789   6.718   3.590  14.516  1.5061  1.3445  0.1187
 5766TIP3    H238790   6.723   3.524  14.380  1.5173  0.7865  0.3867
 5767TIP3   OH238791   3.470   5.803   0.497  0.0509 -0.0618  0.8357
 5767TIP3    H138792   3.429   5.815   0.411  1.9698 -0.8231 -0.2587
 5767TIP3    H238793   3.491   5.892   0.526 -0.7493  0.2079  0.6019
 5768TIP3   OH238794   6.716   0.590  14.020 -0.1925 -0.1153  0.2797
 5768TIP3    H138795   6.793   0.599  14.076 -0.0512 -0.6184  0.1677
 5768TIP3    H238796   6.749   0.606  13.931 -0.5793  1.5833  0.3956
 5769TIP3   OH238797   5.221   2.869   2.593 -0.0216  0.3221  0.0563
 5769TIP3    H138798   5.307   2.894   2.626 -0.9569  2.0287  1.2855
 5769TIP3    H238799   5.161   2.884   2.666 -1.8531  2.2879 -1.7092
 5770TIP3   OH238800   6.103   3.483  11.234 -0.1351 -0.1615  0.0182
 5770TIP3    H138801   6.186   3.495  11.280 -0.1372  0.8459 -0.2063
 5770TIP3    H238802   6.107   3.394  11.200  0.6726 -0.2713  0.3693
 5771TIP3   OH238803   2.918   4.988   2.993 -0.0099  0.2772 -0.2374
 5771TIP3    H138804   3.004   4.946   3.004  0.0784  0.4243 -0.3485
 5771TIP3    H238805   2.868   4.926   2.940  0.4285  0.7178 -1.1806
 5772TIP3   OH238806   2.949   4.540   4.862 -0.0034  0.3807  0.2084
 5772TIP3    H138807   2.886   4.494   4.807 -0.4865  2.4580 -1.0713
 5772TIP3    H238808   2.897   4.606   4.909  0.5165 -0.8541  2.6901
 5773TIP3   OH238809   2.129   1.463   3.958 -0.3177  0.1522 -0.6134
 5773TIP3    H138810   2.113   1.533   4.021 -1.6250  0.0394 -0.7986
 5773TIP3    H238811   2.215   1.427   3.983 -1.0553 -0.2906  1.4677
 5774TIP3   OH238812   1.767   0.319  16.721  0.1197  0.2103 -0.3448
 5774TIP3    H138813   1.845   0.357  16.681  0.4641 -1.2504 -1.1415
 5774TIP3    H238814   1.701   0.318  16.652  0.0958 -0.5479 -0.3244
 5775TIP3   OH238815   5.327   4.936  14.394 -0.3705 -0.0301 -0.2501
 5775TIP3    H138816   5.246   4.984  14.408 -1.3125 -1.7832  0.5607
 5775TIP3    H238817   5.379   4.952  14.473 -0.3050  0.3258 -0.3610
 5776TIP3   OH238818   1.848   1.624  12.387  0.2148 -0.0688 -0.1840
 5776TIP3    H138819   1.844   1.668  12.302  0.0950  0.3947  0.0604
 5776TIP3    H238820   1.859   1.531  12.365  0.9946  0.1405 -0.6937
 5777TIP3   OH238821   0.536   1.811   4.708 -0.1448  0.4532 -0.4848
 5777TIP3    H138822   0.588   1.797   4.628 -1.1028 -1.9053 -0.7730
 5777TIP3    H238823   0.451   1.772   4.688 -0.7500  0.7702  1.3357
 5778TIP3   OH238824   1.292   2.162   4.140 -0.0126 -0.5952 -0.3283
 5778TIP3    H138825   1.299   2.133   4.231  3.2139  0.2582 -0.1867
 5778TIP3    H238826   1.199   2.182   4.129 -0.5526 -0.8355  2.7272
 5779TIP3   OH238827   1.755   2.386  13.392  0.3805 -0.5497 -0.3668
 5779TIP3    H138828   1.724   2.373  13.481 -2.1502 -0.9163 -1.2113
 5779TIP3    H238829   1.788   2.300  13.365 -2.0128 -1.4143 -0.8252
 5780TIP3   OH238830   0.536   0.669  12.987 -0.2708  0.5292 -0.5998
 5780TIP3    H138831   0.617   0.626  12.958 -0.3668  0.8279 -1.3211
 5780TIP3    H238832   0.508   0.617  13.062 -0.2517 -0.5297 -1.3027
 5781TIP3   OH238833   2.042   5.135  17.088 -0.3632 -0.1239  0.0164
 5781TIP3    H138834   2.124   5.121  17.040 -0.4369 -0.3200 -0.0539
 5781TIP3    H238835   2.053   5.086  17.169 -0.0551  0.5792  0.4112
 5782TIP3   OH238836   4.836   3.369  10.821  0.2248  0.0076 -0.2740
 5782TIP3    H138837   4.835   3.417  10.738  0.2299 -0.1342 -0.3571
 5782TIP3    H238838   4.747   3.379  10.855 -0.0629 -0.7195 -0.7581
 5783TIP3   OH238839   0.444   4.281  13.107 -0.0488 -0.0609  0.6185
 5783TIP3    H138840   0.380   4.220  13.072 -1.5897  1.6526  0.3096
 5783TIP3    H238841   0.435   4.360  13.053  2.2755  0.3060  0.6214
 5784TIP3   OH238842   3.790   6.069  13.948  0.6691  0.2302  0.1814
 5784TIP3    H138843   3.745   5.999  13.996 -1.5434  1.7125  0.3870
 5784TIP3    H238844   3.819   6.130  14.015 -1.1154  1.5645 -0.2005
 5785TIP3   OH238845   0.717   2.558  16.027 -0.1424  0.2726  0.3779
 5785TIP3    H138846   0.739   2.539  16.119  0.4300  1.5992  0.5397
 5785TIP3    H238847   0.798   2.590  15.989  0.1006 -1.8969 -1.1133
 5786TIP3   OH238848   4.162   5.744  13.294 -0.0760 -0.1530  0.6860
 5786TIP3    H138849   4.198   5.820  13.340  2.0784 -0.8574  0.2875
 5786TIP3    H238850   4.135   5.684  13.363 -0.4507  0.3604  0.9980
 5787TIP3   OH238851   1.003   0.661   6.538 -0.3503 -0.9467 -0.4241
 5787TIP3    H138852   0.952   0.649   6.457  0.7966 -0.6374 -1.2134
 5787TIP3    H238853   1.044   0.747   6.527  0.9332 -1.5097 -0.1504
 5788TIP3   OH238854   0.563   4.429  17.098 -0.1311 -0.4825  0.0663
 5788TIP3    H138855   0.621   4.431  17.174 -0.4707  1.0774  0.3077
 5788TIP3    H238856   0.559   4.520  17.068 -0.9307 -0.8850 -1.1095
 5789TIP3   OH238857   2.237   5.954   0.136  0.0872  0.2571 -0.3144
 5789TIP3    H138858   2.324   5.937   0.099  0.5181  0.2775  0.6404
 5789TIP3    H238859   2.254   5.970   0.229 -0.7435  2.0548 -0.4450
 5790TIP3   OH238860   4.093   4.708  15.676 -0.3371  0.1161 -0.4213
 5790TIP3    H138861   4.109   4.739  15.587  1.9169  1.4731  0.3721
 5790TIP3    H238862   4.108   4.613  15.671 -3.0006 -0.3168 -1.9812
 5791TIP3   OH238863   3.330   2.931  10.998 -0.4861 -0.4742  0.4237
 5791TIP3    H138864   3.300   2.954  10.911  1.3058 -1.0761 -0.3999
 5791TIP3    H238865   3.301   2.841  11.011 -1.3047 -0.1771  0.7346
 5792TIP3   OH238866   0.083   2.273   1.431  0.3003  0.2143  0.4694
 5792TIP3    H138867   0.060   2.223   1.352  0.2077 -1.2623  1.4048
 5792TIP3    H238868   0.171   2.305   1.414 -0.1778  0.9525 -0.7303
 5793TIP3   OH238869   2.132   0.761   1.522  0.1697  0.1394  0.6076
 5793TIP3    H138870   2.078   0.764   1.443 -0.9557 -0.2056  1.3530
 5793TIP3    H238871   2.099   0.686   1.571  1.0144  0.2115  1.3149
 5794TIP3   OH238872   0.397   6.618  14.796 -0.1045  0.2720 -0.3832
 5794TIP3    H138873   0.306   6.645  14.787  0.1159  0.7757 -1.1857
 5794TIP3    H238874   0.393   6.523  14.807 -0.7876  0.4180  0.8013
 5795TIP3   OH238875   1.530   0.344  13.354 -0.2094 -0.2768  0.0681
 5795TIP3    H138876   1.504   0.284  13.284  1.4008  0.6516 -1.4265
 5795TIP3    H238877   1.532   0.430  13.311 -1.7547  0.7757  1.9553
 5796TIP3   OH238878   2.883   2.811  16.614  0.0677 -0.0107 -0.2891
 5796TIP3    H138879   2.963   2.816  16.665  0.3603 -0.9353 -0.6224
 5796TIP3    H238880   2.909   2.763  16.535 -1.0756 -1.4294  0.1587
 5797TIP3   OH238881   2.177   2.043  13.504 -0.1426  0.0504  0.2414
 5797TIP3    H138882   2.130   1.963  13.483 -0.0008 -0.1083  0.5250
 5797TIP3    H238883   2.212   2.073  13.421 -0.8376  0.2332  0.0041
 5798TIP3   OH238884   0.221   0.110  10.151 -0.2023 -0.8457  0.5166
 5798TIP3    H138885   0.174   0.113  10.234 -2.1356 -1.0083 -0.5249
 5798TIP3    H238886   0.178   0.176  10.096  0.9548 -0.8227 -0.4128
 5799TIP3   OH238887   0.911   5.603   1.367  0.0391  0.3826 -0.3254
 5799TIP3    H138888   0.875   5.610   1.279  1.2232 -0.1545 -0.8807
 5799TIP3    H238889   0.957   5.685   1.380 -0.1641  0.4754 -0.1984
 5800TIP3   OH238890   3.522   3.835   5.027  0.0006 -0.6940  0.0902
 5800TIP3    H138891   3.543   3.806   5.116 -1.3668  0.9912  1.0531
 5800TIP3    H238892   3.478   3.919   5.040  0.0183 -0.2642 -2.2250
 5801TIP3   OH238893   1.391   0.041  16.667 -0.1545  0.5845  0.4766
 5801TIP3    H138894   1.376  -0.036  16.721 -1.0233  0.3911 -0.0123
 5801TIP3    H238895   1.466   0.085  16.707 -1.8160  1.4152  2.9141
 5802TIP3   OH238896   5.945   4.298   0.618  0.1474 -0.7513 -0.3014
 5802TIP3    H138897   5.964   4.298   0.524  0.2120  2.4587 -0.3783
 5802TIP3    H238898   5.869   4.356   0.627  1.5198  0.8405  1.8028
 5803TIP3   OH238899   3.220   5.955  16.772 -0.1887 -0.1881  0.3502
 5803TIP3    H138900   3.236   5.873  16.820  0.9610  0.3427  0.9151
 5803TIP3    H238901   3.259   6.022  16.827 -2.4858  0.9710  0.6768
 5804TIP3   OH238902   0.163   5.320  12.191  0.4990 -0.3461 -0.2423
 5804TIP3    H138903   0.075   5.343  12.161  0.2503 -0.2781  0.5332
 5804TIP3    H238904   0.204   5.404  12.212  0.8653 -0.3524 -0.9055
 5805TIP3   OH238905   2.806   3.869  17.082  0.1337  0.1118 -0.2408
 5805TIP3    H138906   2.741   3.848  17.015 -0.1807 -0.3625  0.2113
 5805TIP3    H238907   2.876   3.805  17.068 -1.1767 -1.8456  1.6426
 5806TIP3   OH238908   6.776   4.732   1.225  0.4103 -0.1313 -0.1419
 5806TIP3    H138909   6.734   4.774   1.300  0.5767 -0.9758  0.4456
 5806TIP3    H238910   6.755   4.639   1.235  3.4275 -0.8099  0.8877
 5807TIP3   OH238911   1.809   4.806  14.697  0.2157  0.1842 -0.2981
 5807TIP3    H138912   1.882   4.762  14.654  0.3284  1.3371 -1.3536
 5807TIP3    H238913   1.839   4.820  14.787  0.8973 -0.2234 -0.4520
 5808TIP3   OH238914   5.209   3.371  15.811 -0.0049  0.0312 -0.1561
 5808TIP3    H138915   5.294   3.390  15.770 -0.7619 -0.9820 -2.3692
 5808TIP3    H238916   5.212   3.417  15.895  1.9712  1.5915 -0.9930
 5809TIP3   OH238917   0.729   0.108   1.516  1.0532 -0.1424  0.3000
 5809TIP3    H138918   0.737   0.140   1.426 -0.2934  1.0141  0.5616
 5809TIP3    H238919   0.798   0.154   1.564  2.0172 -1.0371 -0.1773
 5810TIP3   OH238920   0.827   2.030  13.297 -0.3281 -0.0417  0.2289
 5810TIP3    H138921   0.786   1.958  13.249 -0.0007 -0.9749  1.3025
 5810TIP3    H238922   0.765   2.052  13.366 -1.4960  2.3289 -1.4424
 5811TIP3   OH238923   5.826   1.187   0.110  0.6632  0.2231 -0.3857
 5811TIP3    H138924   5.865   1.142   0.184  0.7317  0.1914 -0.4418
 5811TIP3    H238925   5.733   1.193   0.132  0.6864  0.2264 -0.2906
 5812TIP3   OH238926   6.308   5.660  11.151  0.0270 -0.0127 -0.3216
 5812TIP3    H138927   6.399   5.667  11.182 -0.2435  1.2172  0.2110
 5812TIP3    H238928   6.291   5.566  11.151  1.0475 -0.2144  0.3160
 5813TIP3   OH238929   3.652   2.156   5.701 -0.8192  0.5473 -0.0007
 5813TIP3    H138930   3.629   2.093   5.769  1.0230  0.6553  0.7726
 5813TIP3    H238931   3.651   2.104   5.620  2.2062 -0.9972  0.7959
 5814TIP3   OH238932   1.208   0.111  14.227  0.0784  0.0270 -0.0336
 5814TIP3    H138933   1.255   0.095  14.146 -2.2068  0.7301 -1.5892
 5814TIP3    H238934   1.119   0.078  14.211 -1.0305  2.0717  1.3850
 5815TIP3   OH238935   6.790   0.086   3.620  0.2230 -0.1346  0.0940
 5815TIP3    H138936   6.846   0.163   3.612  0.8971 -0.6379 -0.1572
 5815TIP3    H238937   6.843   0.014   3.586 -0.6761 -0.5857 -0.4028
 5816TIP3   OH238938   5.772   2.946  16.010  0.2137 -0.2122 -0.0844
 5816TIP3    H138939   5.813   2.989  16.086  1.7636 -0.4774 -0.7281
 5816TIP3    H238940   5.807   2.857  16.012 -0.4597 -0.4957 -0.5959
 5817TIP3   OH238941   6.104   3.610  12.165  0.1262  0.2764  0.6874
 5817TIP3    H138942   6.045   3.624  12.239 -1.9892 -2.8085 -0.2073
 5817TIP3    H238943   6.046   3.600  12.089  1.9688 -0.4809 -0.7050
 5818TIP3   OH238944   6.476   3.949  13.197 -0.1363  0.1066  0.3324
 5818TIP3    H138945   6.440   3.880  13.253  1.5409 -0.1052  1.2153
 5818TIP3    H238946   6.554   3.979  13.243 -0.2812  1.9270 -0.5336
 5819TIP3   OH238947   0.379   4.619  12.424 -0.1332  0.2096 -0.0656
 5819TIP3    H138948   0.388   4.524  12.415  1.8207  0.4125 -0.8527
 5819TIP3    H238949   0.331   4.647  12.346 -2.0227 -0.2351  0.8790
 5820TIP3   OH238950   6.548   3.971   3.224 -0.4727  0.0201 -0.0376
 5820TIP3    H138951   6.634   3.940   3.251 -0.2736  1.3238  0.9578
 5820TIP3    H238952   6.486   3.908   3.262  0.0055 -0.4272 -0.0037
 5821TIP3   OH238953   2.782   6.411   2.251  0.5807 -0.4014 -0.8836
 5821TIP3    H138954   2.829   6.452   2.324  0.8620  1.6612 -2.1350
 5821TIP3    H238955   2.693   6.400   2.283  0.7319  0.3424 -0.1559
 5822TIP3   OH238956   5.126   1.879   5.634  0.2140  0.3908 -0.0528
 5822TIP3    H138957   5.147   1.875   5.727  0.7688 -1.1908 -0.2150
 5822TIP3    H238958   5.178   1.952   5.600  1.5465 -0.2738  0.5152
 5823TIP3   OH238959   5.742   3.056   2.639  0.2052 -0.3555 -0.3851
 5823TIP3    H138960   5.727   3.049   2.734 -1.6585  1.3163 -0.4795
 5823TIP3    H238961   5.833   3.085   2.631 -0.0704  1.0074  0.9942
 5824TIP3   OH238962   6.615   4.862  12.894  0.0613 -0.1145 -0.5880
 5824TIP3    H138963   6.622   4.843  12.800 -0.8260 -2.2195 -0.2973
 5824TIP3    H238964   6.690   4.816  12.933  0.4180  0.7360 -0.2386
 5825TIP3   OH238965   5.447   6.580  16.570 -0.4069  0.3953  0.2467
 5825TIP3    H138966   5.540   6.557  16.562  0.3736  3.2935 -0.2845
 5825TIP3    H238967   5.447   6.675  16.579 -3.3661  0.4892  0.2277
 5826TIP3   OH238968   3.600   3.740   5.272  0.3193 -0.7648 -0.0785
 5826TIP3    H138969   3.606   3.793   5.352 -0.2682 -0.2520 -0.3638
 5826TIP3    H238970   3.661   3.668   5.287  0.1485 -0.7287  0.8719
 5827TIP3   OH238971   1.001   3.300  17.234  0.0243 -0.2563 -0.2148
 5827TIP3    H138972   0.948   3.376  17.259  0.1352  0.4354 -1.9657
 5827TIP3    H238973   1.056   3.283  17.311 -2.7127 -1.0484  1.7019
 5828TIP3   OH238974   3.933   0.292  13.153 -0.2272  0.1990 -0.0867
 5828TIP3    H138975   3.841   0.314  13.171 -0.1632  0.3633  0.0389
 5828TIP3    H238976   3.983   0.349  13.211  0.0704  2.1118 -2.1216
 5829TIP3   OH238977   4.312   1.014   4.857  0.7020  0.1294 -0.2433
 5829TIP3    H138978   4.399   1.022   4.819  0.6313  0.9666 -0.2558
 5829TIP3    H238979   4.268   0.947   4.805  2.0403 -1.9218  1.1177
 5830TIP3   OH238980   1.175   1.666   3.176 -0.0976  0.8099 -0.1413
 5830TIP3    H138981   1.202   1.707   3.258  1.1036  1.5372 -0.8723
 5830TIP3    H238982   1.103   1.721   3.145  0.2721  1.2754 -0.1890
 5831TIP3   OH238983   6.218   6.590  12.651 -0.2288  0.3066 -0.6513
 5831TIP3    H138984   6.208   6.616  12.559 -1.3154  1.2704 -0.2895
 5831TIP3    H238985   6.267   6.662  12.691 -0.3022  0.1902 -0.3523
 5832TIP3   OH238986   5.163   6.384   5.207 -0.7389 -0.0146  0.2856
 5832TIP3    H138987   5.165   6.462   5.152  0.3098  0.7850  1.3769
 5832TIP3    H238988   5.201   6.315   5.153  0.4840  0.8049  0.0529
 5833TIP3   OH238989   2.102   1.252   4.662 -1.0868 -0.1359  0.5407
 5833TIP3    H138990   2.125   1.225   4.751 -0.6808 -1.5663  0.0176
 5833TIP3    H238991   2.043   1.183   4.631  0.2367 -0.6383 -0.9553
 5834TIP3   OH238992   3.732   0.740  11.643 -0.0387  0.3430  0.7373
 5834TIP3    H138993   3.781   0.703  11.716  0.4161 -0.0891  0.2211
 5834TIP3    H238994   3.643   0.750  11.676  0.6665  2.5134  2.1718
 5835TIP3   OH238995   4.782   3.662  15.156  0.4785  0.1907 -0.4970
 5835TIP3    H138996   4.831   3.585  15.124  2.0642  1.4754 -1.2981
 5835TIP3    H238997   4.811   3.673  15.246  0.8880  0.3103 -0.6377
 5836TIP3   OH238998   6.170   5.006  10.587 -0.3764 -0.6874 -0.0598
 5836TIP3    H138999   6.181   5.008  10.682  0.5110 -1.4384 -0.1306
 5836TIP3    H239000   6.227   5.076  10.555 -0.5219 -0.5660 -0.0541
 5837TIP3   OH239001   3.044   4.849  14.158  0.1046  0.2931  0.0689
 5837TIP3    H139002   3.006   4.919  14.211  1.9447  0.6002  1.0659
 5837TIP3    H239003   3.138   4.853  14.177  0.3859 -1.8119 -0.6276
 5838TIP3   OH239004   2.180   4.143   6.391 -0.2342  0.4503 -0.3244
 5838TIP3    H139005   2.096   4.167   6.431  0.0544 -0.1706  0.6822
 5838TIP3    H239006   2.201   4.218   6.334 -1.8186  0.2841 -1.1880
 5839TIP3   OH239007   3.927   4.086  12.322 -0.1742 -0.1018  0.3571
 5839TIP3    H139008   3.997   4.115  12.263 -1.2121  0.4421 -0.6484
 5839TIP3    H239009   3.949   4.124  12.406 -0.7419  2.5167 -0.5854
 5840TIP3   OH239010   3.637   5.072  15.997 -0.5962 -0.2036  0.8856
 5840TIP3    H139011   3.659   5.046  15.907  0.8510  0.8167  0.9116
 5840TIP3    H239012   3.623   4.989  16.043 -1.5070 -0.7354 -0.3014
 5841TIP3   OH239013   1.138   4.967   4.181 -0.0349 -0.1975 -0.2924
 5841TIP3    H139014   1.167   5.058   4.185 -1.6220  0.4307 -1.7381
 5841TIP3    H239015   1.204   4.924   4.126  1.2790 -0.2061  1.2199
 5842TIP3   OH239016   2.951   0.225   3.319 -0.2124 -0.6859 -0.3043
 5842TIP3    H139017   2.996   0.235   3.403 -1.6207  0.6468  0.3597
 5842TIP3    H239018   2.874   0.282   3.327 -0.8593 -1.2307 -2.1722
 5843TIP3   OH239019   5.374   0.459  10.589 -0.5853 -0.1547 -0.6076
 5843TIP3    H139020   5.414   0.384  10.546  0.6041  0.3931 -0.4981
 5843TIP3    H239021   5.372   0.436  10.682 -0.3410 -0.1102 -0.5903
 5844TIP3   OH239022   0.213   1.568   1.922  0.6689 -0.1651  0.1791
 5844TIP3    H139023   0.234   1.604   2.009  0.0428  1.8252 -0.4467
 5844TIP3    H239024   0.288   1.594   1.868  0.6131 -0.5840 -0.0979
 5845TIP3   OH239025   3.650   4.641   2.804 -0.1550  0.0843  0.9159
 5845TIP3    H139026   3.693   4.564   2.841 -1.0156 -0.5506  0.6111
 5845TIP3    H239027   3.628   4.695   2.881 -0.9384 -0.7026  1.2558
 5846TIP3   OH239028   6.582   0.613   0.096  0.1971 -0.2232  0.3025
 5846TIP3    H139029   6.500   0.622   0.145  0.9367  0.7664  1.4140
 5846TIP3    H239030   6.650   0.607   0.163  1.2360  1.0162 -0.5760
 5847TIP3   OH239031   6.054   3.388  16.502  0.5080  0.6634  0.0138
 5847TIP3    H139032   6.067   3.362  16.593 -0.5471  0.9950  0.2635
 5847TIP3    H239033   5.968   3.354  16.479  1.5384 -1.1524 -1.4873
 5848TIP3   OH239034   1.883   1.939   3.775 -0.0918  0.4839 -0.3604
 5848TIP3    H139035   1.958   1.989   3.742 -0.3278  0.1337 -1.4581
 5848TIP3    H239036   1.919   1.851   3.792  0.1132  0.7602  0.6970
 5849TIP3   OH239037   2.540   5.511  12.318 -0.5508 -0.0788  0.1438
 5849TIP3    H139038   2.614   5.537  12.264 -1.0928 -1.5972 -1.4221
 5849TIP3    H239039   2.492   5.592  12.334 -0.5178  0.4061 -1.9253
 5850TIP3   OH239040   6.714   6.569   6.477 -0.6792  0.3709  0.1224
 5850TIP3    H139041   6.771   6.550   6.552 -0.1931 -0.3633 -0.4156
 5850TIP3    H239042   6.667   6.487   6.461 -2.2175  1.0806  0.8079
 5851TIP3   OH239043   2.332   4.873   6.116  0.9822  0.0101  0.1586
 5851TIP3    H139044   2.321   4.828   6.200  0.2298  1.2580  0.7740
 5851TIP3    H239045   2.310   4.964   6.136 -1.9875 -0.1016 -1.9605
 5852TIP3   OH239046   6.669   4.474   1.149  0.1393  0.1856 -0.1110
 5852TIP3    H139047   6.745   4.457   1.094  0.1030 -2.3785  0.5050
 5852TIP3    H239048   6.598   4.426   1.108 -0.4123  0.0641  0.9471
 5853TIP3   OH239049   3.506   1.399  12.275 -0.1928  0.5910  0.3790
 5853TIP3    H139050   3.417   1.376  12.247  0.5420 -1.5781 -0.4588
 5853TIP3    H239051   3.559   1.382  12.197  0.7515  4.0728  0.1002
 5854TIP3   OH239052   2.574   1.585   5.456  0.4999 -0.1369 -0.2030
 5854TIP3    H139053   2.526   1.550   5.382  1.2109 -1.3882 -0.1053
 5854TIP3    H239054   2.556   1.679   5.455 -0.0641 -0.2450 -1.5233
 5855TIP3   OH239055   1.572   6.705   2.495  0.1893  0.6031  0.4397
 5855TIP3    H139056   1.640   6.761   2.532 -0.1252  0.5013  1.1899
 5855TIP3    H239057   1.620   6.632   2.456  0.4917  0.1657  1.5842
 5856TIP3   OH239058   4.416   6.040   5.631 -0.1239  0.7691  0.0230
 5856TIP3    H139059   4.430   5.966   5.572 -0.2086 -1.0220  2.1367
 5856TIP3    H239060   4.336   6.017   5.679 -0.1018  2.2057  0.8009
 5857TIP3   OH239061   5.335   4.314   1.300 -0.1439 -0.3421 -0.7844
 5857TIP3    H139062   5.422   4.333   1.335 -0.4229  0.6679 -0.5878
 5857TIP3    H239063   5.282   4.289   1.376 -0.1531 -0.4304 -0.8203
 5858TIP3   OH239064   1.628   0.489   1.114  0.1082 -0.2355 -0.0952
 5858TIP3    H139065   1.563   0.483   1.044 -0.0976 -1.8262  0.2001
 5858TIP3    H239066   1.679   0.408   1.107  2.3487  1.0966 -0.5441
 5859TIP3   OH239067   3.479   4.587   5.260  0.2119  0.1760 -0.0930
 5859TIP3    H139068   3.474   4.499   5.297  1.1732  0.1302 -0.0448
 5859TIP3    H239069   3.513   4.573   5.172 -0.1729  0.4601 -0.2906
 5860TIP3   OH239070   0.606   6.750   2.634 -0.1959  0.3136  0.3951
 5860TIP3    H139071   0.567   6.749   2.721 -0.1409 -0.4594  0.4193
 5860TIP3    H239072   0.700   6.745   2.649 -0.1868  0.1682  0.2986
 5861TIP3   OH239073   1.277   4.519  15.693  0.2465  0.0974  0.6830
 5861TIP3    H139074   1.330   4.526  15.613 -0.8430 -0.7872 -0.1615
 5861TIP3    H239075   1.339   4.491  15.760  0.9789 -0.2452 -0.1104
 5862TIP3   OH239076   5.400   4.063   3.131 -0.0853  0.3177  0.0984
 5862TIP3    H139077   5.488   4.027   3.124 -0.2336 -0.0423  0.0631
 5862TIP3    H239078   5.344   3.999   3.088 -0.4988  0.0047  1.0644
 5863TIP3   OH239079   6.055   5.438   2.022 -0.7707  0.3486  0.0696
 5863TIP3    H139080   6.140   5.411   2.055 -1.0094  1.3662  1.6100
 5863TIP3    H239081   6.065   5.437   1.927  1.4520  1.8847  0.2125
 5864TIP3   OH239082   3.245   2.085  14.601  0.1144 -0.0782 -0.1107
 5864TIP3    H139083   3.150   2.094  14.611  0.1333  1.2791 -0.8943
 5864TIP3    H239084   3.262   2.107  14.510  1.0319 -1.9707 -0.4487
 5865TIP3   OH239085   6.557   4.079  10.687 -0.0189 -0.0056 -0.2768
 5865TIP3    H139086   6.478   4.091  10.741 -0.3959 -0.7679 -0.6457
 5865TIP3    H239087   6.589   4.168  10.672 -0.7199  0.3073  0.0103
 5866TIP3   OH239088   5.157   5.088   4.791 -0.2416 -0.8976  0.0212
 5866TIP3    H139089   5.155   5.093   4.887 -0.4151 -0.1154 -0.0158
 5866TIP3    H239090   5.103   5.011   4.770 -2.7547  0.6450  0.4451
 5867TIP3   OH239091   6.124   5.348  11.279  0.7501  0.5847 -0.3006
 5867TIP3    H139092   6.193   5.366  11.342  0.5058  1.9079 -0.3784
 5867TIP3    H239093   6.161   5.375  11.195  1.0315 -1.0564 -0.7352
 5868TIP3   OH239094   3.231   4.296   5.699 -0.2153  0.5360 -0.3073
 5868TIP3    H139095   3.200   4.273   5.611 -0.1216  1.1748 -0.5104
 5868TIP3    H239096   3.310   4.349   5.684 -1.0846  2.0026  0.1149
 5869TIP3   OH239097   0.003   3.407   4.394  0.1577  0.0816 -0.3842
 5869TIP3    H139098  -0.060   3.432   4.462  1.1304 -1.0326  0.9692
 5869TIP3    H239099   0.006   3.312   4.398  3.4626  0.1009  1.1165
 5870TIP3   OH239100   2.364   4.894   4.439  0.1279 -0.2103 -0.7158
 5870TIP3    H139101   2.391   4.977   4.398 -0.3568  1.3561  1.9007
 5870TIP3    H239102   2.321   4.920   4.520 -0.7198 -3.0451 -0.1426
 5871TIP3   OH239103   0.365   0.331   5.642 -0.1326 -0.4312 -0.0122
 5871TIP3    H139104   0.344   0.422   5.662 -0.4480 -0.7192  1.0296
 5871TIP3    H239105   0.336   0.282   5.719  0.3524 -1.3724 -0.4085
 5872TIP3   OH239106   2.600   0.917   1.264  0.3327  0.5637  0.1507
 5872TIP3    H139107   2.681   0.918   1.315  1.1250  0.9363 -1.0643
 5872TIP3    H239108   2.530   0.916   1.329  1.2487 -3.5056  1.3412
 5873TIP3   OH239109   4.069   2.046   3.138 -0.3479 -0.1592  0.1755
 5873TIP3    H139110   4.037   2.044   3.048  0.8960 -0.9563 -0.2863
 5873TIP3    H239111   4.054   1.958   3.171  0.2992 -0.2267  0.3175
 5874TIP3   OH239112   1.659   2.288  13.653  0.2745 -0.0400  0.2139
 5874TIP3    H139113   1.723   2.311  13.721  0.3727 -0.2256  0.1842
 5874TIP3    H239114   1.624   2.203  13.680 -0.4589  0.3709  0.5924
 5875TIP3   OH239115   5.206   5.310  14.986 -0.2419 -0.1969  0.1630
 5875TIP3    H139116   5.147   5.252  14.938 -0.4205  1.8066 -2.2645
 5875TIP3    H239117   5.156   5.391  14.996  1.1216  0.6245  0.5000
 5876TIP3   OH239118   4.183   6.211   6.652  0.1517 -0.5511  0.5078
 5876TIP3    H139119   4.097   6.239   6.620 -0.2645 -2.3084 -0.0631
 5876TIP3    H239120   4.244   6.276   6.617 -0.9674  0.9232  1.2184
 5877TIP3   OH239121   5.725   1.625   0.296  0.5230 -0.4689  0.1317
 5877TIP3    H139122   5.745   1.572   0.219 -2.4852 -3.3012  1.0764
 5877TIP3    H239123   5.741   1.567   0.370  0.2149  1.0758  1.4704
 5878TIP3   OH239124   1.183   4.432   1.415  0.3120  0.4285  0.7002
 5878TIP3    H139125   1.171   4.525   1.395  0.3812  0.1888 -0.5780
 5878TIP3    H239126   1.113   4.388   1.367  0.0974 -0.1691  1.5368
 5879TIP3   OH239127   1.272   1.052   1.210 -0.0801  0.5163  0.1908
 5879TIP3    H139128   1.241   1.009   1.290 -1.4742 -1.1794 -1.1803
 5879TIP3    H239129   1.270   1.145   1.231 -0.6928  0.1398  2.0203
 5880TIP3   OH239130   6.028   6.213  10.726 -0.5262 -0.0235  0.5420
 5880TIP3    H139131   6.020   6.172  10.812 -1.0902 -0.4971  0.2689
 5880TIP3    H239132   6.062   6.143  10.670  1.7165  0.8030  0.7802
 5881TIP3   OH239133   6.768   4.502  11.426  0.6381 -0.3252 -0.1628
 5881TIP3    H139134   6.781   4.594  11.403  1.6470 -0.3365  0.3178
 5881TIP3    H239135   6.763   4.457  11.342  0.3730  0.1393 -0.3972
 5882TIP3   OH239136   1.638   4.169   1.080 -0.5419  0.4774 -0.1160
 5882TIP3    H139137   1.686   4.251   1.068  0.2954  0.0493  0.2842
 5882TIP3    H239138   1.557   4.196   1.124  0.9394  0.7932  2.5943
 5883TIP3   OH239139   3.232   4.698   5.083 -0.6279 -0.3428 -0.1319
 5883TIP3    H139140   3.169   4.770   5.089 -2.0614 -1.6093  0.8983
 5883TIP3    H239141   3.305   4.725   5.139 -1.7237 -0.1831  1.2813
 5884TIP3   OH239142   3.160   0.025   5.432  0.1990 -0.0408 -0.0595
 5884TIP3    H139143   3.194   0.112   5.413  0.1321  0.0475  0.2213
 5884TIP3    H239144   3.222  -0.035   5.391  0.3231  0.1351 -0.1275
 5885TIP3   OH239145   2.426   2.879  15.661  0.5163  0.0007 -0.2689
 5885TIP3    H139146   2.508   2.838  15.688  1.6054  1.7381 -0.7219
 5885TIP3    H239147   2.409   2.945  15.728  0.9657  1.4558 -1.5178
 5886TIP3   OH239148   5.673   4.556  16.054 -0.4578 -0.2471 -0.3663
 5886TIP3    H139149   5.581   4.534  16.043 -0.4904 -0.0560 -0.4734
 5886TIP3    H239150   5.678   4.650  16.038  0.0417 -0.5523 -2.2601
 5887TIP3   OH239151   2.363   3.056  17.213 -0.3824 -0.6769  0.8794
 5887TIP3    H139152   2.350   3.134  17.159 -0.5358 -1.5489 -0.4009
 5887TIP3    H239153   2.329   3.079  17.299  0.8327  1.1277  0.9178
 5888TIP3   OH239154   5.969   2.655   2.325  0.2943  0.0863  0.2192
 5888TIP3    H139155   5.883   2.612   2.321  0.5972 -0.5660  0.6710
 5888TIP3    H239156   5.955   2.740   2.282 -0.8679  0.4711  1.3235
 5889TIP3   OH239157   6.378   4.552   5.288  0.3998 -0.2238 -0.1718
 5889TIP3    H139158   6.445   4.608   5.328 -0.5585  0.0511  1.1133
 5889TIP3    H239159   6.423   4.470   5.270  1.6001  0.6219 -1.2345
 5890TIP3   OH239160   3.155   3.625   1.659  0.0334  0.1947 -0.1503
 5890TIP3    H139161   3.231   3.643   1.604 -0.6712 -1.4784 -1.7899
 5890TIP3    H239162   3.105   3.707   1.659  0.3808  0.4271 -1.4815
 5891TIP3   OH239163   4.519   2.079  17.255 -0.0668  0.4027  0.0126
 5891TIP3    H139164   4.552   2.114  17.338  0.6667 -1.5928  0.6383
 5891TIP3    H239165   4.463   2.148  17.220 -0.4961  1.2646  2.2365
 5892TIP3   OH239166   3.696   3.352   3.715 -0.7203  0.2090 -0.4363
 5892TIP3    H139167   3.756   3.301   3.768 -0.9199 -0.9524 -1.2916
 5892TIP3    H239168   3.624   3.375   3.774  0.0170  0.6790  0.2990
 5893TIP3   OH239169   0.571   6.195   4.684  0.1701  0.2029 -0.0934
 5893TIP3    H139170   0.521   6.230   4.758 -1.3429  1.3399 -1.5781
 5893TIP3    H239171   0.544   6.104   4.678 -0.1045  0.2449  0.4272
 5894TIP3   OH239172   2.018   4.047   4.407 -0.2391  0.2039  0.2419
 5894TIP3    H139173   1.968   3.968   4.428 -0.1631  0.1184  0.1030
 5894TIP3    H239174   2.092   4.015   4.356 -0.2874  0.3799  0.0596
 5895TIP3   OH239175   4.427   1.501  14.167 -0.1380  0.0758  0.3424
 5895TIP3    H139176   4.497   1.475  14.227  0.2274 -0.1073 -0.1590
 5895TIP3    H239177   4.401   1.588  14.197  1.1704  0.6854 -0.2319
 5896TIP3   OH239178   4.754   0.544  15.647 -0.1420  0.5798 -0.2805
 5896TIP3    H139179   4.755   0.458  15.603  0.2561 -0.1259  1.0480
 5896TIP3    H239180   4.714   0.526  15.732  0.6257  1.5683  0.2992
 5897TIP3   OH239181   4.582   0.543   1.864  0.3343 -0.5810  0.2934
 5897TIP3    H139182   4.573   0.472   1.929  0.8049 -0.8449  0.0741
 5897TIP3    H239183   4.675   0.563   1.863  0.3282 -0.5817 -0.3098
 5898TIP3   OH239184   6.363   1.892   2.455 -0.1413 -0.1103  0.1110
 5898TIP3    H139185   6.408   1.885   2.539 -0.3524  2.6254  0.5417
 5898TIP3    H239186   6.270   1.881   2.476 -0.1454 -0.0564  0.1201
 5899TIP3   OH239187   4.142   1.594   3.526  0.6937 -0.0677  0.3514
 5899TIP3    H139188   4.130   1.657   3.597 -1.1251 -0.2091  0.2123
 5899TIP3    H239189   4.201   1.637   3.465  0.1542  1.1693  0.6625
 5900TIP3   OH239190   6.465   5.957  15.085  0.6352 -0.4232 -0.2869
 5900TIP3    H139191   6.536   5.942  15.024 -0.0568  1.8577 -1.7725
 5900TIP3    H239192   6.443   6.050  15.075 -0.9428 -0.4735  1.8761
 5901TIP3   OH239193   4.799   4.009   0.002 -0.0271  0.4034  0.3419
 5901TIP3    H139194   4.805   3.983  -0.090  1.8042  2.0590 -0.0688
 5901TIP3    H239195   4.715   3.973   0.031  0.7416 -2.8312 -1.0494
 5902TIP3   OH239196   2.871   0.830  17.245  0.9616  0.0215 -0.4146
 5902TIP3    H139197   2.961   0.828  17.212  0.3951 -1.3091 -1.9795
 5902TIP3    H239198   2.816   0.824  17.167 -0.5020  0.2355  0.5509
 5903TIP3   OH239199   2.502   2.277   0.208  0.3654 -0.4143  0.0316
 5903TIP3    H139200   2.446   2.204   0.233  0.7373 -0.6011  0.3419
 5903TIP3    H239201   2.558   2.242   0.138  0.5386 -0.4223  0.1744
 5904TIP3   OH239202   3.543   0.972  13.955 -0.1679  0.4536  0.3572
 5904TIP3    H139203   3.478   1.028  13.998 -0.6665 -0.8490  1.3697
 5904TIP3    H239204   3.575   0.914  14.025 -0.7259 -1.4976 -0.9166
 5905TIP3   OH239205   3.977   5.324   2.130 -0.4373 -0.3894  0.7504
 5905TIP3    H139206   3.998   5.415   2.148  0.4540 -0.1507 -1.2664
 5905TIP3    H239207   3.887   5.325   2.100 -0.3832 -0.1561  0.5985
 5906TIP3   OH239208   5.407   1.854   2.356  0.0883 -0.0082 -0.5990
 5906TIP3    H139209   5.387   1.895   2.440  0.2051  0.5832 -0.8562
 5906TIP3    H239210   5.327   1.806   2.333  0.6968 -1.8205  0.7783
 5907TIP3   OH239211   4.594   0.731   2.682 -0.3049 -0.1584  0.2657
 5907TIP3    H139212   4.597   0.655   2.624  0.2735  1.5465 -2.0925
 5907TIP3    H239213   4.563   0.803   2.627 -1.7732  1.1683  2.6431
 5908TIP3   OH239214   2.989   2.915   4.109 -0.5125 -1.9187 -0.0844
 5908TIP3    H139215   3.058   2.968   4.069 -2.4495 -0.3668 -1.5460
 5908TIP3    H239216   3.031   2.874   4.185  1.7362 -0.2960 -0.3637
 5909TIP3   OH239217   6.116   2.750  16.273 -0.5277 -0.8435  0.0127
 5909TIP3    H139218   6.059   2.697  16.217  0.0833  0.0950 -1.5548
 5909TIP3    H239219   6.203   2.739  16.236  0.2848 -1.8079  2.0372
 5910TIP3   OH239220   5.903   5.250  11.596  0.1561  0.2256 -0.2189
 5910TIP3    H139221   5.863   5.167  11.569 -1.9146  1.2735 -0.5529
 5910TIP3    H239222   5.830   5.310  11.606  1.6370  2.1793 -0.4909
 5911TIP3   OH239223   0.637   2.416  14.048  0.3175  0.3605  0.2657
 5911TIP3    H139224   0.589   2.499  14.056 -0.0111  0.1360  0.6661
 5911TIP3    H239225   0.652   2.388  14.138 -1.2614 -0.9757  0.1618
 5912TIP3   OH239226   2.516   5.333   1.048  0.5296 -0.3103 -0.3038
 5912TIP3    H139227   2.528   5.428   1.059  0.8159 -0.5404  1.7138
 5912TIP3    H239228   2.549   5.315   0.960 -0.3501  1.5864 -1.0690
 5913TIP3   OH239229   2.325   3.433  16.117  0.3693 -0.4975 -0.0621
 5913TIP3    H139230   2.296   3.365  16.055  0.1055  0.5263 -1.1057
 5913TIP3    H239231   2.371   3.385  16.186 -1.2268 -1.8980  0.0969
 5914TIP3   OH239232   4.832   6.690  11.435 -0.5956 -0.3736 -0.1555
 5914TIP3    H139233   4.796   6.684  11.524 -0.5207 -0.9015 -0.1603
 5914TIP3    H239234   4.819   6.603  11.398  0.9881 -0.6788 -0.0460
 5915TIP3   OH239235   3.288   3.676   4.971  0.1801  0.1639 -0.5092
 5915TIP3    H139236   3.294   3.590   5.012  2.1485  0.8479  0.7751
 5915TIP3    H239237   3.376   3.712   4.977 -0.9050  2.9426  0.5328
 5916TIP3   OH239238   5.473   1.194   3.899  0.4559 -0.4714 -0.2437
 5916TIP3    H139239   5.417   1.271   3.887 -0.3562 -1.2251 -1.5438
 5916TIP3    H239240   5.562   1.226   3.888  0.2719  0.6576  1.3298
 5917TIP3   OH239241   4.522   4.253  16.231  0.1868  0.3764  0.4560
 5917TIP3    H139242   4.429   4.235  16.244  0.0540  1.3371  0.9836
 5917TIP3    H239243   4.563   4.229  16.314  0.5751 -0.9258 -0.0834
 5918TIP3   OH239244   5.178   0.962  12.922  0.1640  0.4577 -0.1876
 5918TIP3    H139245   5.121   0.966  12.846 -0.6316 -0.5644  0.3288
 5918TIP3    H239246   5.206   0.870  12.927  0.2445  0.5147  0.7100
 5919TIP3   OH239247   0.930   3.439  15.606  0.6911 -0.1930 -0.0960
 5919TIP3    H139248   0.879   3.397  15.537  0.0914 -1.2227  0.9284
 5919TIP3    H239249   1.014   3.395  15.604  1.4295  1.1983 -1.4923
 5920TIP3   OH239250   4.527   1.867  16.112  0.2043 -0.0084 -0.0496
 5920TIP3    H139251   4.460   1.864  16.044 -2.3067 -0.5939  2.2918
 5920TIP3    H239252   4.570   1.951  16.100 -2.7838  1.6477 -0.0828
 5921TIP3   OH239253   1.571   6.152  11.668  0.0284 -0.4508  0.1748
 5921TIP3    H139254   1.616   6.158  11.584 -0.3251 -0.8998 -0.0486
 5921TIP3    H239255   1.564   6.242  11.698 -2.8259  0.1255 -1.8432
 5922TIP3   OH239256   4.186   6.771   4.635  0.0921  0.5644  0.3157
 5922TIP3    H139257   4.258   6.752   4.575 -1.2640 -0.6861 -0.9939
 5922TIP3    H239258   4.216   6.737   4.719  1.3916  0.9020  0.0174
 5923TIP3   OH239259   4.970   4.577   0.350  0.1104  0.1433 -0.1587
 5923TIP3    H139260   5.027   4.593   0.425  0.3916  0.7920 -0.4966
 5923TIP3    H239261   5.018   4.515   0.296 -0.0551 -0.2603  0.1473
 5924TIP3   OH239262   6.477   3.000  14.924  0.0225  0.3655 -1.0736
 5924TIP3    H139263   6.428   2.942  14.867 -1.0027  0.8747 -0.7288
 5924TIP3    H239264   6.425   3.005  15.004  0.3429  1.3490 -0.9109
 5925TIP3   OH239265   3.856   5.774  16.819 -0.0592 -0.4119 -0.0563
 5925TIP3    H139266   3.779   5.825  16.794  1.8347  2.3995 -0.6270
 5925TIP3    H239267   3.858   5.701  16.756 -1.6656  0.0371 -0.6695
 5926TIP3   OH239268   2.829   0.199   1.329  0.5210 -0.2994 -0.3719
 5926TIP3    H139269   2.893   0.134   1.356 -1.1419 -2.8211 -2.0539
 5926TIP3    H239270   2.761   0.195   1.396  0.3180 -0.4565 -0.5861
 5927TIP3   OH239271   0.588   2.662   6.142  0.1518  0.0983  0.0560
 5927TIP3    H139272   0.597   2.567   6.135 -1.2493  0.0053 -0.8474
 5927TIP3    H239273   0.676   2.693   6.164  0.5626 -1.4273  0.7029
 5928TIP3   OH239274   0.210   6.525  12.142 -0.0282  0.0819  0.4279
 5928TIP3    H139275   0.291   6.515  12.193  1.9376 -1.6686 -2.7430
 5928TIP3    H239276   0.160   6.446  12.163 -0.1571  0.3531  1.1549
 5929TIP3   OH239277   0.404   5.124  11.335  0.1320 -0.5368 -0.0941
 5929TIP3    H139278   0.337   5.164  11.391  0.5959 -1.8861  1.5063
 5929TIP3    H239279   0.474   5.190  11.331 -0.7370  0.3823 -0.7713
 5930TIP3   OH239280   4.040   4.089   3.833  0.0016 -0.6452  0.2585
 5930TIP3    H139281   4.108   4.070   3.898  1.7274  0.1272 -1.2191
 5930TIP3    H239282   3.973   4.136   3.881  0.6905 -1.0708  1.7012
 5931TIP3   OH239283   4.234   0.831  13.920  0.3445 -0.0289  0.0791
 5931TIP3    H139284   4.215   0.872  14.004  2.1637 -0.4541  0.7404
 5931TIP3    H239285   4.298   0.890  13.879 -0.4600  0.1317 -0.9810
 5932TIP3   OH239286   0.189   6.403   2.250 -0.6215 -0.1212 -0.1405
 5932TIP3    H139287   0.107   6.447   2.275 -0.2791  0.7118 -0.4475
 5932TIP3    H239288   0.173   6.310   2.267 -2.1104 -0.1515 -1.4781
 5933TIP3   OH239289   1.534   2.065  13.763  0.3924 -0.4895 -0.0476
 5933TIP3    H139290   1.576   1.998  13.817 -0.6143 -3.2378 -2.3985
 5933TIP3    H239291   1.459   2.094  13.814  1.7251  0.1078  1.6777
 5934TIP3   OH239292   5.662   1.266   6.425 -0.5601  0.1390 -0.6198
 5934TIP3    H139293   5.668   1.340   6.364 -1.2297 -0.1731 -1.0714
 5934TIP3    H239294   5.690   1.190   6.374  2.2452  0.3425  0.4310
 5935TIP3   OH239295   5.459   1.382   1.357  0.8283 -0.4187 -0.7211
 5935TIP3    H139296   5.466   1.472   1.326  1.6147 -0.8011 -1.6864
 5935TIP3    H239297   5.377   1.349   1.318  0.4452 -0.0757 -0.2176
 5936TIP3   OH239298   5.243   5.287   3.124  0.0702 -0.2854 -0.3959
 5936TIP3    H139299   5.174   5.354   3.130 -0.2287 -0.5211 -1.1216
 5936TIP3    H239300   5.260   5.262   3.215  1.1600  1.7366  0.0155
 5937TIP3   OH239301   2.716   1.209  14.330 -0.2155  0.2441 -0.0172
 5937TIP3    H139302   2.740   1.189  14.240 -0.9807 -0.0741 -0.1619
 5937TIP3    H239303   2.634   1.161  14.344 -0.5450  0.9658  0.5784
 5938TIP3   OH239304   4.630   0.516   4.325 -0.4888 -0.3430  0.4999
 5938TIP3    H139305   4.719   0.484   4.309  0.2681  0.0510  3.3788
 5938TIP3    H239306   4.640   0.610   4.334 -1.1140 -0.3356  1.2186
 5939TIP3   OH239307   5.011   0.017  14.965  0.5100 -0.3194  0.1433
 5939TIP3    H139308   5.068   0.003  14.889  1.7359 -0.9662  1.1504
 5939TIP3    H239309   5.049   0.092  15.010  0.0991 -0.2765  0.4260
 5940TIP3   OH239310   4.855   4.980  15.807 -0.0871 -0.1143 -0.3672
 5940TIP3    H139311   4.861   4.968  15.902 -1.3386 -1.6172 -0.4410
 5940TIP3    H239312   4.806   5.061  15.797  1.6083  1.0493  0.2238
 5941TIP3   OH239313   1.750   4.416  13.327  0.3015  0.7258  0.3614
 5941TIP3    H139314   1.694   4.460  13.392  0.4021  0.8787  0.3443
 5941TIP3    H239315   1.743   4.471  13.249  1.7838  1.6674  0.8543
 5942TIP3   OH239316   5.096   4.816   1.622 -0.1533 -0.3303  0.1307
 5942TIP3    H139317   5.043   4.894   1.637 -3.4893 -1.7305 -3.0322
 5942TIP3    H239318   5.154   4.839   1.549 -1.0973 -0.6923 -0.7635
 5943TIP3   OH239319   1.710   5.347  15.329  0.3203  0.2398  0.0294
 5943TIP3    H139320   1.660   5.390  15.398  0.3010 -1.6890  1.2955
 5943TIP3    H239321   1.744   5.418  15.275  0.1923  1.7988  1.9253
 5944TIP3   OH239322   4.851   0.466  12.994 -0.3306  0.0342  0.5965
 5944TIP3    H139323   4.793   0.538  13.019 -0.4979  0.0673  0.1234
 5944TIP3    H239324   4.915   0.506  12.936 -0.5543 -0.2397  0.1555
 5945TIP3   OH239325   4.962   3.859   3.998 -0.5347 -0.2566  0.1908
 5945TIP3    H139326   4.946   3.895   4.085  0.9197  0.7222  0.0931
 5945TIP3    H239327   4.999   3.932   3.948 -1.3359 -0.7982 -1.2563
 5946TIP3   OH239328   0.658   3.692  14.938 -0.2672 -0.6242  0.0867
 5946TIP3    H139329   0.616   3.708  15.022 -0.0963  0.6255 -0.0361
 5946TIP3    H239330   0.589   3.708  14.873 -0.0716 -0.2911 -0.0455
 5947TIP3   OH239331   3.469   2.223  13.971 -0.2170  0.1808  0.4855
 5947TIP3    H139332   3.435   2.309  13.996 -0.4168  0.1679  0.2581
 5947TIP3    H239333   3.535   2.203  14.038  2.4665  2.0892 -1.3786
 5948TIP3   OH239334   3.531   1.362   4.745 -0.7076  0.5005  0.2649
 5948TIP3    H139335   3.525   1.325   4.657  0.8478 -2.5329  1.2818
 5948TIP3    H239336   3.621   1.394   4.751 -1.0114  1.3116  0.5345
 5949TIP3   OH239337   4.620   1.060   4.208 -0.4478 -0.4873 -0.2239
 5949TIP3    H139338   4.587   1.111   4.134  0.1498  0.3323  0.0578
 5949TIP3    H239339   4.610   1.117   4.283  2.9398  0.4798 -0.3137
 5950TIP3   OH239340   0.188   3.122   0.581  1.0253  0.1786 -0.0307
 5950TIP3    H139341   0.164   3.032   0.558 -0.8346 -0.0359  2.2616
 5950TIP3    H239342   0.121   3.176   0.539  1.2832  0.3646 -0.2062
 5951TIP3   OH239343   5.632   4.792  13.230  0.1387 -0.0583  0.3613
 5951TIP3    H139344   5.705   4.741  13.195  0.4467 -0.6463  1.7926
 5951TIP3    H239345   5.557   4.769  13.175  0.4287 -1.5630  0.5632
 5952TIP3   OH239346   3.901   1.140  11.295 -0.5985 -0.0584 -0.2808
 5952TIP3    H139347   3.902   1.118  11.202 -0.5682 -1.5522  0.0533
 5952TIP3    H239348   3.831   1.087  11.332 -0.1629  0.0042  0.6766
 5953TIP3   OH239349   5.478   1.839  16.727 -0.0213 -0.4922 -0.0211
 5953TIP3    H139350   5.398   1.813  16.681 -0.0905 -1.0413  0.3963
 5953TIP3    H239351   5.483   1.778  16.801  0.3824  0.0220  0.3773
 5954TIP3   OH239352   0.329   3.710   2.053  0.0984  0.3083  0.6329
 5954TIP3    H139353   0.363   3.795   2.023  3.4700 -0.2462  2.3937
 5954TIP3    H239354   0.385   3.646   2.010 -1.2788 -0.9938  0.7089
 5955TIP3   OH239355   3.415   5.719   5.797  0.1512 -1.1881 -0.1115
 5955TIP3    H139356   3.355   5.754   5.862 -0.4806 -2.1543 -0.1480
 5955TIP3    H239357   3.472   5.660   5.846 -0.7688 -2.4564 -0.4931
 5956TIP3   OH239358   2.540   2.347  14.116  0.3369  0.2231  0.0348
 5956TIP3    H139359   2.560   2.427  14.068 -1.0187  0.0097 -0.9488
 5956TIP3    H239360   2.624   2.302  14.125  0.9237  1.2261 -0.3817
 5957TIP3   OH239361   0.042   1.546  16.603  0.1228  0.1289 -0.9623
 5957TIP3    H139362  -0.002   1.552  16.518 -0.1151  2.0625 -0.7514
 5957TIP3    H239363   0.014   1.624  16.650  3.4819  1.3359 -0.6729
 5958TIP3   OH239364   1.298   6.672   1.612  0.3386 -0.1303 -0.0511
 5958TIP3    H139365   1.337   6.756   1.633 -1.8469  0.9023  0.1350
 5958TIP3    H239366   1.279   6.676   1.519 -0.9000  0.1282  0.1879
 5959TIP3   OH239367   6.515   0.169  13.327 -0.2110 -0.3178 -0.2586
 5959TIP3    H139368   6.511   0.257  13.290 -0.7915 -0.3828 -0.3655
 5959TIP3    H239369   6.608   0.152  13.339 -0.0890  0.2693 -0.3338
 5960TIP3   OH239370   6.673   5.648  13.447 -0.2520  0.2518  0.5576
 5960TIP3    H139371   6.685   5.727  13.501 -0.9920 -0.0597  1.1911
 5960TIP3    H239372   6.691   5.575  13.507 -2.0204 -0.1320  0.6726
 5961TIP3   OH239373   6.468   5.338  12.126  0.8340 -0.1691 -0.0388
 5961TIP3    H139374   6.536   5.397  12.096  0.4898  0.2725  0.0347
 5961TIP3    H239375   6.455   5.362  12.218 -0.3234  0.6498 -0.3896
 5962TIP3   OH239376   2.233   1.772   0.201 -0.1931 -0.1320 -0.3204
 5962TIP3    H139377   2.209   1.751   0.292 -1.6254  0.0493 -0.6332
 5962TIP3    H239378   2.309   1.717   0.183  1.2941  1.1764  1.5829
 5963TIP3   OH239379   5.178   3.904  16.968 -0.3510 -0.0229 -0.1441
 5963TIP3    H139380   5.197   3.984  16.920 -1.8700  0.8676  0.6559
 5963TIP3    H239381   5.196   3.926  17.059  0.9613 -1.1879 -0.0952
 5964TIP3   OH239382   4.129   5.053   3.394  0.0399 -0.0206 -0.6102
 5964TIP3    H139383   4.222   5.061   3.371  0.2891  2.3498  0.9202
 5964TIP3    H239384   4.129   4.998   3.472  0.0986 -0.4885 -0.9379
 5965TIP3   OH239385   6.393   4.212  14.423 -0.0043 -0.0729 -0.6177
 5965TIP3    H139386   6.342   4.131  14.428  0.6422 -0.5051 -0.8438
 5965TIP3    H239387   6.484   4.184  14.434  0.0935  0.8656  1.5511
 5966TIP3   OH239388   2.867   0.625   5.684  0.2010  0.0191 -0.3818
 5966TIP3    H139389   2.865   0.675   5.766 -0.3434 -1.5157  0.5780
 5966TIP3    H239390   2.809   0.551   5.700  2.2037 -1.8071 -1.1942
 5967TIP3   OH239391   6.295   1.775   3.575  0.1245 -0.1580  0.3351
 5967TIP3    H139392   6.222   1.800   3.518  0.7219  0.3251 -0.2426
 5967TIP3    H239393   6.311   1.683   3.554 -1.2874 -0.7132  1.5743
 5968TIP3   OH239394   0.380   0.621   5.493  0.8394 -0.0358  0.5396
 5968TIP3    H139395   0.296   0.633   5.538  0.1963  0.1055 -0.6437
 5968TIP3    H239396   0.444   0.610   5.563 -0.2297 -0.5573  1.4624
 5969TIP3   OH239397   3.857   1.205  12.887  0.3922 -0.4355  0.2674
 5969TIP3    H139398   3.897   1.278  12.838 -1.7146  0.1352 -0.6973
 5969TIP3    H239399   3.811   1.248  12.959  0.6915 -0.9987  0.8013
 5970TIP3   OH239400   0.504   0.509   2.547  0.2207 -0.3844  0.5530
 5970TIP3    H139401   0.481   0.526   2.455  0.1448  0.0305  0.6468
 5970TIP3    H239402   0.519   0.414   2.551  1.6985 -0.2028 -0.2081
 5971TIP3   OH239403   3.407   1.270   5.420 -0.6475  0.8822 -0.4343
 5971TIP3    H139404   3.402   1.237   5.330  0.0409  1.6870 -0.7778
 5971TIP3    H239405   3.416   1.191   5.474  2.0388  0.5129 -1.3224
 5972TIP3   OH239406   1.640   3.865   3.352  0.1104 -0.3210 -0.6758
 5972TIP3    H139407   1.645   3.932   3.283  1.5825 -0.7524 -1.0252
 5972TIP3    H239408   1.575   3.803   3.320 -1.4366  1.0125 -0.2519
 5973TIP3   OH239409   4.094   6.317   2.947  0.1246 -0.5606  0.5980
 5973TIP3    H139410   4.032   6.263   2.996 -0.7203 -1.1324 -1.0566
 5973TIP3    H239411   4.042   6.358   2.878  1.1109  0.9492  0.6913
 5974TIP3   OH239412   5.582   6.064  16.465 -0.0805 -0.4962 -0.3082
 5974TIP3    H139413   5.512   6.118  16.501 -1.6100 -2.3319 -0.3301
 5974TIP3    H239414   5.579   6.080  16.371  0.9355  0.9612 -0.1153
 5975TIP3   OH239415   5.524   4.916   3.595 -0.1872 -0.5270  0.2608
 5975TIP3    H139416   5.496   4.840   3.644 -0.8166 -1.0684 -0.8925
 5975TIP3    H239417   5.566   4.880   3.517  1.7762  0.2857  0.8672
 5976TIP3   OH239418   5.561   2.481  14.086 -0.2988 -0.1380 -0.2525
 5976TIP3    H139419   5.502   2.417  14.045  0.8036 -1.8258  0.6789
 5976TIP3    H239420   5.646   2.436  14.089  0.8445  1.8838 -0.7465
 5977TIP3   OH239421   5.768   4.034   1.341  0.1004 -0.1137 -0.5340
 5977TIP3    H139422   5.760   4.062   1.432 -0.2881 -1.5826 -0.0838
 5977TIP3    H239423   5.705   4.088   1.293  1.2077  1.5802 -0.1902
 5978TIP3   OH239424   5.309   6.266   4.006 -0.4985 -0.0373 -0.2728
 5978TIP3    H139425   5.256   6.221   3.940 -0.6050 -0.5052  0.1246
 5978TIP3    H239426   5.274   6.354   4.010 -0.3578  0.0552 -0.9886
 5979TIP3   OH239427   0.567   1.175  13.227  0.4083 -0.0536 -0.3459
 5979TIP3    H139428   0.562   1.108  13.160  1.1159 -0.5247  0.0588
 5979TIP3    H239429   0.488   1.228  13.215 -1.3316 -2.2515  0.7176
 5980TIP3   OH239430   0.689   6.296  11.159 -0.1807  0.2757 -0.1373
 5980TIP3    H139431   0.678   6.384  11.124 -0.0470  0.6742  0.8042
 5980TIP3    H239432   0.684   6.239  11.082 -1.9096  0.9638 -0.5754
 5981TIP3   OH239433   4.362   4.712   3.925  0.4443  0.0862  0.0445
 5981TIP3    H139434   4.377   4.703   4.019  0.0750 -1.3040 -0.0171
 5981TIP3    H239435   4.273   4.749   3.918 -0.0789 -1.0844  0.2407
 5982TIP3   OH239436   1.849   4.046   3.636  0.1288  0.1247 -0.6295
 5982TIP3    H139437   1.815   3.957   3.628 -0.0594 -0.0314  1.2600
 5982TIP3    H239438   1.897   4.046   3.720  1.0645  1.5086 -1.1169
 5983TIP3   OH239439   1.714   5.841  17.096 -0.1365  0.2958  0.3154
 5983TIP3    H139440   1.715   5.830  17.000 -1.8329 -1.7725  0.4593
 5983TIP3    H239441   1.758   5.763  17.129 -2.5091 -0.7724  1.2214
 5984TIP3   OH239442   3.783   5.105   1.816  0.0141 -0.2142 -0.5966
 5984TIP3    H139443   3.862   5.096   1.763  0.6307 -0.5955  0.3648
 5984TIP3    H239444   3.786   5.031   1.877 -1.2452 -0.4172 -0.7491
 5985TIP3   OH239445   0.378   3.456   0.250  0.2542 -0.1944 -0.6583
 5985TIP3    H139446   0.283   3.462   0.239  0.1341 -2.0401 -0.8338
 5985TIP3    H239447   0.389   3.421   0.339  0.6022 -3.4621 -1.8809
 5986TIP3   OH239448   2.189   6.111  17.070  0.0292 -0.4251 -0.9913
 5986TIP3    H139449   2.129   6.049  17.113  1.8141 -2.5167 -1.3482
 5986TIP3    H239450   2.139   6.143  16.995 -1.5438 -0.1131  0.1364
 5987TIP3   OH239451   3.336   0.965   2.122 -0.1700 -0.5067 -0.6019
 5987TIP3    H139452   3.289   1.046   2.103 -0.5492 -0.5089  0.2918
 5987TIP3    H239453   3.270   0.896   2.116 -0.4175 -0.4531  1.1687
 5988TIP3   OH239454   2.218   3.985   0.124 -0.1020  0.2835 -0.1606
 5988TIP3    H139455   2.159   3.990   0.049  0.8952  3.6236 -0.8869
 5988TIP3    H239456   2.305   3.973   0.086  0.4139  1.9558  0.4181
 5989TIP3   OH239457   4.761   5.655  12.130 -0.5696  0.2000 -0.2409
 5989TIP3    H139458   4.673   5.648  12.168 -0.5409  0.3621 -0.1431
 5989TIP3    H239459   4.820   5.639  12.203 -0.5144 -1.1416 -0.5506
 5990TIP3   OH239460   6.350   0.521   5.847  0.5729  0.7637 -0.3757
 5990TIP3    H139461   6.268   0.551   5.885  0.3536  1.7012 -1.5286
 5990TIP3    H239462   6.391   0.468   5.915 -1.5556 -0.7503 -0.1928
 5991TIP3   OH239463   3.385   2.719  11.985  1.0318 -0.1444 -0.6610
 5991TIP3    H139464   3.384   2.743  11.893 -0.2772  2.1513 -0.1182
 5991TIP3    H239465   3.307   2.760  12.022  1.0691 -1.6819  1.3233
 5992TIP3   OH239466   0.087   2.151   3.120 -0.0659  0.3216  0.1342
 5992TIP3    H139467   0.181   2.167   3.134 -0.1875 -0.6685  2.7548
 5992TIP3    H239468   0.078   2.056   3.127 -1.2999  0.4379  0.2626
 5993TIP3   OH239469   2.645   2.262   4.837  0.4624 -0.1932 -0.1238
 5993TIP3    H139470   2.718   2.276   4.777 -0.0939  2.9562 -0.2098
 5993TIP3    H239471   2.671   2.305   4.918 -0.5806 -0.5898  0.4480
 5994TIP3   OH239472   1.355   2.212   2.121  0.1108  0.2553 -0.1543
 5994TIP3    H139473   1.375   2.157   2.197 -1.0479  0.8418  0.6210
 5994TIP3    H239474   1.299   2.281   2.157 -0.8327  0.2937 -1.6341
 5995TIP3   OH239475   2.879   4.015   1.406  0.2963 -0.2886  0.3936
 5995TIP3    H139476   2.929   3.987   1.329 -0.5833 -2.3401  0.4918
 5995TIP3    H239477   2.799   3.962   1.404 -0.1981  0.2908  2.2013
 5996TIP3   OH239478   4.778   1.528  11.324 -0.2625 -0.3437 -0.7333
 5996TIP3    H139479   4.730   1.592  11.376 -0.4475  0.1403 -1.4833
 5996TIP3    H239480   4.782   1.566  11.236  2.9683  0.4492 -0.3674
 5997TIP3   OH239481   4.733   6.252   0.348  0.7258 -0.3232 -0.1796
 5997TIP3    H139482   4.647   6.272   0.384  1.2887 -0.1565  1.1048
 5997TIP3    H239483   4.735   6.156   0.345 -0.6132 -0.3782 -3.0445
 5998TIP3   OH239484   5.013   6.275  16.101  0.1456  0.0617  0.2171
 5998TIP3    H139485   4.935   6.330  16.097 -0.2146 -0.4848 -3.0716
 5998TIP3    H239486   4.990   6.205  16.162 -0.7310  1.5558  1.6590
 5999TIP3   OH239487   6.669   4.684  14.282  0.1162 -0.2338  0.1370
 5999TIP3    H139488   6.646   4.591  14.280  1.2440 -0.6005  2.1168
 5999TIP3    H239489   6.726   4.697  14.207  0.3228 -1.2488  0.1157
 6000TIP3   OH239490   4.131   3.540  13.227 -0.5039  0.8785  0.2314
 6000TIP3    H139491   4.135   3.597  13.304  1.3375  0.8400  0.2169
 6000TIP3    H239492   4.216   3.496  13.226 -1.8502 -1.9324  0.2649
 6001TIP3   OH239493   2.417   0.636  16.034  0.0152 -0.0785 -0.1476
 6001TIP3    H139494   2.340   0.596  15.994 -0.8977  1.1763  0.3040
 6001TIP3    H239495   2.450   0.697  15.968 -1.3070  1.7583  0.7695
 6002TIP3   OH239496   5.157   4.170   6.382 -0.1203  0.9871  0.3914
 6002TIP3    H139497   5.250   4.156   6.401 -0.1747 -0.1866 -0.1649
 6002TIP3    H239498   5.152   4.262   6.357  1.3347  0.4812 -2.0614
 6003TIP3   OH239499   4.960   0.718   3.642 -0.6739 -0.1511 -0.3957
 6003TIP3    H139500   5.003   0.677   3.567 -2.1045  0.9626 -1.8898
 6003TIP3    H239501   4.906   0.787   3.604 -0.8231  0.9989  1.7470
 6004TIP3   OH239502   6.517   2.975   4.340  0.2749  0.0879 -0.1854
 6004TIP3    H139503   6.481   2.933   4.262  0.5431  0.1903 -0.3644
 6004TIP3    H239504   6.478   3.062   4.341 -1.0768 -0.5020  0.7387
 6005TIP3   OH239505   4.418   1.146  12.853  0.8245  0.0460  0.2068
 6005TIP3    H139506   4.499   1.164  12.805  0.9760  1.2658  0.8642
 6005TIP3    H239507   4.349   1.150  12.787  1.0657  1.3407  0.0031
 6006TIP3   OH239508   2.408   3.324  12.121  0.1807  0.0942  0.4034
 6006TIP3    H139509   2.344   3.356  12.058  1.1423  1.2066 -0.0459
 6006TIP3    H239510   2.411   3.391  12.189  1.1720  0.2841  0.1921
 6007TIP3   OH239511   2.096   0.948   3.850 -0.1431  0.3897 -0.4139
 6007TIP3    H139512   2.179   0.900   3.846 -0.3420  0.0749 -1.0987
 6007TIP3    H239513   2.084   0.970   3.942 -0.2777 -1.3084  0.0010
 6008TIP3   OH239514   2.615   3.116   3.666  0.5794 -0.3961 -0.2125
 6008TIP3    H139515   2.569   3.037   3.694 -0.3950 -0.6301 -2.2456
 6008TIP3    H239516   2.618   3.171   3.744 -2.6077 -0.6526  0.2233
 6009TIP3   OH239517   2.378   5.655  15.303  0.0520 -0.0289  0.5430
 6009TIP3    H139518   2.284   5.640  15.314  0.1484 -1.5887 -0.4586
 6009TIP3    H239519   2.394   5.643  15.209  1.2947  0.0026  0.7278
 6010TIP3   OH239520   2.045   3.216  16.806  0.1742  0.3758  0.0673
 6010TIP3    H139521   2.041   3.236  16.900  0.0441  0.0708  0.1267
 6010TIP3    H239522   2.088   3.293  16.768  1.6703 -0.1740  0.5836
 6011TIP3   OH239523   2.607   4.013  14.736  0.2274  0.7425 -0.2389
 6011TIP3    H139524   2.639   3.945  14.795  0.5295  1.3265  0.2838
 6011TIP3    H239525   2.655   4.091  14.762  2.0365  0.5674 -2.7041
 6012TIP3   OH239526   0.629   5.425  12.035  0.4883 -0.1683 -0.1140
 6012TIP3    H139527   0.626   5.340  11.991 -0.1398 -0.0497 -0.3099
 6012TIP3    H239528   0.579   5.483  11.978  1.6802  0.5606 -0.4525
 6013TIP3   OH239529   5.574   5.529  14.126 -0.1069 -0.3936  0.2561
 6013TIP3    H139530   5.669   5.532  14.116 -0.2304  0.8533 -0.8585
 6013TIP3    H239531   5.551   5.438  14.105  0.5795 -0.0052 -2.6362
 6014TIP3   OH239532   5.101   3.623   3.025  0.0506  0.4400  0.1746
 6014TIP3    H139533   5.057   3.631   3.109 -0.9330 -0.7775 -0.1930
 6014TIP3    H239534   5.039   3.660   2.962  0.3393  0.4048 -0.1325
 6015TIP3   OH239535   1.110   4.186  13.875 -0.0550  0.0459 -0.4478
 6015TIP3    H139536   1.082   4.251  13.939  1.0642  1.7250 -1.5922
 6015TIP3    H239537   1.194   4.218  13.843  0.8832 -2.3237 -0.5956
 6016TIP3   OH239538   2.410   4.450   4.351 -0.0300  0.1302 -0.3061
 6016TIP3    H139539   2.456   4.445   4.435  1.1731  0.1092 -0.9523
 6016TIP3    H239540   2.451   4.382   4.297  0.0744  0.9763 -1.3177
 6017TIP3   OH239541   0.269   1.020  12.003  0.3612 -0.7691  0.2787
 6017TIP3    H139542   0.273   1.020  11.907  1.7030  3.6125  0.1336
 6017TIP3    H239543   0.346   0.970  12.030  1.0306 -0.4937 -1.0186
 6018TIP3   OH239544   5.325   6.735   5.732  0.2197 -0.0618  0.5210
 6018TIP3    H139545   5.398   6.712   5.675 -1.0492  0.4128 -1.3839
 6018TIP3    H239546   5.273   6.797   5.680 -1.4037 -0.1947  1.9184
 6019TIP3   OH239547   3.698   3.941  14.892 -0.4314  0.2049  0.3837
 6019TIP3    H139548   3.735   3.859  14.925  1.3480  0.5416 -0.6550
 6019TIP3    H239549   3.624   3.914  14.837 -2.5196 -0.4418  3.2554
 6020TIP3   OH239550   0.920   1.110   2.653 -0.5429  0.3235 -0.0651
 6020TIP3    H139551   1.014   1.126   2.668 -0.2873 -0.7168 -0.4955
 6020TIP3    H239552   0.911   1.116   2.558 -0.5703 -1.2938 -0.1873
 6021TIP3   OH239553   4.911   0.528  13.845 -0.2660 -0.2863 -0.6046
 6021TIP3    H139554   4.970   0.559  13.776  0.6950  1.9489  1.0475
 6021TIP3    H239555   4.970   0.498  13.915 -0.8691  2.6119  1.3656
 6022TIP3   OH239556   2.418   3.189  15.730  0.2984  0.0765 -0.3498
 6022TIP3    H139557   2.387   3.170  15.641 -1.5897  1.4633 -0.0395
 6022TIP3    H239558   2.410   3.284  15.738  1.0547  0.0412  1.1144
 6023TIP3   OH239559   6.745   6.680   5.320  0.6089 -0.5487  0.3641
 6023TIP3    H139560   6.686   6.618   5.362 -0.0839 -0.4654 -0.4569
 6023TIP3    H239561   6.692   6.760   5.311  0.5556 -0.7337 -1.1383
 6024TIP3   OH239562   3.983   2.939  16.884  0.6445 -0.0657  0.0051
 6024TIP3    H139563   3.987   2.951  16.979 -0.0821 -1.9886  0.3155
 6024TIP3    H239564   4.019   2.852  16.869  0.5163  0.1156 -1.4725
 6025TIP3   OH239565   2.914   3.058   3.684 -0.3134  0.1552 -0.2214
 6025TIP3    H139566   2.821   3.057   3.661  0.2987  1.4511 -3.1590
 6025TIP3    H239567   2.922   3.130   3.746 -1.0873  0.8495 -0.9055
 6026TIP3   OH239568   6.286   5.968  16.118 -0.6146  0.2730 -0.3669
 6026TIP3    H139569   6.315   5.942  16.205 -2.3689 -1.9175 -0.3423
 6026TIP3    H239570   6.362   6.011  16.079  0.7221 -0.1041  1.6727
 6027TIP3   OH239571   0.363   3.797  15.363 -0.3332  0.5019 -0.2428
 6027TIP3    H139572   0.440   3.814  15.309 -0.3257  1.5793  0.0801
 6027TIP3    H239573   0.386   3.831  15.449 -0.9943  0.3936 -0.0176
 6028TIP3   OH239574   4.263   2.805  14.864 -0.0397  0.4619 -0.3534
 6028TIP3    H139575   4.352   2.781  14.838  0.6975  2.1482  0.4729
 6028TIP3    H239576   4.212   2.724  14.853  1.7676 -0.7777 -0.0363
 6029TIP3   OH239577   1.840   0.029  14.427  0.0250  0.1465  0.0325
 6029TIP3    H139578   1.797  -0.028  14.364  0.4524  0.0975 -0.2175
 6029TIP3    H239579   1.921  -0.017  14.450 -0.1060  0.1873  0.5786
 6030TIP3   OH239580   6.567   5.660   2.272  0.5356  0.0890 -0.1119
 6030TIP3    H139581   6.526   5.713   2.204  1.1819 -1.1572 -1.5400
 6030TIP3    H239582   6.625   5.721   2.318 -1.2096  1.3529  0.5062
 6031TIP3   OH239583   0.539   1.023   6.244 -0.2877 -0.1182  0.0133
 6031TIP3    H139584   0.604   1.000   6.312  2.0067  3.0838 -0.8602
 6031TIP3    H239585   0.467   0.963   6.260  2.4057 -3.2721  1.7633
 6032TIP3   OH239586   6.337   4.480   0.405  0.5147  0.3678  0.5628
 6032TIP3    H139587   6.415   4.524   0.372 -0.1556  1.2398  0.0815
 6032TIP3    H239588   6.305   4.538   0.474  0.6245 -0.2954  1.1827
 6033TIP3   OH239589   3.023   5.523   1.170  0.0891  0.2549  0.2061
 6033TIP3    H139590   3.018   5.429   1.187 -0.1686 -0.0468 -1.3326
 6033TIP3    H239591   2.985   5.533   1.082 -0.8827  1.9460  0.7807
 6034TIP3   OH239592   3.181   5.451   5.211 -0.5529  0.1279  0.2952
 6034TIP3    H139593   3.161   5.544   5.220  3.3377  1.1542  0.3474
 6034TIP3    H239594   3.174   5.416   5.300 -1.1294  0.5758  0.4347
 6035TIP3   OH239595   5.036   3.463  15.616 -0.0601  0.0444  0.4377
 6035TIP3    H139596   5.068   3.435  15.702 -1.5863  1.2967  1.4577
 6035TIP3    H239597   5.106   3.518  15.582 -0.6770  2.1446  2.3103
 6036TIP3   OH239598   1.219   0.303  15.492  0.4986  0.1863 -0.1052
 6036TIP3    H139599   1.164   0.228  15.472 -0.1670  0.5192  0.4149
 6036TIP3    H239600   1.227   0.302  15.588  3.3361 -1.1932 -0.2419
 6037TIP3   OH239601   6.683   3.312  16.955 -0.6160  0.5230 -0.0161
 6037TIP3    H139602   6.689   3.397  16.910  0.3935  1.7194  2.1870
 6037TIP3    H239603   6.739   3.323  17.032 -0.5250 -2.1622  0.3711
 6038TIP3   OH239604   1.984   3.679   0.602  0.2146 -0.4305  0.1999
 6038TIP3    H139605   2.041   3.734   0.548 -1.2212  1.2940  0.3190
 6038TIP3    H239606   2.043   3.618   0.646  1.8924  0.9180 -0.0777
 6039TIP3   OH239607   4.792   0.403   3.991 -0.6910 -0.1018 -1.1270
 6039TIP3    H139608   4.762   0.469   3.928 -0.5301  1.2668  0.1714
 6039TIP3    H239609   4.716   0.346   4.003 -2.1077  1.9153  0.2961
 6040TIP3   OH239610   5.756   1.126   0.606  0.6316 -0.2585 -0.0453
 6040TIP3    H139611   5.843   1.165   0.613 -0.1763  1.8419 -0.9377
 6040TIP3    H239612   5.725   1.121   0.697  2.1642 -2.3662  0.4313
 6041TIP3   OH239613   5.273   0.791  15.338  0.3738 -0.2321  0.4342
 6041TIP3    H139614   5.283   0.742  15.256 -0.4423  1.4929 -0.7555
 6041TIP3    H239615   5.280   0.724  15.406 -1.5328 -2.1672 -1.0991
 6042TIP3   OH239616   2.834   5.564   2.343  0.6376  0.2268  0.0450
 6042TIP3    H139617   2.758   5.527   2.299  1.0829 -1.6054  0.7217
 6042TIP3    H239618   2.815   5.657   2.348 -1.0316 -0.0170 -0.8271
 6043TIP3   OH239619   1.675   5.453  10.813  0.5146  0.4146 -0.4288
 6043TIP3    H139620   1.744   5.427  10.752  2.7105  0.0853  2.0098
 6043TIP3    H239621   1.628   5.524  10.768  2.0160  0.2043 -2.4456
 6044TIP3   OH239622   1.613   4.926   5.727 -1.0864  0.0954  0.1894
 6044TIP3    H139623   1.702   4.953   5.705 -0.9195  1.4995  2.3423
 6044TIP3    H239624   1.557   4.976   5.666 -0.4932  1.0292  0.3875
 6045TIP3   OH239625   0.027   6.485   1.794  0.6788  0.2329 -0.0653
 6045TIP3    H139626   0.007   6.540   1.870  0.3407 -1.4480  1.1288
 6045TIP3    H239627   0.029   6.396   1.829  2.1834 -0.4513 -1.7193
 6046TIP3   OH239628   3.503   4.515  17.069  0.6748 -0.2088  0.1054
 6046TIP3    H139629   3.420   4.481  17.035  0.8517  0.2428 -0.8177
 6046TIP3    H239630   3.554   4.437  17.092 -0.1379 -0.4821  1.0258
 6047TIP3   OH239631   0.414   2.483  10.762  0.5277  0.3896 -0.1314
 6047TIP3    H139632   0.422   2.437  10.678 -1.1461 -1.3863  0.6100
 6047TIP3    H239633   0.474   2.437  10.820  0.0418  0.1927  0.2120
 6048TIP3   OH239634   2.109   0.842  11.899 -0.1120 -0.3432 -0.5414
 6048TIP3    H139635   2.072   0.851  11.811 -0.4056 -0.4198 -0.4288
 6048TIP3    H239636   2.037   0.807  11.952 -0.4147  1.1644  0.0882
 6049TIP3   OH239637   6.163   3.763  12.986 -0.2447 -0.8743 -0.5424
 6049TIP3    H139638   6.087   3.710  13.010 -0.6602 -0.7814 -1.6186
 6049TIP3    H239639   6.153   3.843  13.038 -0.0046 -1.5225  0.5342
 6050TIP3   OH239640   5.447   4.189  14.860  0.3842  0.5185 -0.5157
 6050TIP3    H139641   5.488   4.263  14.905  1.5798 -1.0042  1.0286
 6050TIP3    H239642   5.514   4.158  14.799  0.6521 -0.4414  0.2318
 6051TIP3   OH239643   1.338   3.833   4.807 -0.0108  0.2156 -0.2054
 6051TIP3    H139644   1.403   3.835   4.737  0.8963  0.4599  0.6229
 6051TIP3    H239645   1.389   3.829   4.888 -1.0433 -0.5442  0.4362
 6052TIP3   OH239646   5.789   3.137   1.781 -0.3467 -0.2162  0.3339
 6052TIP3    H139647   5.795   3.088   1.862 -0.7263 -1.4851 -0.3789
 6052TIP3    H239648   5.875   3.126   1.740 -0.7536 -1.1911 -0.3044
 6053TIP3   OH239649   6.735   2.724   6.250  0.8960  0.3758 -0.1617
 6053TIP3    H139650   6.740   2.813   6.215  1.8658  0.9880  1.4503
 6053TIP3    H239651   6.788   2.672   6.190  0.9121  1.0262 -0.7225
 6054TIP3   OH239652   6.065   2.722  12.646  0.3203  0.1305  0.0893
 6054TIP3    H139653   6.005   2.660  12.685 -1.3248  1.6043  0.0326
 6054TIP3    H239654   6.147   2.711  12.695 -0.3581 -1.0659  0.9967
 6055TIP3   OH239655   4.241   0.546  14.895 -0.4192 -0.0584  0.2268
 6055TIP3    H139656   4.189   0.565  14.974  0.1195  0.8247  0.3839
 6055TIP3    H239657   4.241   0.628  14.846  0.9223  0.0062  0.2897
 6056TIP3   OH239658   0.607   0.196  14.950  0.1839 -0.3079 -1.0656
 6056TIP3    H139659   0.581   0.103  14.952 -1.0824  0.0234 -1.1112
 6056TIP3    H239660   0.558   0.232  14.875 -1.1655  0.8878  0.3280
 6057TIP3   OH239661   2.411   2.014   5.278  0.3764  0.1961  0.6055
 6057TIP3    H139662   2.338   1.958   5.305 -0.2008 -0.4176 -1.9683
 6057TIP3    H239663   2.383   2.103   5.302 -2.0296  0.1829 -1.7497
 6058TIP3   OH239664   5.838   1.781   4.921  0.4074  0.0087  0.1428
 6058TIP3    H139665   5.872   1.810   4.837  0.0874  0.8044  0.2736
 6058TIP3    H239666   5.914   1.748   4.968  0.4828 -1.0713 -0.6907
 6059TIP3   OH239667   2.488   2.526  11.699 -0.3739  0.1120  0.4817
 6059TIP3    H139668   2.464   2.578  11.622  2.2062  0.7962  0.0534
 6059TIP3    H239669   2.439   2.566  11.771 -0.0680  1.8334 -0.2110
 6060TIP3   OH239670   6.753   5.605   5.475 -0.2603 -0.0060  0.7746
 6060TIP3    H139671   6.661   5.630   5.487 -0.5534 -1.7261  2.7160
 6060TIP3    H239672   6.751   5.509   5.473  1.5345 -0.0789  1.1126
 6061TIP3   OH239673   5.791   0.990  13.023  0.1534  0.4837 -0.3993
 6061TIP3    H139674   5.822   0.967  13.110  0.0959  1.6868 -0.0370
 6061TIP3    H239675   5.848   1.062  12.995 -2.3171  2.9100  0.3719
 6062TIP3   OH239676   1.633   2.559   0.337  0.5436 -0.7576 -0.3003
 6062TIP3    H139677   1.615   2.579   0.245  1.5284 -1.6609 -0.7061
 6062TIP3    H239678   1.677   2.474   0.335  1.7377 -0.2071  0.9055
 6063TIP3   OH239679   0.771   6.413  14.765  0.1863 -0.1920  0.3325
 6063TIP3    H139680   0.809   6.490  14.723  1.5222 -0.3369  1.2120
 6063TIP3    H239681   0.807   6.338  14.717 -0.1082 -0.3025  0.2790
 6064TIP3   OH239682   3.094   1.291   3.601  0.4760  0.3655  0.1034
 6064TIP3    H139683   3.011   1.263   3.562  0.6308 -0.2252  0.1866
 6064TIP3    H239684   3.089   1.264   3.692  0.4571  1.0036  0.2975
 6065TIP3   OH239685   4.656   6.579   5.348 -0.2227  1.0648  0.0723
 6065TIP3    H139686   4.623   6.527   5.421 -0.4910  1.2136  0.0604
 6065TIP3    H239687   4.735   6.621   5.382  1.1221 -0.8682 -0.5133
 6066TIP3   OH239688   5.956   0.267  10.823  0.1922 -0.3899  0.7756
 6066TIP3    H139689   6.027   0.326  10.799  1.3320 -1.6804  0.8456
 6066TIP3    H239690   5.909   0.251  10.741  0.4085 -0.0765  0.5879
 6067TIP3   OH239691   3.460   6.378  10.227  0.0032 -0.1638 -0.4572
 6067TIP3    H139692   3.403   6.448  10.260  0.1348 -0.0253 -0.5206
 6067TIP3    H239693   3.548   6.407  10.248  0.1654  0.4503 -1.8912
 6068TIP3   OH239694   4.737   1.785  12.482 -0.4520 -0.3568 -0.3527
 6068TIP3    H139695   4.666   1.748  12.535 -0.6165 -1.1756 -1.1066
 6068TIP3    H239696   4.798   1.821  12.545 -1.8362  0.9416  0.3070
 6069TIP3   OH239697   4.104   5.519  15.268 -0.4404  0.0014  0.1533
 6069TIP3    H139698   4.182   5.529  15.321 -1.2950 -2.8320  2.1869
 6069TIP3    H239699   4.136   5.486  15.184  0.6228 -0.2086  0.6271
 6070TIP3   OH239700   6.445   2.124   1.716  0.9480  0.5111 -0.4824
 6070TIP3    H139701   6.438   2.217   1.739  0.0167  0.3255  0.0275
 6070TIP3    H239702   6.431   2.122   1.621  0.1947  0.8156 -0.3827
 6071TIP3   OH239703   5.798   5.835   0.729 -0.4881 -0.2163  0.4490
 6071TIP3    H139704   5.794   5.746   0.694 -4.0683  0.1381 -0.3830
 6071TIP3    H239705   5.736   5.834   0.802 -0.1410  1.4752  0.7907
 6072TIP3   OH239706   5.743   4.133   6.085 -0.2588 -0.9595  0.1357
 6072TIP3    H139707   5.746   4.048   6.040 -0.5792 -1.8286  1.6721
 6072TIP3    H239708   5.694   4.115   6.165  0.6178  0.4377  1.0149
 6073TIP3   OH239709   0.225   2.080  10.803  0.3945  0.4892  0.5933
 6073TIP3    H139710   0.182   2.166  10.800 -1.2015 -0.3088 -0.8468
 6073TIP3    H239711   0.315   2.098  10.775 -0.0523  1.6355 -0.1974
 6074TIP3   OH239712   4.803   0.250  15.839 -0.4630  0.2723  0.6327
 6074TIP3    H139713   4.756   0.302  15.905 -0.9901 -0.7061  1.0417
 6074TIP3    H239714   4.760   0.271  15.756  0.5138  1.8895  0.4837
 6075TIP3   OH239715   4.279   6.623   0.172  0.5389 -0.2675 -1.0267
 6075TIP3    H139716   4.306   6.710   0.143  0.8702 -0.5497 -1.6017
 6075TIP3    H239717   4.288   6.625   0.267  0.6294  0.2991 -1.0430
 6076TIP3   OH239718   3.913   4.390  16.422 -0.2993 -0.6228 -0.0612
 6076TIP3    H139719   3.952   4.393  16.510  1.6386 -0.4348 -0.8753
 6076TIP3    H239720   3.899   4.482  16.400  2.5176 -0.3947 -1.2692
 6077TIP3   OH239721   0.205   5.296   0.607 -0.2583  0.3913  0.0919
 6077TIP3    H139722   0.262   5.361   0.566  0.1154  0.4934  0.7581
 6077TIP3    H239723   0.116   5.323   0.582 -0.2245  2.0923  1.6373
 6078TIP3   OH239724   1.165   6.421  11.349 -0.1000 -0.0977  0.0550
 6078TIP3    H139725   1.111   6.352  11.310 -0.0125  0.0305 -0.2952
 6078TIP3    H239726   1.234   6.374  11.397 -0.9431 -0.2768  1.1292
 6079TIP3   OH239727   0.490   3.483  10.815 -0.1345  0.1285 -0.2793
 6079TIP3    H139728   0.522   3.521  10.897 -1.7399  0.3616  0.2867
 6079TIP3    H239729   0.499   3.388  10.828  1.2396  0.2067 -0.5548
 6080TIP3   OH239730   4.274   5.361   4.016 -0.2764  0.8930  0.0691
 6080TIP3    H139731   4.193   5.397   4.052 -0.1595 -1.3164  2.8573
 6080TIP3    H239732   4.344   5.406   4.064 -0.0052 -0.1365  0.6527
 6081TIP3   OH239733   0.256   4.633   1.865  0.6291 -0.3156  0.1626
 6081TIP3    H139734   0.235   4.646   1.772  0.8353  0.1472  0.1736
 6081TIP3    H239735   0.351   4.644   1.869  0.6200 -0.3398  0.4294
 6082TIP3   OH239736   0.604   6.674   0.303  0.2718  0.1466 -0.2057
 6082TIP3    H139737   0.571   6.764   0.296 -0.3753 -0.1134 -0.6241
 6082TIP3    H239738   0.645   6.658   0.218 -1.7765 -0.7706 -1.0962
 6083TIP3   OH239739   5.585   0.435  14.367 -0.5493  0.1180  0.2380
 6083TIP3    H139740   5.582   0.398  14.279 -1.2541  2.0928 -0.6385
 6083TIP3    H239741   5.677   0.459  14.380 -0.8654  2.5565 -1.2745
 6084TIP3   OH239742   2.472   2.823   3.316 -0.7038 -0.3118 -0.6723
 6084TIP3    H139743   2.474   2.911   3.355  0.9291 -0.6210 -0.0108
 6084TIP3    H239744   2.416   2.833   3.239  1.3805  1.9442 -2.0397
 6085TIP3   OH239745   0.451   2.314   4.351 -0.1168 -0.2550  0.1027
 6085TIP3    H139746   0.493   2.294   4.434 -0.5609 -0.5324  0.2666
 6085TIP3    H239747   0.522   2.320   4.288  0.3846  1.4705  0.7848
 6086TIP3   OH239748   6.625   5.275  12.603  0.1596 -0.6664 -0.5735
 6086TIP3    H139749   6.615   5.182  12.624  1.2644 -0.6760 -0.0118
 6086TIP3    H239750   6.550   5.317  12.646 -0.2612 -1.2778 -0.7016
 6087TIP3   OH239751   3.051   5.704   2.759  0.1587  0.4543  0.0059
 6087TIP3    H139752   3.117   5.635   2.752  1.2349  1.2091  1.8751
 6087TIP3    H239753   2.994   5.675   2.830  0.4135  1.2953  0.5678
 6088TIP3   OH239754   0.495   0.024  15.391 -0.0875 -0.2430 -0.2388
 6088TIP3    H139755   0.586  -0.005  15.379  0.3472  0.0510  1.8918
 6088TIP3    H239756   0.501   0.120  15.393 -0.2163 -0.2416  1.1489
 6089TIP3   OH239757   0.710   1.222   2.093  0.2572  0.3391 -0.2429
 6089TIP3    H139758   0.767   1.145   2.094  1.1108  0.9618 -0.2292
 6089TIP3    H239759   0.768   1.296   2.110 -0.8883  0.7918  2.0189
 6090TIP3   OH239760   2.445   4.249  16.949  0.1970  0.5038  0.2777
 6090TIP3    H139761   2.536   4.221  16.959  0.1613  0.1950 -0.2224
 6090TIP3    H239762   2.423   4.291  17.032  0.3319 -0.7238  0.9479
 6091TIP3   OH239763   3.143   2.497  13.894  0.1060  0.5173 -0.0295
 6091TIP3    H139764   3.078   2.543  13.948 -0.1803 -0.0703  0.1313
 6091TIP3    H239765   3.222   2.496  13.949  0.0258  0.5504  0.0867
 6092TIP3   OH239766   6.095   0.773  16.819  0.2226  0.0662 -0.3766
 6092TIP3    H139767   6.081   0.763  16.913  0.7186 -1.3741 -0.4180
 6092TIP3    H239768   6.114   0.684  16.789  0.3030  0.5421 -1.8023
 6093TIP3   OH239769   5.217   1.378   1.226  0.2506 -0.4391  0.1044
 6093TIP3    H139770   5.127   1.358   1.253  0.4353 -0.0742  1.0425
 6093TIP3    H239771   5.218   1.473   1.215  0.3605 -0.5105 -0.5649
 6094TIP3   OH239772   0.891   5.265  15.462  0.1382  0.7101 -0.9542
 6094TIP3    H139773   0.950   5.220  15.523 -0.0253  0.8947 -0.6532
 6094TIP3    H239774   0.816   5.207  15.454  0.2745  0.5646 -1.1856
 6095TIP3   OH239775   1.208   4.966  12.784 -0.3823 -0.2669  0.3434
 6095TIP3    H139776   1.172   4.997  12.701  3.2705  0.9986 -0.9570
 6095TIP3    H239777   1.213   5.045  12.838  1.3448 -0.1535  0.0690
 6096TIP3   OH239778   1.469   1.955  13.251  0.1088  0.3434 -0.2910
 6096TIP3    H139779   1.484   2.007  13.330 -1.2918  1.1015 -0.4858
 6096TIP3    H239780   1.528   1.880  13.260  1.0336  1.1532  0.7584
 6097TIP3   OH239781   2.039   3.503   2.362  0.1430 -0.2072  0.5075
 6097TIP3    H139782   2.103   3.486   2.293  0.3552 -0.2064  0.7058
 6097TIP3    H239783   1.978   3.429   2.356 -0.2993  0.2052 -0.2059
 6098TIP3   OH239784   0.840   6.659   1.337  0.1549 -0.4468  0.1278
 6098TIP3    H139785   0.887   6.677   1.419 -0.2592 -1.2058  0.5534
 6098TIP3    H239786   0.748   6.674   1.359  0.0321 -0.7703 -0.1598
 6099TIP3   OH239787   4.540   1.932  14.735 -0.1484 -0.3027  0.1557
 6099TIP3    H139788   4.551   1.940  14.640  1.6544 -0.6791  0.2967
 6099TIP3    H239789   4.615   1.978  14.772 -0.5390 -0.6224  1.3983
 6100TIP3   OH239790   0.959   0.644  16.323 -0.1947  0.7074  0.2724
 6100TIP3    H139791   0.915   0.726  16.345  0.3314  1.1475 -0.2693
 6100TIP3    H239792   1.049   0.656  16.354  0.2782  0.9330 -1.0835
 6101TIP3   OH239793   1.414   2.911  14.492 -0.1251 -0.5501  0.4456
 6101TIP3    H139794   1.355   2.943  14.424 -1.3352 -0.8475  1.3189
 6101TIP3    H239795   1.380   2.948  14.573  1.9980  0.8112  0.8086
 6102TIP3   OH239796   4.910   1.989   5.542  0.2715  0.7945  0.4465
 6102TIP3    H139797   4.962   2.050   5.595  2.0948 -1.4433  1.4284
 6102TIP3    H239798   4.973   1.951   5.481 -0.8230 -0.0663 -0.1803
 6103TIP3   OH239799   3.419   6.720   1.320  0.3958 -0.6502 -0.6045
 6103TIP3    H139800   3.459   6.758   1.398  0.8858  0.5209 -1.4079
 6103TIP3    H239801   3.436   6.783   1.250 -3.3603  0.2920 -0.8984
 6104TIP3   OH239802   5.162   1.841  13.441  0.0086  0.2554  0.2197
 6104TIP3    H139803   5.173   1.765  13.497 -1.3503  0.2622  0.5433
 6104TIP3    H239804   5.220   1.825  13.367 -0.1967 -1.0686  0.3172
 6105TIP3   OH239805   1.328   0.649  17.052  0.1008  0.2503  0.1255
 6105TIP3    H139806   1.319   0.737  17.014 -0.3684  0.1298 -0.0502
 6105TIP3    H239807   1.338   0.591  16.976 -1.2658 -0.0430  0.1469
 6106TIP3   OH239808   3.937   6.200   5.363 -0.2028  0.0312 -0.2096
 6106TIP3    H139809   4.015   6.244   5.397 -1.8934  1.1322  2.5667
 6106TIP3    H239810   3.961   6.107   5.363  1.2098  0.3647  0.3022
 6107TIP3   OH239811   3.154   6.008   5.657  0.3225 -1.1863  0.1496
 6107TIP3    H139812   3.073   5.963   5.677 -0.2511 -0.4304 -0.3977
 6107TIP3    H239813   3.168   6.068   5.730 -1.1240  0.6947 -1.0217
 6108TIP3   OH239814   6.429   0.600  16.908 -0.1643 -0.3170 -0.5477
 6108TIP3    H139815   6.464   0.548  16.981 -0.7391  1.0199  0.7314
 6108TIP3    H239816   6.372   0.540  16.861  1.6209 -1.7317 -1.0082
 6109TIP3   OH239817   6.678   0.438  14.716 -0.1702 -0.0316 -0.0551
 6109TIP3    H139818   6.590   0.475  14.723  0.0362  0.5063 -0.2024
 6109TIP3    H239819   6.667   0.345  14.734 -0.3914  0.4317  2.6623
 6110TIP3   OH239820   1.569   0.113  13.764 -0.0301 -0.3664  0.6004
 6110TIP3    H139821   1.480   0.132  13.734 -0.4216 -0.7601  1.4720
 6110TIP3    H239822   1.574   0.017  13.765  0.9490 -0.3754 -0.9537
 6111TIP3   OH239823   5.722   1.777  13.981  0.0207  0.0212 -0.2841
 6111TIP3    H139824   5.771   1.723  13.919 -0.6367 -0.5461 -0.3118
 6111TIP3    H239825   5.787   1.802  14.048  1.0377  1.5918 -1.7634
 6112TIP3   OH239826   0.208   2.034  16.786 -0.1623  0.3437 -0.3650
 6112TIP3    H139827   0.156   2.113  16.774  2.3851  2.2452  0.2549
 6112TIP3    H239828   0.285   2.063  16.835  1.5591 -2.2565 -1.3056
 6113TIP3   OH239829   1.126   2.489  14.513  0.3575  0.5664 -0.5566
 6113TIP3    H139830   1.055   2.548  14.488  0.2369  1.3986  1.5582
 6113TIP3    H239831   1.206   2.539  14.495  0.3697  0.1722 -1.6264
 6114TIP3   OH239832   5.815   4.266  11.366  0.5541  0.7135  0.1916
 6114TIP3    H139833   5.758   4.197  11.400  0.2354 -0.3457 -2.3046
 6114TIP3    H239834   5.758   4.320  11.312  1.2480  1.7215  0.4420
 6115TIP3   OH239835   5.685   0.128   1.792  0.3234  0.0930  0.1483
 6115TIP3    H139836   5.744   0.106   1.719  0.0502 -0.0274 -0.0359
 6115TIP3    H239837   5.610   0.171   1.750  0.1443 -0.0157  0.3561
 6116TIP3   OH239838   3.998   5.651   1.392 -0.1655  0.7656  0.4726
 6116TIP3    H139839   3.996   5.727   1.450  1.7041  2.1340 -1.1250
 6116TIP3    H239840   3.967   5.684   1.308  2.3352  0.2903 -0.7253
 6117TIP3   OH239841   1.706   3.475   0.747  0.0972 -0.3223 -0.4229
 6117TIP3    H139842   1.758   3.483   0.827 -2.4946  2.2581  1.1947
 6117TIP3    H239843   1.650   3.399   0.761 -1.0553  0.7061  0.7352
 6118TIP3   OH239844   0.080   2.070   5.845  0.1764 -0.3456  0.2488
 6118TIP3    H139845  -0.013   2.066   5.865  0.6026 -1.4895  2.2504
 6118TIP3    H239846   0.121   2.105   5.924  1.5118 -0.3328 -0.4054
 6119TIP3   OH239847   6.127   1.776   1.424  0.8499  0.4355  0.4919
 6119TIP3    H139848   6.150   1.810   1.337  0.9329  1.6263  0.9641
 6119TIP3    H239849   6.040   1.810   1.441  0.5024 -0.4629  0.5540
 6120TIP3   OH239850   3.902   1.003  11.697 -0.2013  0.3291 -0.1195
 6120TIP3    H139851   3.949   0.959  11.626 -0.0109  1.0314 -0.4480
 6120TIP3    H239852   3.827   0.947  11.715  0.6258 -0.6767  0.2362
 6121TIP3   OH239853   0.796   0.551   1.361 -0.4545 -0.8292  0.0829
 6121TIP3    H139854   0.704   0.556   1.335  0.0918 -1.0205 -2.0269
 6121TIP3    H239855   0.801   0.605   1.441 -1.9463  1.2163 -1.1051
 6122TIP3   OH239856   3.471   2.802   3.415 -0.0606 -0.4429 -0.4893
 6122TIP3    H139857   3.402   2.858   3.378 -0.2890 -1.2594 -1.3438
 6122TIP3    H239858   3.536   2.796   3.345  1.4106  1.1639  0.6777
 6123TIP3   OH239859   2.231   1.236  15.412 -0.1722  0.1432  0.8250
 6123TIP3    H139860   2.283   1.173  15.461  0.7691 -0.0790 -0.4014
 6123TIP3    H239861   2.154   1.252  15.467  0.6202 -0.4109  2.1428
 6124TIP3   OH239862   3.408   6.667  14.954 -0.0031  0.0159 -0.5272
 6124TIP3    H139863   3.392   6.651  14.861 -1.2834  0.3435 -0.3771
 6124TIP3    H239864   3.391   6.760  14.966 -1.6872 -0.3604  0.3653
 6125TIP3   OH239865   5.927   1.617   5.364 -0.2528  0.7456  0.0448
 6125TIP3    H139866   5.912   1.661   5.281  0.3430  1.0204  0.0824
 6125TIP3    H239867   5.948   1.687   5.426 -1.9763  0.6964  0.7620
 6126TIP3   OH239868   0.583   5.781   0.659  0.4747  0.2943 -0.6557
 6126TIP3    H139869   0.607   5.741   0.575 -1.4859  1.2138 -1.7326
 6126TIP3    H239870   0.620   5.869   0.655  0.9999  0.0976 -0.2205
 6127TIP3   OH239871   3.340   6.301   4.655 -0.2289  0.0114 -0.4376
 6127TIP3    H139872   3.375   6.212   4.654  3.3908  1.1872  2.2217
 6127TIP3    H239873   3.288   6.306   4.735 -1.5426 -0.0296 -1.2676
 6128TIP3   OH239874   1.783   1.334   1.885  0.5873  0.2381  0.0581
 6128TIP3    H139875   1.820   1.248   1.869  0.7156  0.5357 -1.4606
 6128TIP3    H239876   1.690   1.324   1.864  0.8613  0.7769 -1.6041
 6129TIP3   OH239877   4.782   2.697   3.879  0.0793 -0.5223  0.2675
 6129TIP3    H139878   4.791   2.785   3.917  0.9256 -0.6574  0.3956
 6129TIP3    H239879   4.717   2.654   3.935  1.0728 -0.6127  1.4039
 6130TIP3   OH239880   3.181   2.277   5.397 -0.4367 -0.2050 -0.3997
 6130TIP3    H139881   3.156   2.208   5.335  0.2172 -0.8050 -0.0172
 6130TIP3    H239882   3.098   2.319   5.420 -0.9050 -1.0934 -0.3902
 6131TIP3   OH239883   5.118   6.688   0.881 -0.9302 -0.9320  0.1475
 6131TIP3    H139884   5.067   6.748   0.827 -0.0214 -0.9232 -0.7422
 6131TIP3    H239885   5.117   6.605   0.833 -1.3414 -1.3538  0.8674
 6132TIP3   OH239886   5.011   4.752  13.622  0.4863  0.5809 -0.3302
 6132TIP3    H139887   5.072   4.819  13.651  1.0451  0.0242 -0.1824
 6132TIP3    H239888   5.061   4.699  13.560  0.3523 -0.2551  0.2581
 6133TIP3   OH239889   6.451   1.702  17.120 -0.6045  0.4856 -0.1687
 6133TIP3    H139890   6.382   1.658  17.169  0.2498 -0.4910  0.2143
 6133TIP3    H239891   6.447   1.793  17.149 -1.4217  0.3422  0.1917
 6134TIP3   OH239892   4.627   0.358   0.552 -0.3391 -0.4696 -0.2275
 6134TIP3    H139893   4.593   0.340   0.464  1.6966  0.3484 -1.2606
 6134TIP3    H239894   4.708   0.407   0.537  0.2942 -0.6573  2.1104
 6135TIP3   OH239895   4.507   6.274   5.175 -0.3919  0.4556  0.3636
 6135TIP3    H139896   4.599   6.297   5.186 -0.3800  1.8568 -1.9663
 6135TIP3    H239897   4.459   6.354   5.198 -0.8245  0.6093 -0.9757
 6136TIP3   OH239898   5.311   5.122  11.970  0.6020 -0.2122 -0.4691
 6136TIP3    H139899   5.316   5.042  11.917 -0.0645  1.2715 -2.9575
 6136TIP3    H239900   5.297   5.091  12.059 -2.8778 -2.8703 -1.7132
 6137TIP3   OH239901   2.855   1.029  13.299  0.0580 -0.3851  0.0061
 6137TIP3    H139902   2.899   1.114  13.301 -2.4808  1.0322  2.0866
 6137TIP3    H239903   2.797   1.034  13.223 -0.1364 -0.2251  0.1638
 6138TIP3   OH239904   0.021   4.714  11.240  0.1918  0.6894  0.4360
 6138TIP3    H139905  -0.046   4.703  11.173  0.4830  0.8316  0.1183
 6138TIP3    H239906   0.065   4.796  11.216  1.1268  0.0934  0.0791
 6139TIP3   OH239907   0.692   0.724  15.010  0.4908 -0.2120  0.1797
 6139TIP3    H139908   0.728   0.776  15.082  1.5157 -1.2022  0.4140
 6139TIP3    H239909   0.704   0.779  14.933  1.0765  0.1212  0.4985
 6140TIP3   OH239910   6.487   0.306  16.279  0.2794 -0.2397  0.8529
 6140TIP3    H139911   6.425   0.233  16.268  0.5218 -0.6497  2.0432
 6140TIP3    H239912   6.496   0.343  16.192 -1.1400 -0.5854  0.5352
 6141TIP3   OH239913   6.399   1.640   1.950  0.9356  0.3262 -0.1929
 6141TIP3    H139914   6.350   1.633   2.032  0.3684  0.8212 -0.4858
 6141TIP3    H239915   6.394   1.732   1.927  0.4419  0.0610 -1.1783
 6142TIP3   OH239916   1.578   0.544   4.172  0.0313  0.2116 -0.2545
 6142TIP3    H139917   1.615   0.632   4.170  2.9233 -0.8930 -2.3833
 6142TIP3    H239918   1.556   0.525   4.080  0.6370 -1.7140 -0.0455
 6143TIP3   OH239919   2.387   0.793   1.699 -0.0137  0.7338 -0.6041
 6143TIP3    H139920   2.364   0.817   1.609  1.8687 -0.5912 -1.5016
 6143TIP3    H239921   2.480   0.814   1.706  0.0302  0.1594  0.8093
 6144TIP3   OH239922   3.941   2.924  13.756 -0.7764  0.5292  0.2717
 6144TIP3    H139923   3.899   2.859  13.812 -1.1362  0.1988 -0.3643
 6144TIP3    H239924   3.945   2.882  13.670  1.5085  0.2653  0.4554
 6145TIP3   OH239925   4.511   0.003  11.801  0.0521  0.5992  0.5268
 6145TIP3    H139926   4.596  -0.012  11.758 -0.4174 -0.2648 -0.1287
 6145TIP3    H239927   4.531  -0.005  11.894  0.4545 -0.9823  0.3312
 6146TIP3   OH239928   4.081   5.037   4.872 -0.7394 -0.4171 -0.1125
 6146TIP3    H139929   4.115   5.106   4.815 -0.4129  0.8894  1.5789
 6146TIP3    H239930   4.158   5.002   4.917 -1.1806  0.0993  1.1054
 6147TIP3   OH239931   3.438   4.820   0.088 -0.0969  0.2011  0.5547
 6147TIP3    H139932   3.408   4.784   0.004  1.1375 -0.9066  0.5628
 6147TIP3    H239933   3.452   4.913   0.070  0.3830 -0.0677 -0.5405
 6148TIP3   OH239934   5.349   5.215   5.563  0.7938  0.9235 -0.0523
 6148TIP3    H139935   5.260   5.238   5.590  1.6080  1.0899  2.7298
 6148TIP3    H239936   5.384   5.296   5.526 -0.2642  0.7636 -1.5094
 6149TIP3   OH239937   4.720   4.234  13.237  0.0486  0.2530  0.4182
 6149TIP3    H139938   4.656   4.293  13.196  0.1883 -1.0115 -1.7249
 6149TIP3    H239939   4.670   4.189  13.305 -0.6633  1.0759  0.4665
 6150TIP3   OH239940   1.432   0.808   2.949 -0.2002 -0.5653  0.2745
 6150TIP3    H139941   1.452   0.719   2.977 -0.7857 -0.4046  1.2454
 6150TIP3    H239942   1.336   0.811   2.944 -0.2302  0.2671  1.1616
 6151TIP3   OH239943   5.353   2.680   3.512 -0.1423  0.6081 -0.2996
 6151TIP3    H139944   5.409   2.753   3.483  0.2122  0.5778  0.3099
 6151TIP3    H239945   5.413   2.608   3.527 -0.3854  0.4828  0.0672
 6152TIP3   OH239946   1.320   0.253   0.065 -0.3908  0.2839  0.0323
 6152TIP3    H139947   1.319   0.159   0.084  2.3956  0.0022 -0.6742
 6152TIP3    H239948   1.386   0.262  -0.004 -2.1817  2.5291 -1.5016
 6153TIP3   OH239949   5.772   3.389  14.857  0.4593  0.0734 -0.7347
 6153TIP3    H139950   5.731   3.374  14.772 -0.5438  0.9522 -0.4204
 6153TIP3    H239951   5.816   3.473  14.847  1.3323 -0.3719 -0.7362
 6154TIP3   OH239952   3.529   5.739   5.108 -0.1413 -0.2106  0.3528
 6154TIP3    H139953   3.584   5.693   5.044  1.4969 -0.8915  2.1436
 6154TIP3    H239954   3.542   5.832   5.089 -0.4024 -0.3934 -0.8362
 6155TIP3   OH239955   6.228   1.061  11.617  0.0731 -0.3206  0.1373
 6155TIP3    H139956   6.229   1.149  11.581  0.6987  0.6648  2.3891
 6155TIP3    H239957   6.142   1.052  11.658 -0.5721 -1.3678 -1.3406
 6156TIP3   OH239958   5.487   6.034   6.031  0.4455 -0.0167  0.3102
 6156TIP3    H139959   5.419   6.099   6.017 -1.8204 -2.1679  0.5137
 6156TIP3    H239960   5.569   6.083   6.028 -1.0983  2.7508  0.2904
 6157TIP3   OH239961   4.415   5.672  11.556  0.2338 -0.5004 -0.3980
 6157TIP3    H139962   4.504   5.644  11.579  0.6728  2.2178  1.7765
 6157TIP3    H239963   4.426   5.723  11.475  1.0546  1.3329  0.7988
 6158TIP3   OH239964   6.256   1.941  16.895 -0.2877 -0.5309 -0.1064
 6158TIP3    H139965   6.351   1.950  16.889 -0.1389 -0.3297  1.7260
 6158TIP3    H239966   6.239   1.848  16.880  0.1935 -0.5554 -0.5127
 6159TIP3   OH239967   1.025   3.198  13.838 -0.2992  0.2766  0.0684
 6159TIP3    H139968   1.115   3.186  13.867 -0.2440 -0.8250 -0.4766
 6159TIP3    H239969   0.974   3.140  13.894 -0.9531  2.2387  1.6031
 6160TIP3   OH239970   2.794   1.115  13.638  0.1310 -0.4186 -0.2981
 6160TIP3    H139971   2.819   1.195  13.684  0.1422  0.2229 -1.3881
 6160TIP3    H239972   2.699   1.111  13.646  0.1313 -0.3002 -0.2418
 6161TIP3   OH239973   0.424   0.553   4.980  0.0897 -0.0586  0.5697
 6161TIP3    H139974   0.385   0.561   5.067 -0.1094  1.6335  0.3585
 6161TIP3    H239975   0.518   0.556   4.996  0.1413 -2.2671  0.9153
 6162TIP3   OH239976   5.378   5.796  14.528  0.8473 -1.0639  0.5063
 6162TIP3    H139977   5.415   5.770  14.444  0.6329 -0.2986  0.1657
 6162TIP3    H239978   5.425   5.876  14.552 -1.2310  0.5167 -0.4388
 6163TIP3   OH239979   2.630   1.156  16.780  0.0302 -0.0837  0.4595
 6163TIP3    H139980   2.656   1.083  16.724 -0.1817  0.2020 -0.0190
 6163TIP3    H239981   2.709   1.178  16.829  0.0180 -0.8149  0.8102
 6164TIP3   OH239982   4.152   5.998   4.679 -0.2655 -0.0760 -0.5295
 6164TIP3    H139983   4.161   6.018   4.585  0.6713  0.5419 -0.3180
 6164TIP3    H239984   4.128   6.081   4.719 -0.0146 -0.1969 -0.1284
 6165TIP3   OH239985   2.869   4.506  12.630 -0.1108 -0.2423 -0.3764
 6165TIP3    H139986   2.895   4.414  12.634  1.0470  0.1095  0.5587
 6165TIP3    H239987   2.774   4.504  12.644 -0.0604 -1.2628 -0.0892
 6166TIP3   OH239988   5.670   5.623  16.151  0.6889 -0.0401 -0.3637
 6166TIP3    H139989   5.730   5.605  16.079 -1.6472 -1.8435 -2.0093
 6166TIP3    H239990   5.613   5.546  16.155 -2.0134  1.8516  0.5435
 6167TIP3   OH239991   4.041   5.247  16.960 -0.8185 -0.3155 -0.2031
 6167TIP3    H139992   4.112   5.191  16.930  0.3496  0.2723  1.3568
 6167TIP3    H239993   3.995   5.273  16.880  0.7469 -0.6776 -1.2574
 6168TIP3   OH239994   2.573   1.381   6.184 -0.7534 -0.1540  0.3070
 6168TIP3    H139995   2.519   1.394   6.262  0.9868  0.0154  1.5481
 6168TIP3    H239996   2.663   1.394   6.215  0.0615 -1.0592 -1.5227
 6169TIP3   OH239997   1.358   4.276  13.485  0.2612  0.3199  0.2807
 6169TIP3    H139998   1.313   4.209  13.433  1.3821 -0.2877  0.0646
 6169TIP3    H239999   1.335   4.359  13.443 -0.0914 -0.0347 -0.2324
 6170TIP3   OH240000   2.238   1.379  12.312  0.0800 -0.9415 -0.4261
 6170TIP3    H140001   2.275   1.364  12.399 -0.9392  0.6300  0.3339
 6170TIP3    H240002   2.216   1.472  12.312 -0.0873 -0.9549 -2.3238
 6171TIP3   OH240003   3.764   4.006  11.077 -0.1035 -0.5542 -0.1657
 6171TIP3    H140004   3.788   3.913  11.081  0.4167 -0.4021  0.4381
 6171TIP3    H240005   3.680   4.011  11.122 -0.5252 -0.8509 -0.9059
 6172TIP3   OH240006   5.934   4.906  10.827 -0.4997 -0.5558  0.4802
 6172TIP3    H140007   5.893   4.971  10.769 -1.6115 -0.5523  1.2347
 6172TIP3    H240008   5.907   4.822  10.790 -1.1766 -0.5536  0.9384
 6173TIP3   OH240009   0.928   6.743  11.652  0.0719 -0.9561 -0.5752
 6173TIP3    H140010   1.003   6.688  11.675  0.6699 -0.6977 -1.8215
 6173TIP3    H240011   0.956   6.791  11.575 -1.0825 -0.2122 -0.5594
 6174TIP3   OH240012   5.332   6.046  11.591 -0.4003  0.6119  0.3810
 6174TIP3    H140013   5.369   6.088  11.514 -0.2401 -1.1968 -0.5771
 6174TIP3    H240014   5.408   6.010  11.638 -0.6432  0.0734  0.3678
 6175TIP3   OH240015   5.792   4.142  15.325 -0.3704 -0.2653  0.0565
 6175TIP3    H140016   5.823   4.228  15.351 -1.3251 -0.1678  0.9187
 6175TIP3    H240017   5.758   4.103  15.405 -1.7683 -0.6632 -0.6864
 6176TIP3   OH240018   2.374   0.237  11.606 -0.1169  0.4033  0.1100
 6176TIP3    H140019   2.462   0.264  11.633  0.2216 -1.2442  0.7803
 6176TIP3    H240020   2.337   0.193  11.683 -0.9767 -0.1912 -0.6194
 6177TIP3   OH240021   5.077   1.527  16.427 -0.4776 -0.4001 -0.0096
 6177TIP3    H140022   4.984   1.552  16.425 -1.2313 -2.8219  1.2633
 6177TIP3    H240023   5.124   1.609  16.411 -2.7993  1.2124  0.8949
 6178TIP3   OH240024   5.794   3.269  16.547  0.1014  0.5685  0.6179
 6178TIP3    H140025   5.704   3.245  16.569  0.1539 -0.1514  0.0756
 6178TIP3    H240026   5.844   3.253  16.627 -0.0821  0.0079  0.6243
 6179TIP3   OH240027   6.504   3.456   4.301  0.2610  0.1516  0.1500
 6179TIP3    H140028   6.538   3.488   4.385 -0.0093 -0.5198  0.5231
 6179TIP3    H240029   6.413   3.484   4.300  0.1645 -0.1651  0.2440
 6180TIP3   OH240030   0.641   4.997  13.858  0.3392  0.4291 -0.1511
 6180TIP3    H140031   0.549   4.988  13.884  0.0910  0.0968 -1.0729
 6180TIP3    H240032   0.675   5.068  13.912 -0.8844  1.6126 -0.8823
 6181TIP3   OH240033   4.599   1.369  14.340  0.7617  0.0359 -0.3033
 6181TIP3    H140034   4.564   1.281  14.356 -1.4893  0.7753 -0.7321
 6181TIP3    H240035   4.673   1.378  14.400 -1.3485 -0.7777  2.6233
 6182TIP3   OH240036   1.753   0.573  12.272 -0.4704 -0.2612  0.7766
 6182TIP3    H140037   1.709   0.517  12.208 -0.7078  1.5099 -0.7093
 6182TIP3    H240038   1.689   0.585  12.342 -2.1374  1.5732 -0.9347
 6183TIP3   OH240039   4.161   6.811  11.924  0.7463  0.0807  0.0318
 6183TIP3    H140040   4.128   6.801  11.834 -0.7207  1.1693  0.4068
 6183TIP3    H240041   4.195   6.725  11.947 -1.5853 -1.0801 -0.5476
 6184TIP3   OH240042   3.365   0.376  14.945  0.1458 -0.1742 -0.3169
 6184TIP3    H140043   3.347   0.421  15.027  0.0154  0.3392 -0.6166
 6184TIP3    H240044   3.458   0.392  14.929  0.0525  0.1834 -0.5296
 6185TIP3   OH240045   2.805   4.788  11.825  0.4522 -0.1268 -0.1564
 6185TIP3    H140046   2.776   4.874  11.793  1.5692 -0.1612 -1.3138
 6185TIP3    H240047   2.766   4.726  11.764  0.7446 -0.3527 -0.1128
 6186TIP3   OH240048   1.102   4.364   5.721 -0.1469 -0.2142  0.4860
 6186TIP3    H140049   1.149   4.444   5.746  2.5223 -0.7881 -2.1359
 6186TIP3    H240050   1.167   4.294   5.728 -0.4296 -1.0842 -3.2092
 6187TIP3   OH240051   4.501   1.256  11.892  0.3706  0.1139  0.4972
 6187TIP3    H140052   4.417   1.234  11.852  0.2730  2.9444 -1.1663
 6187TIP3    H240053   4.557   1.181  11.875 -0.8980 -0.4709 -1.3353
 6188TIP3   OH240054   4.338   4.879  16.054  0.2949 -0.0758  0.4561
 6188TIP3    H140055   4.397   4.935  16.004  0.5862 -1.4067 -0.7542
 6188TIP3    H240056   4.257   4.930  16.061  1.0170  1.0776  0.6652
 6189TIP3   OH240057   1.073   3.848   4.874 -0.0733  0.3479 -0.2294
 6189TIP3    H140058   1.046   3.757   4.888 -1.4629  0.7386 -0.1759
 6189TIP3    H240059   1.162   3.842   4.839 -0.1781 -1.0309 -0.3203
 6190TIP3   OH240060   1.476   1.339  13.939  0.0126 -0.7172 -0.2902
 6190TIP3    H140061   1.470   1.383  13.854 -1.6805 -0.1153  0.1056
 6190TIP3    H240062   1.562   1.296  13.937  0.3964  0.0226 -1.9340
 6191TIP3   OH240063   0.183   0.066  15.121 -0.5250 -0.0422 -0.0494
 6191TIP3    H140064   0.259   0.121  15.104 -1.2218  0.4353 -1.7726
 6191TIP3    H240065   0.220  -0.023  15.128  0.1775  0.1555 -1.0287
 6192TIP3   OH240066   4.189   1.258   2.544  0.2183  0.1281  0.7620
 6192TIP3    H140067   4.222   1.316   2.476  0.6739  0.2779  1.1033
 6192TIP3    H240068   4.108   1.222   2.509 -0.9098  2.1758  1.1441
 6193TIP3   OH240069   4.748   6.671  11.723 -0.5118 -0.1907  0.3595
 6193TIP3    H140070   4.844   6.664  11.722 -0.5536 -1.4142 -1.8449
 6193TIP3    H240071   4.718   6.585  11.751 -0.9638 -0.2004 -0.1472
 6194TIP3   OH240072   5.924   5.747   3.816 -0.0730 -0.0778 -0.0579
 6194TIP3    H140073   5.963   5.811   3.756  1.8852 -1.5127 -0.4139
 6194TIP3    H240074   5.889   5.679   3.758 -0.9709  0.0334  0.3479
 6195TIP3   OH240075   2.421   2.920   1.552  0.1749  0.1707  0.6990
 6195TIP3    H140076   2.386   2.989   1.497 -0.4788  0.1130  1.0342
 6195TIP3    H240077   2.491   2.962   1.602 -0.3550  0.6414  1.0501
 6196TIP3   OH240078   5.960   2.794   3.363  0.4048 -0.7954  0.4145
 6196TIP3    H140079   5.933   2.752   3.281 -0.8878  0.2575  0.2548
 6196TIP3    H240080   6.030   2.854   3.337 -0.5455  0.1336 -0.1086
 6197TIP3   OH240081   1.600   5.787   5.580 -0.0916 -0.0995  0.3365
 6197TIP3    H140082   1.693   5.811   5.585  0.1947 -1.2244  0.6373
 6197TIP3    H240083   1.579   5.754   5.667 -1.1728  1.4830  0.7008
 6198TIP3   OH240084   2.814   4.350   2.170  0.4891 -0.3188 -0.1693
 6198TIP3    H140085   2.764   4.291   2.227 -0.9201 -1.8647 -2.8451
 6198TIP3    H240086   2.798   4.437   2.207  1.2624 -1.3224  2.8955
 6199TIP3   OH240087   3.386   2.487  11.315 -0.0314 -0.4548 -0.4549
 6199TIP3    H140088   3.448   2.538  11.263 -1.3281 -0.2218 -1.8490
 6199TIP3    H240089   3.344   2.428  11.252  0.5660 -2.4252  0.9103
 6200TIP3   OH240090   4.690   2.457   0.420  0.0475 -0.3141 -0.2353
 6200TIP3    H140091   4.712   2.527   0.359  0.9766 -0.1160  0.3061
 6200TIP3    H240092   4.773   2.414   0.439  0.0059  0.4314  1.8665
 6201TIP3   OH240093   2.311   4.080  13.380  0.0917 -0.4380 -0.4529
 6201TIP3    H140094   2.261   4.124  13.448 -0.7787 -1.2219 -0.5615
 6201TIP3    H240095   2.289   4.127  13.300  1.8350  1.0802 -0.1121
 6202TIP3   OH240096   4.913   6.349   3.431 -0.1480  0.0802 -0.2823
 6202TIP3    H140097   5.000   6.345   3.393  1.0654 -1.4914  2.3628
 6202TIP3    H240098   4.854   6.324   3.360  1.6198  0.4670 -1.9347
 6203TIP3   OH240099   1.209   6.629   6.455  0.4668  0.1499 -0.1245
 6203TIP3    H140100   1.234   6.720   6.472 -0.6868  0.5612 -0.4775
 6203TIP3    H240101   1.116   6.634   6.432  0.2331 -1.1915  0.4149
 6204TIP3   OH240102   4.568   6.399   5.530  0.4756  0.8121 -0.4561
 6204TIP3    H140103   4.489   6.347   5.513  1.7064 -0.9963 -0.9508
 6204TIP3    H240104   4.638   6.334   5.541  1.9748  2.3555 -0.4154
 6205TIP3   OH240105   1.945   0.777  16.169 -0.1739 -0.9974 -0.1080
 6205TIP3    H140106   1.930   0.857  16.118  0.0300 -0.5491  0.5163
 6205TIP3    H240107   1.932   0.706  16.107 -1.6370 -0.5220 -0.3808
 6206TIP3   OH240108   2.042   0.787  15.731  0.2914  0.0222 -0.3032
 6206TIP3    H140109   1.963   0.732  15.726  0.6483 -0.4733 -0.5693
 6206TIP3    H240110   2.114   0.724  15.733  0.6715  0.4662  0.2214
 6207TIP3   OH240111   2.271   0.031   4.596 -0.3162  0.2885  0.3288
 6207TIP3    H140112   2.256  -0.003   4.508  1.1031  3.1894 -1.1631
 6207TIP3    H240113   2.346   0.090   4.587 -0.1147  0.7091  3.5028
 6208TIP3   OH240114   0.739   3.770   1.847 -0.3476  0.3893 -0.2642
 6208TIP3    H140115   0.685   3.848   1.861 -2.8210 -1.3691  0.6136
 6208TIP3    H240116   0.758   3.771   1.753 -1.7971  1.1752 -0.5799
 6209TIP3   OH240117   2.117   2.870   6.672  0.1402  0.2646  0.4347
 6209TIP3    H140118   2.132   2.883   6.579  0.6373 -1.5364  0.2234
 6209TIP3    H240119   2.073   2.785   6.678  0.8877 -0.0612  1.8891
 6210TIP3   OH240120   1.316   1.469  16.391 -0.5264  0.3430  0.2213
 6210TIP3    H140121   1.310   1.374  16.391  0.1246  0.2807  1.3080
 6210TIP3    H240122   1.245   1.498  16.448  0.5400  0.3759  1.5712
 6211TIP3   OH240123   5.704   2.609   2.973 -0.0886  0.6102  0.1903
 6211TIP3    H140124   5.653   2.541   3.015  0.2447  0.0090 -0.3582
 6211TIP3    H240125   5.641   2.679   2.955  0.0894  1.7812  3.4387
 6212TIP3   OH240126   0.687   6.596   0.017  0.2141  0.3567 -0.3729
 6212TIP3    H140127   0.747   6.662   0.049 -0.6578  2.2877 -2.4396
 6212TIP3    H240128   0.611   6.645  -0.014 -1.2105 -1.7559 -0.4655
 6213TIP3   OH240129   4.666   0.331  10.837  1.0066  0.1307  0.0181
 6213TIP3    H140130   4.608   0.395  10.795  0.9374 -0.6024 -1.0298
 6213TIP3    H240131   4.630   0.321  10.925 -0.2097  0.0156 -0.4722
 6214TIP3   OH240132   4.645   3.991   3.674 -0.0125  0.2129 -0.0887
 6214TIP3    H140133   4.579   4.042   3.627 -0.0447  0.5634  0.3310
 6214TIP3    H240134   4.605   3.972   3.759  0.3462  0.2476  0.0902
 6215TIP3   OH240135   6.059   5.421   4.482 -0.3114 -0.2251 -0.3867
 6215TIP3    H140136   6.143   5.433   4.527 -0.1676 -0.6062 -0.5485
 6215TIP3    H240137   6.043   5.326   4.487 -0.5715 -0.1947 -0.6442
 6216TIP3   OH240138   4.770   2.171  13.633  0.5463  0.2909 -0.4452
 6216TIP3    H140139   4.770   2.111  13.708  0.4769  0.9111  0.0625
 6216TIP3    H240140   4.724   2.123  13.564 -1.4234  0.5237  0.6020
 6217TIP3   OH240141   0.205   5.962   5.280 -0.5427 -0.1964 -0.3983
 6217TIP3    H140142   0.138   6.000   5.338 -0.4151  0.2843 -0.5639
 6217TIP3    H240143   0.161   5.887   5.239 -0.8289 -0.1688 -0.1453
 6218TIP3   OH240144   0.574   2.388   4.058 -0.1248 -0.2448  0.5096
 6218TIP3    H140145   0.588   2.326   3.986 -2.9040 -1.4864  0.9177
 6218TIP3    H240146   0.642   2.367   4.122  0.7672 -0.8987 -0.6256
 6219TIP3   OH240147   6.540   4.596  16.322  0.0499  0.4852 -0.0911
 6219TIP3    H140148   6.466   4.648  16.292  1.1013  1.9391 -0.2792
 6219TIP3    H240149   6.617   4.647  16.295  1.2415 -2.1628 -2.2132
 6220TIP3   OH240150   4.170   4.436   2.175  0.0974 -1.0196  0.2030
 6220TIP3    H140151   4.163   4.420   2.081  2.0706  1.6149 -0.5252
 6220TIP3    H240152   4.262   4.459   2.189 -0.1216 -1.4174  2.8116
 6221TIP3   OH240153   5.547   3.848   3.700 -0.3150  0.3186 -0.2369
 6221TIP3    H140154   5.567   3.785   3.631  0.6427 -1.2055  1.3697
 6221TIP3    H240155   5.488   3.802   3.759  0.2205  0.9895  0.8570
 6222TIP3   OH240156   4.907   2.429   3.324 -0.2409 -0.2566 -0.4054
 6222TIP3    H140157   4.968   2.502   3.314 -0.3139 -0.3725 -2.0736
 6222TIP3    H240158   4.940   2.379   3.399  2.3369 -0.8730 -1.8237
 6223TIP3   OH240159   1.124   0.468   2.881  0.3181 -0.4859 -0.4567
 6223TIP3    H140160   1.162   0.427   2.959 -0.7000  1.5214  1.2062
 6223TIP3    H240161   1.031   0.448   2.887  0.2634 -0.5021 -1.3095
 6224TIP3   OH240162   5.322   2.064  10.850 -0.9936 -0.3844 -0.6833
 6224TIP3    H140163   5.251   2.002  10.862 -0.0094 -1.2650  1.0729
 6224TIP3    H240164   5.400   2.009  10.838 -0.2883  0.5322 -0.4178
 6225TIP3   OH240165   4.626   6.284   6.567  0.2795  0.3980 -0.6494
 6225TIP3    H140166   4.713   6.312   6.539  0.1852  0.8106 -0.5477
 6225TIP3    H240167   4.624   6.304   6.661  0.4146 -0.4984 -0.4551
 6226TIP3   OH240168   4.868   5.200   4.992 -0.2377  0.0247  0.1778
 6226TIP3    H140169   4.847   5.164   5.078 -0.2416 -1.3053 -0.3482
 6226TIP3    H240170   4.907   5.126   4.945 -0.7390  0.5729 -1.1341
 6227TIP3   OH240171   1.111   4.021  11.779  0.3153 -0.1051  0.0016
 6227TIP3    H140172   1.204   4.043  11.786  0.0368  0.5606  2.7576
 6227TIP3    H240173   1.110   3.926  11.767  1.3343 -0.0855 -0.3956
 6228TIP3   OH240174   4.378   3.824   5.996 -0.1732  0.1755 -0.2195
 6228TIP3    H140175   4.408   3.913   6.013 -0.4627  0.4543 -1.1129
 6228TIP3    H240176   4.456   3.769   6.007  0.0353  0.5564  0.1983
 6229TIP3   OH240177   5.181   0.240  14.622  0.1021  0.3713 -0.0155
 6229TIP3    H140178   5.226   0.254  14.705 -1.0545  0.7620  0.5593
 6229TIP3    H240179   5.140   0.154  14.631 -0.6349  0.7318  0.1037
 6230TIP3   OH240180   5.976   5.051   3.988 -0.1932  0.0857  0.3093
 6230TIP3    H140181   5.895   5.101   3.995 -0.2573  0.4865 -2.3839
 6230TIP3    H240182   5.951   4.971   3.942  0.9215  0.1789 -0.4756
 6231TIP3   OH240183   0.831   1.235  16.449 -0.0005  1.1600  0.1466
 6231TIP3    H140184   0.923   1.262  16.443  0.6205 -1.0597 -2.2455
 6231TIP3    H240185   0.783   1.316  16.466  2.2690  2.5919  0.1858
 6232TIP3   OH240186   4.255   0.214   0.889  0.3647 -0.6453 -0.4522
 6232TIP3    H140187   4.255   0.233   0.983  1.4042  0.1467 -0.5927
 6232TIP3    H240188   4.225   0.296   0.849  0.5553 -0.7627 -0.8351
 6233TIP3   OH240189   1.872   5.722  10.832  0.0746 -0.6218  0.1129
 6233TIP3    H140190   1.808   5.716  10.761  1.2477  2.6839 -1.3910
 6233TIP3    H240191   1.821   5.755  10.906 -0.2970  0.4992 -0.6163
 6234TIP3   OH240192   1.899   4.773   0.552  0.1774 -0.1272  0.4689
 6234TIP3    H140193   1.975   4.733   0.596 -2.2035 -2.0414  3.2445
 6234TIP3    H240194   1.881   4.852   0.602  0.8370  0.8401 -0.7760
 6235TIP3   OH240195   3.761   5.024  13.017 -0.1267  0.6531  0.0592
 6235TIP3    H140196   3.799   5.015  13.104  0.6586 -1.3903 -0.4366
 6235TIP3    H240197   3.833   5.058  12.963  0.5581 -1.5241 -0.5014
 6236TIP3   OH240198   6.289   2.270   2.111  0.6696  1.0799  0.5024
 6236TIP3    H140199   6.363   2.323   2.081  0.0434  3.2988  2.5294
 6236TIP3    H240200   6.213   2.310   2.069  0.3229  0.8458  0.9048
 6237TIP3   OH240201   6.344   2.300   2.450  0.3959  0.1203  0.6106
 6237TIP3    H140202   6.269   2.325   2.395 -0.3313 -1.2608  0.9286
 6237TIP3    H240203   6.418   2.297   2.389  0.0619  0.8163  0.1521
 6238TIP3   OH240204   4.403   5.573  15.095  0.0224 -0.2458  0.3295
 6238TIP3    H140205   4.341   5.527  15.039  0.5232 -0.5471  0.0171
 6238TIP3    H240206   4.485   5.524  15.086  0.3394  0.2187  0.6363
 6239TIP3   OH240207   6.562   5.040  15.650 -0.5970 -0.0453  0.4465
 6239TIP3    H140208   6.472   5.008  15.654 -0.7086  0.2735  0.4852
 6239TIP3    H240209   6.601   5.011  15.732 -0.1307 -1.7700 -0.3544
 6240TIP3   OH240210   1.805   0.029  11.321 -0.1788  0.2846 -0.3844
 6240TIP3    H140211   1.891  -0.006  11.345 -0.3477 -0.5116 -0.8945
 6240TIP3    H240212   1.789  -0.005  11.233 -1.7158 -0.9464  0.3040
 6241TIP3   OH240213   3.939   2.842  15.984 -0.4449 -0.0828  0.3888
 6241TIP3    H140214   3.862   2.799  15.946 -1.9730  1.9058  1.0776
 6241TIP3    H240215   3.930   2.829  16.078 -0.0059  0.2350  0.4768
 6242TIP3   OH240216   0.016   4.288  11.883 -0.5860  0.2267 -0.1663
 6242TIP3    H140217   0.105   4.284  11.847 -0.5914  2.5717 -0.5849
 6242TIP3    H240218  -0.040   4.304  11.807 -1.3663 -0.9181  0.1390
 6243TIP3   OH240219   5.009   5.946   6.659  0.4316 -0.0583  0.3776
 6243TIP3    H140220   5.015   5.879   6.591 -2.6059  2.1320 -2.4185
 6243TIP3    H240221   4.916   5.946   6.685  0.6386  2.0033  1.3608
 6244TIP3   OH240222   0.766   2.936   4.811  0.0760 -0.9849  0.3655
 6244TIP3    H140223   0.804   2.885   4.882 -2.0303 -3.0124  0.1815
 6244TIP3    H240224   0.744   3.020   4.850  0.2515 -1.5492  1.7294
 6245TIP3   OH240225   1.200   1.539   6.567 -0.2135 -0.4450 -0.4896
 6245TIP3    H140226   1.289   1.529   6.601 -0.4662 -1.4398 -0.0927
 6245TIP3    H240227   1.211   1.590   6.486  0.7242 -0.6806 -0.5244
 6246TIP3   OH240228   3.483   1.001  11.538  0.1533  0.1272 -0.5176
 6246TIP3    H140229   3.532   0.983  11.618 -0.3286  2.4343  0.3817
 6246TIP3    H240230   3.395   1.023  11.568 -0.1937  0.4717 -1.7332
 6247TIP3   OH240231   6.791   1.220  11.000  0.4458  0.1612  0.0384
 6247TIP3    H140232   6.807   1.164  10.924 -0.0586 -1.1946  0.8963
 6247TIP3    H240233   6.763   1.159  11.069 -0.1352  1.4824  1.0016
 6248TIP3   OH240234   6.482   6.723  14.389 -0.0779  0.0889 -0.1479
 6248TIP3    H140235   6.531   6.804  14.407  0.4227 -0.7015  2.4945
 6248TIP3    H240236   6.401   6.733  14.439 -0.5920 -0.5240 -0.8466
 6249TIP3   OH240237   0.696   1.953  14.820 -0.0742  0.0549 -0.3402
 6249TIP3    H140238   0.769   1.944  14.758  0.5789 -1.0642  0.5388
 6249TIP3    H240239   0.637   1.882  14.798  1.0637 -1.5354  1.4303
 6250TIP3   OH240240   6.755   4.888   4.596  0.1211 -0.1840  0.0011
 6250TIP3    H140241   6.824   4.911   4.658 -0.1611  0.0463  0.2360
 6250TIP3    H240242   6.761   4.955   4.527 -0.1901  0.1331  0.2792
 6251TIP3   OH240243   2.911   2.564  13.441 -0.1330  0.2597 -0.0805
 6251TIP3    H140244   2.907   2.618  13.520 -0.2350  0.9036 -0.5175
 6251TIP3    H240245   2.871   2.481  13.467 -2.2226  1.2144 -0.0310
 6252TIP3   OH240246   6.424   5.989   3.796  0.1571  0.6033  0.5378
 6252TIP3    H140247   6.360   5.918   3.790 -0.9272  1.6414 -1.3944
 6252TIP3    H240248   6.462   5.994   3.708  0.9669  1.7130  0.9339
 6253TIP3   OH240249   5.997   1.604  15.016 -0.2714  0.0328  0.2254
 6253TIP3    H140250   6.088   1.635  15.017  0.0697 -0.8624 -0.6744
 6253TIP3    H240251   5.975   1.592  15.108  0.4856  0.3835  0.4621
 6254TIP3   OH240252   0.766   6.307  13.860 -0.1307  0.2373 -0.2628
 6254TIP3    H140253   0.835   6.300  13.926  1.4023 -3.0030 -1.9451
 6254TIP3    H240254   0.685   6.306  13.910  0.9585  1.7057  1.6905
 6255TIP3   OH240255   2.307   1.743   1.779 -0.1562  0.5704  0.0800
 6255TIP3    H140256   2.251   1.814   1.813 -1.4352 -0.7994  0.9626
 6255TIP3    H240257   2.323   1.766   1.688  0.2113  2.4370  0.5691
 6256TIP3   OH240258   6.595   5.300  13.028  0.3692 -0.5395  0.4032
 6256TIP3    H140259   6.524   5.298  12.964  0.6149  1.4387  0.0170
 6256TIP3    H240260   6.574   5.373  13.086  1.9683 -0.0418  0.4075
 6257TIP3   OH240261   0.647   3.290   0.065  0.0120 -0.1467  0.6791
 6257TIP3    H140262   0.695   3.208   0.056 -2.0314 -1.2616 -1.0361
 6257TIP3    H240263   0.595   3.296  -0.015  0.3537  3.0579  0.5754
 6258TIP3   OH240264   2.700   0.182   3.619 -0.3732 -0.4539 -0.4133
 6258TIP3    H140265   2.651   0.187   3.536  2.3736 -0.4138 -2.1664
 6258TIP3    H240266   2.732   0.092   3.622  0.7652 -0.0535 -0.1727
 6259TIP3   OH240267   0.844   1.451  16.196 -0.4374  0.2269 -0.6159
 6259TIP3    H140268   0.882   1.491  16.274 -3.2203  0.7208  0.6151
 6259TIP3    H240269   0.889   1.367  16.186  0.4645  0.4876  1.1088
 6260TIP3   OH240270   6.608   3.717   5.095  0.0148  0.4787 -0.9464
 6260TIP3    H140271   6.623   3.691   5.186  0.2743  0.3317 -1.0287
 6260TIP3    H240272   6.527   3.767   5.097 -0.0170  0.4173 -0.6437
 6261TIP3   OH240273   1.503   2.113  13.486 -0.4298  0.7931  0.1319
 6261TIP3    H140274   1.440   2.177  13.517  1.3374  2.6738  0.0076
 6261TIP3    H240275   1.551   2.085  13.564  0.9965  2.1528 -0.2005
 6262TIP3   OH240276   5.925   6.415  11.829 -0.2992 -0.4112  0.1625
 6262TIP3    H140277   5.970   6.395  11.912  0.5057  1.2945  0.1921
 6262TIP3    H240278   5.984   6.382  11.762  0.0345 -0.0111  0.2505
 6263TIP3   OH240279   0.172   0.567  12.725 -0.4191  0.0752 -0.1221
 6263TIP3    H140280   0.134   0.650  12.695 -1.1503 -0.7731 -1.7068
 6263TIP3    H240281   0.266   0.577  12.708 -0.7928 -0.4203 -3.1521
 6264TIP3   OH240282   5.708   2.921  16.600 -0.4797  0.1769 -0.9968
 6264TIP3    H140283   5.623   2.926  16.644  0.1313 -1.5838  0.5333
 6264TIP3    H240284   5.696   2.968  16.518 -3.0813 -0.4100 -1.0397
 6265TIP3   OH240285   3.530   4.980  11.493 -0.3347 -0.3139  0.8580
 6265TIP3    H140286   3.465   4.976  11.564 -2.5579 -0.5423 -1.0699
 6265TIP3    H240287   3.530   5.071  11.465  1.4849  0.0575  1.8852
 6266TIP3   OH240288   4.178   6.069   4.419 -0.2190 -0.2250 -0.1418
 6266TIP3    H140289   4.133   6.038   4.340 -1.5580  0.2141  0.4150
 6266TIP3    H240290   4.194   6.162   4.402  0.3650 -0.3503 -0.2823
 6267TIP3   OH240291   0.406   0.215  15.180  0.0624  0.1390  0.2362
 6267TIP3    H140292   0.476   0.241  15.121  1.0185  0.6297  1.5346
 6267TIP3    H240293   0.331   0.270  15.154  0.5189  0.4824 -0.3744
 6268TIP3   OH240294   3.829   3.928  13.735 -0.4969  0.1180 -0.3561
 6268TIP3    H140295   3.841   3.835  13.756 -0.3323  0.1869 -0.1349
 6268TIP3    H240296   3.818   3.970  13.820  1.3156  0.5634 -0.2921
 6269TIP3   OH240297   5.584   3.781  13.005  0.0730  0.6189 -0.3365
 6269TIP3    H140298   5.524   3.708  12.993  0.6498  0.3074 -1.4250
 6269TIP3    H240299   5.530   3.852  13.040 -1.0280  0.4839 -1.7100
 6270TIP3   OH240300   6.157   5.593   2.256  0.0229  0.5338 -0.1833
 6270TIP3    H140301   6.074   5.585   2.304  0.7350  0.2806  1.0442
 6270TIP3    H240302   6.166   5.510   2.209 -1.2341  1.2171 -1.7254
 6271TIP3   OH240303   2.022   3.737  12.366  1.1392 -0.2798 -0.0099
 6271TIP3    H140304   1.960   3.786  12.420 -0.2249 -1.5106 -0.3858
 6271TIP3    H240305   2.101   3.790  12.366  1.1395 -0.1077  2.9747
 6272TIP3   OH240306   5.973   3.588  13.093 -0.2625 -0.4521  0.1757
 6272TIP3    H140307   5.896   3.572  13.039  0.7822 -1.6014 -1.0428
 6272TIP3    H240308   5.944   3.568  13.182 -2.1892  2.0508  0.2329
 6273TIP3   OH240309   5.432   2.769   3.849  0.2930 -0.2904 -0.0765
 6273TIP3    H140310   5.371   2.801   3.783 -0.7370  1.8493  1.7736
 6273TIP3    H240311   5.377   2.730   3.917  1.2777 -1.9031 -0.1396
 6274TIP3   OH240312   4.239   4.824  17.250 -0.1954 -0.0703 -0.8847
 6274TIP3    H140313   4.333   4.837  17.236  0.4159  0.2971  2.6687
 6274TIP3    H240314   4.199   4.904  17.218  1.1734  1.3779  0.8275
 6275TIP3   OH240315   3.489   0.291   5.873 -0.4040 -0.3200  0.1988
 6275TIP3    H140316   3.400   0.290   5.909 -0.9825 -2.5447 -1.1322
 6275TIP3    H240317   3.482   0.347   5.795 -0.1811  0.9097  1.0273
 6276TIP3   OH240318   2.894   4.315  16.728 -0.0764  0.4638 -0.2951
 6276TIP3    H140319   2.963   4.261  16.689  0.8980  0.5973  1.1505
 6276TIP3    H240320   2.845   4.350  16.654  1.4791  0.4342 -1.3756
 6277TIP3   OH240321   1.070   0.710   3.980  0.1506  0.5743  0.1110
 6277TIP3    H140322   1.039   0.788   4.025 -0.7921  0.9918 -1.2006
 6277TIP3    H240323   1.011   0.640   4.010 -1.0302  1.0247 -1.0872
 6278TIP3   OH240324   5.126   3.394   4.166 -0.3915  0.2797 -0.3667
 6278TIP3    H140325   5.045   3.430   4.203  0.2251  0.5503  0.7800
 6278TIP3    H240326   5.159   3.464   4.110 -0.6292  0.4182 -0.3351
 6279TIP3   OH240327   2.543   6.203  12.146  0.4906 -0.0424  0.2157
 6279TIP3    H140328   2.476   6.196  12.078 -0.8225 -1.3230  1.5677
 6279TIP3    H240329   2.603   6.129  12.129  0.8772  0.3722 -0.2589
 6280TIP3   OH240330   2.563   6.165  14.910  0.2621  0.0963  0.3467
 6280TIP3    H140331   2.616   6.149  14.988  0.6126 -2.3701 -0.3210
 6280TIP3    H240332   2.478   6.192  14.945  0.6499 -0.1801  1.5536
 6281TIP3   OH240333   3.987   2.585  17.026  0.2938 -0.3023 -0.3267
 6281TIP3    H140334   4.074   2.614  17.000  0.5773 -0.6761  0.1819
 6281TIP3    H240335   3.980   2.609  17.119 -0.8695  1.4168 -0.8205
 6282TIP3   OH240336   6.093   3.377  14.525 -0.5847 -0.0940 -0.2564
 6282TIP3    H140337   6.161   3.444  14.519  0.6759 -1.1823  1.2333
 6282TIP3    H240338   6.031   3.412  14.589 -0.3111 -0.0230 -0.0276
 6283TIP3   OH240339   2.343   1.064  16.449 -0.0259  0.1276  0.0281
 6283TIP3    H140340   2.283   1.014  16.504  0.9090  0.5939  1.5048
 6283TIP3    H240341   2.287   1.103  16.382 -1.1911 -0.4101  0.6618
 6284TIP3   OH240342   4.405   3.844  15.390  0.0559  0.9757  0.5493
 6284TIP3    H140343   4.336   3.893  15.435 -1.3039 -0.5133  0.1687
 6284TIP3    H240344   4.473   3.909  15.372 -0.9323  2.3405  1.5591
 6285TIP3   OH240345   2.086   4.105  14.821  0.7001 -0.2697 -0.4985
 6285TIP3    H140346   1.993   4.093  14.838  1.0621 -1.0170  1.1796
 6285TIP3    H240347   2.097   4.199  14.809 -0.1166 -0.0521  0.3839
 6286TIP3   OH240348   4.156   5.678  14.481  0.2148 -0.0997  0.2286
 6286TIP3    H140349   4.106   5.625  14.419  1.8390 -0.7214 -0.6240
 6286TIP3    H240350   4.148   5.768  14.448 -1.4006  0.0150  0.8752
 6287TIP3   OH240351   1.325   1.410  11.247 -0.5315 -0.0364  0.4090
 6287TIP3    H140352   1.382   1.333  11.251  1.1367  1.1687  1.3934
 6287TIP3    H240353   1.236   1.375  11.252  0.0206 -2.0490 -1.7934
 6288TIP3   OH240354   3.197   6.029  13.268  0.7347  0.4330  0.0855
 6288TIP3    H140355   3.153   6.033  13.183 -0.1011 -0.5897  0.4453
 6288TIP3    H240356   3.246   5.948  13.267  1.0013  0.5854  0.4497
 6289TIP3   OH240357   6.526   4.413   5.643  0.1749 -0.1342 -0.7741
 6289TIP3    H140358   6.611   4.432   5.684  0.2433 -0.1505 -0.9079
 6289TIP3    H240359   6.494   4.336   5.690  0.1235  0.0160 -0.5620
 6290TIP3   OH240360   3.589   6.322   3.685  0.1397 -0.0119  0.3219
 6290TIP3    H140361   3.579   6.269   3.764  0.0484  0.7571  0.8398
 6290TIP3    H240362   3.501   6.325   3.647  0.1395 -0.2026  0.3050
 6291TIP3   OH240363   3.531   5.426   2.799  0.2299 -0.6238 -0.3989
 6291TIP3    H140364   3.593   5.499   2.798 -0.7066  0.2380  0.9751
 6291TIP3    H240365   3.547   5.382   2.883 -2.2021  0.7459  0.8999
 6292TIP3   OH240366   0.599   6.257   0.556 -0.0492 -0.3216 -0.5163
 6292TIP3    H140367   0.604   6.232   0.464 -3.9871 -0.7849 -0.7374
 6292TIP3    H240368   0.613   6.352   0.556  0.7688 -0.4237 -1.4457
 6293TIP3   OH240369   1.492   2.367   4.078 -0.0986  0.1526  0.3370
 6293TIP3    H140370   1.429   2.295   4.085  0.7497 -0.4926  1.7521
 6293TIP3    H240371   1.459   2.433   4.140  0.8547 -0.4112  1.4895
 6294TIP3   OH240372   6.305   0.700   3.380  0.0709 -0.4504  0.1248
 6294TIP3    H140373   6.382   0.668   3.427  0.7570 -0.8861 -1.2751
 6294TIP3    H240374   6.239   0.632   3.394  0.2348 -0.5253  0.5548
 6295TIP3   OH240375   4.509   4.297   3.987  0.2867 -0.3759 -0.3138
 6295TIP3    H140376   4.457   4.333   3.915 -2.2586 -1.5894  0.7983
 6295TIP3    H240377   4.481   4.347   4.064  2.5499  0.5198  0.0134
 6296TIP3   OH240378   1.522   2.805  15.709 -0.9432  0.0743  0.0789
 6296TIP3    H140379   1.450   2.866  15.728  2.2705  3.8960  1.2237
 6296TIP3    H240380   1.557   2.781  15.795  0.6376  0.2620 -0.4882
 6297TIP3   OH240381   1.679   1.249  12.942 -0.5560  0.3442 -0.6055
 6297TIP3    H140382   1.691   1.299  13.023  2.8888 -2.5721  1.0212
 6297TIP3    H240383   1.718   1.304  12.874 -3.8073  2.9964 -0.5853
 6298TIP3   OH240384   4.978   6.051  15.578  0.0576 -0.2759 -0.0093
 6298TIP3    H140385   4.918   6.114  15.539  1.7966  0.3968 -1.7676
 6298TIP3    H240386   4.984   6.076  15.670 -0.3560  1.2540 -0.3827
 6299TIP3   OH240387   0.777   4.729  16.878 -0.1597  0.2736 -0.2641
 6299TIP3    H140388   0.863   4.755  16.911  0.1515 -0.4907 -0.4486
 6299TIP3    H240389   0.719   4.733  16.954  0.3531 -0.5959  0.1740
 6300TIP3   OH240390   1.394   1.021  15.472  0.7141 -0.0161 -0.5164
 6300TIP3    H140391   1.369   0.941  15.519 -2.0005  0.2945 -1.2352
 6300TIP3    H240392   1.355   1.012  15.385  3.1350  0.7217 -1.7823
 6301TIP3   OH240393   0.686   5.853  11.443  0.2937 -0.4141  0.2136
 6301TIP3    H140394   0.669   5.801  11.522 -3.9004  1.6197  0.9585
 6301TIP3    H240395   0.732   5.930  11.474  1.0139 -0.8085  0.1546
 6302TIP3   OH240396   1.490   4.633   4.039 -0.4944  0.0109 -0.0704
 6302TIP3    H140397   1.504   4.600   4.127 -0.4532  1.1951  0.3912
 6302TIP3    H240398   1.480   4.555   3.985 -1.9756 -0.7427  1.2162
 6303TIP3   OH240399   4.065   1.491  16.562  0.0835 -0.0467 -0.0154
 6303TIP3    H140400   4.075   1.403  16.526  0.7919 -0.2660  0.6894
 6303TIP3    H240401   3.973   1.512  16.549 -0.1800 -1.0532  0.1699
 6304TIP3   OH240402   0.622   0.844   2.440 -0.2519 -0.1647  0.1955
 6304TIP3    H140403   0.609   0.825   2.533 -0.1899 -0.7889  0.0798
 6304TIP3    H240404   0.534   0.851   2.404 -0.2992 -1.6526 -0.0367
 6305TIP3   OH240405   2.985   6.736  13.769 -0.1028 -0.3214 -0.4614
 6305TIP3    H140406   2.902   6.745  13.721 -0.2765 -2.0115 -0.5283
 6305TIP3    H240407   2.969   6.782  13.852 -1.0414 -0.4291 -0.5673
 6306TIP3   OH240408   4.975   6.337  12.260  0.1106  0.0618  0.1817
 6306TIP3    H140409   4.967   6.379  12.346  0.8256  0.3234  0.1283
 6306TIP3    H240410   5.031   6.261  12.276  0.2025  0.0824 -0.0440
 6307TIP3   OH240411   6.362   6.038  11.454  0.7161  0.1508 -0.0880
 6307TIP3    H140412   6.290   6.065  11.397  1.4516 -2.7661 -2.6461
 6307TIP3    H240413   6.414   6.117  11.467 -2.5441  2.2434  1.4295
 6308TIP3   OH240414   5.524   2.539  13.172  0.2950  0.2388  0.0223
 6308TIP3    H140415   5.558   2.622  13.206  0.8261 -0.1724  0.5005
 6308TIP3    H240416   5.506   2.557  13.080 -0.7395  1.2333  0.3960
 6309TIP3   OH240417   3.899   4.563   2.674 -0.5655 -0.1580  0.0870
 6309TIP3    H140418   3.907   4.654   2.647 -0.5430 -0.4037 -0.7909
 6309TIP3    H240419   3.813   4.536   2.642 -0.3094 -0.6203 -0.2404
 6310TIP3   OH240420   4.622   0.700  13.024 -0.3924  0.3421  0.3866
 6310TIP3    H140421   4.581   0.688  13.110  0.3856 -1.8592  0.5074
 6310TIP3    H240422   4.602   0.619  12.977  1.9416  0.1179 -0.3296
 6311TIP3   OH240423   1.307   0.389  14.440 -0.9406 -0.0544  0.1701
 6311TIP3    H140424   1.323   0.348  14.525  0.4197 -3.1976 -1.4039
 6311TIP3    H240425   1.394   0.395  14.400 -1.5160  1.6180 -0.9147
 6312TIP3   OH240426   6.747   1.135  12.775  0.5874 -0.3073 -0.4564
 6312TIP3    H140427   6.744   1.113  12.868 -1.7489 -1.5248 -0.7422
 6312TIP3    H240428   6.743   1.231  12.773  0.2102 -0.2839  0.6899
 6313TIP3   OH240429   3.175   6.561  15.106  0.6089 -0.0736 -0.2341
 6313TIP3    H140430   3.263   6.584  15.077  0.7706 -1.9200 -1.3442
 6313TIP3    H240431   3.120   6.573  15.028  0.0283  0.1430  0.1973
 6314TIP3   OH240432   4.366   2.948   2.534 -0.4540  0.7720  0.4124
 6314TIP3    H140433   4.387   2.872   2.479 -0.4851  2.4137 -2.0122
 6314TIP3    H240434   4.322   2.911   2.610 -0.4595 -1.6376 -0.6707
 6315TIP3   OH240435   5.225   0.318  12.475  0.1518 -0.1826 -0.3467
 6315TIP3    H140436   5.252   0.377  12.545 -0.6243 -0.5324  0.2649
 6315TIP3    H240437   5.130   0.310  12.487  0.3977 -2.6217  0.4527
 6316TIP3   OH240438   5.141   3.841   4.801 -0.1645 -0.1409 -0.1832
 6316TIP3    H140439   5.230   3.807   4.799 -1.0746 -2.7441 -0.1154
 6316TIP3    H240440   5.117   3.853   4.709  0.8147  2.3800 -0.1831
 6317TIP3   OH240441   0.629   0.801  17.270 -0.6044 -0.0461  0.4017
 6317TIP3    H140442   0.634   0.730  17.206 -0.8121 -1.8927  2.2927
 6317TIP3    H240443   0.681   0.769  17.344  1.8439  3.1175  0.2327
 6318TIP3   OH240444   4.857   4.749  12.740  0.2791 -0.5298 -0.0282
 6318TIP3    H140445   4.901   4.719  12.820  0.5983  0.8462  0.3380
 6318TIP3    H240446   4.764   4.749  12.763  0.2478 -1.3757 -0.1021
 6319TIP3   OH240447   3.956   4.701   0.566  0.8073  0.6366 -0.0115
 6319TIP3    H140448   4.012   4.673   0.494  0.8252  1.4484 -0.3210
 6319TIP3    H240449   3.867   4.692   0.533  0.7529 -0.4382  0.4018
 6320TIP3   OH240450   3.833   1.351   5.048  0.2279  0.2051 -0.1529
 6320TIP3    H140451   3.853   1.369   5.140  0.2173 -0.2261 -0.0611
 6320TIP3    H240452   3.799   1.261   5.048 -0.5399  0.4938 -0.4717
 6321TIP3   OH240453   0.567   5.370   5.208 -0.0904  0.2181 -0.0719
 6321TIP3    H140454   0.577   5.286   5.163 -0.1808  0.0899  0.1469
 6321TIP3    H240455   0.481   5.401   5.181 -1.5040 -1.2826  2.3429
 6322TIP3   OH240456   4.178   5.412  15.030 -0.0942 -0.2664 -0.0215
 6322TIP3    H140457   4.208   5.408  14.939  0.5810 -0.4651  0.2019
 6322TIP3    H240458   4.225   5.341  15.074  0.8496  0.8359  0.8337
 6323TIP3   OH240459   4.854   1.385  14.487  0.1653 -0.2953  0.0216
 6323TIP3    H140460   4.868   1.415  14.577 -3.6114 -0.7356  0.9338
 6323TIP3    H240461   4.901   1.302  14.481  2.2214  0.7481  0.8251
 6324TIP3   OH240462   5.139   3.666  12.342  0.3447 -0.2973 -0.3008
 6324TIP3    H140463   5.073   3.605  12.376  0.6818 -1.5146 -1.7342
 6324TIP3    H240464   5.148   3.732  12.411 -0.2694 -1.6921  1.1954
 6325TIP3   OH240465   2.945   5.243   2.165 -0.0065  0.7845 -0.1032
 6325TIP3    H140466   2.903   5.157   2.166 -1.8558  1.6201 -1.3248
 6325TIP3    H240467   3.012   5.236   2.096  0.2486  0.1540  0.2047
 6326TIP3   OH240468   3.522   6.228   1.275 -0.0710 -0.5019 -0.0203
 6326TIP3    H140469   3.508   6.226   1.369  1.5968 -0.7527  0.2471
 6326TIP3    H240470   3.466   6.299   1.244 -1.0530 -0.7716  1.0685
 6327TIP3   OH240471   1.469   4.748  15.876 -0.2607 -0.0424 -0.1487
 6327TIP3    H140472   1.411   4.732  15.950 -0.0192 -0.3370 -0.0252
 6327TIP3    H240473   1.528   4.673  15.874  1.3541  1.1513  0.8685
 6328TIP3   OH240474   5.125   3.059   5.877  0.6131 -0.1800  0.8877
 6328TIP3    H140475   5.061   2.995   5.909  0.6887  0.1998  1.8108
 6328TIP3    H240476   5.174   3.086   5.955  1.4549  0.0380  0.2971
 6329TIP3   OH240477   0.285   5.268  12.863  0.1382  0.6415 -0.7553
 6329TIP3    H140478   0.200   5.266  12.820  0.4280  1.3676 -1.3903
 6329TIP3    H240479   0.269   5.309  12.948 -0.4293 -0.7543 -0.1582
 6330TIP3   OH240480   0.722   1.155  13.458 -0.7075  0.0493 -0.4186
 6330TIP3    H140481   0.809   1.119  13.441 -0.0865  1.4279 -0.2905
 6330TIP3    H240482   0.680   1.157  13.372 -0.1527  0.5237 -0.6840
 6331TIP3   OH240483   4.745   6.056   4.454 -0.0669 -0.4156  0.2006
 6331TIP3    H140484   4.746   6.130   4.393  0.0444  0.5777  1.3645
 6331TIP3    H240485   4.790   6.089   4.532  0.0195 -1.7356  0.7316
 6332TIP3   OH240486   3.901   3.113  14.367  0.3240 -0.0076 -0.3839
 6332TIP3    H140487   3.894   3.164  14.287 -0.2985 -0.6370 -0.7388
 6332TIP3    H240488   3.854   3.032  14.348 -0.2097  0.0132  0.7576
 6333TIP3   OH240489   5.617   2.697  14.296  0.1675  0.1767 -0.2046
 6333TIP3    H140490   5.561   2.633  14.252 -0.3320  0.3469  0.1711
 6333TIP3    H240491   5.701   2.691  14.251  0.0443 -0.5516 -0.3421
 6334TIP3   OH240492   3.745   1.036  15.795 -0.2297  0.4126  0.4628
 6334TIP3    H140493   3.675   0.971  15.805 -0.2716  0.6536  2.1697
 6334TIP3    H240494   3.699   1.119  15.782 -0.1837  0.1877 -1.2810
 6335TIP3   OH240495   5.787   5.138  15.881  0.1816  0.6656  0.1614
 6335TIP3    H140496   5.734   5.208  15.843 -0.0398  0.2624 -0.2877
 6335TIP3    H240497   5.729   5.095  15.943  0.0412  0.3485 -0.1857
 6336TIP3   OH240498   0.492   0.165   3.553 -0.5228  0.3981 -0.1167
 6336TIP3    H140499   0.399   0.175   3.537 -0.4661 -0.5449 -1.1906
 6336TIP3    H240500   0.498   0.133   3.644 -1.1549  1.4205  0.3005
 6337TIP3   OH240501   0.063   4.878   6.024  0.5245 -0.5363 -0.1794
 6337TIP3    H140502   0.124   4.895   5.952  1.6251 -0.0061  0.8390
 6337TIP3    H240503   0.053   4.962   6.067  1.2664 -1.1740  1.3170
 6338TIP3   OH240504   3.205   4.574  15.856  0.6453  0.0141  0.3176
 6338TIP3    H140505   3.276   4.633  15.830 -0.3920  0.7995 -0.8729
 6338TIP3    H240506   3.129   4.631  15.866 -0.2240 -1.0340 -0.1197
 6339TIP3   OH240507   6.686   2.943   2.779 -0.1591  0.0232 -0.1661
 6339TIP3    H140508   6.618   2.875   2.780 -0.9218  0.7620  0.9795
 6339TIP3    H240509   6.637   3.025   2.769  0.5522  0.5648  0.6405
 6340TIP3   OH240510   0.517   0.403  11.670 -0.0158 -0.0073 -0.3153
 6340TIP3    H140511   0.455   0.391  11.598 -1.0244  1.2463  0.3017
 6340TIP3    H240512   0.549   0.493  11.659 -1.0499  0.6143  1.4298
 6341TIP3   OH240513   4.056   4.099  13.632  0.2528  0.2322 -0.3063
 6341TIP3    H140514   3.977   4.047  13.647  0.2112  0.0173 -1.2021
 6341TIP3    H240515   4.030   4.189  13.648  0.9586 -0.1250  3.8851
 6342TIP3   OH240516   2.907   1.199  12.694  0.0327 -0.4565 -0.2880
 6342TIP3    H140517   2.843   1.158  12.637 -1.5641  0.3916  0.8319
 6342TIP3    H240518   2.991   1.186  12.649 -1.1995  0.7886 -3.2042
 6343TIP3   OH240519   2.588   0.379  13.335 -0.0697  0.2086  0.0157
 6343TIP3    H140520   2.637   0.321  13.394  1.8033 -0.3387 -1.9350
 6343TIP3    H240521   2.528   0.320  13.288  2.0689 -0.3943 -2.2104
 6344TIP3   OH240522   0.050   0.649   1.520  0.3924 -0.3684 -0.1873
 6344TIP3    H140523   0.119   0.585   1.537 -0.2941 -1.0389  0.1720
 6344TIP3    H240524   0.065   0.678   1.430  1.7800  0.3227  0.2469
 6345TIP3   OH240525   2.028   1.382   1.105  0.2397  0.3484 -0.0265
 6345TIP3    H140526   2.005   1.354   1.194  0.4231 -0.4199 -0.2178
 6345TIP3    H240527   2.093   1.451   1.118 -2.7566  3.2958  0.5647
 6346TIP3   OH240528   2.985   2.887   4.837  0.0945 -0.1325 -0.8009
 6346TIP3    H140529   2.911   2.899   4.777 -1.3766 -0.7973  0.8050
 6346TIP3    H240530   3.001   2.792   4.835 -1.0387 -0.4057  1.0032
 6347TIP3   OH240531   4.167   2.104   1.623 -0.4481 -0.7265  0.3955
 6347TIP3    H140532   4.187   2.057   1.704 -0.0743 -0.0295  0.7172
 6347TIP3    H240533   4.234   2.172   1.618  0.5427 -1.7360 -1.3274
 6348TIP3   OH240534   6.176   2.867   2.184  0.2691  0.1671 -0.1675
 6348TIP3    H140535   6.158   2.799   2.118 -0.2647  0.0870  0.0570
 6348TIP3    H240536   6.256   2.837   2.227 -0.9737 -1.3440  1.2311
 6349TIP3   OH240537   5.866   0.975  16.515 -0.3182 -0.0764 -0.2076
 6349TIP3    H140538   5.778   0.952  16.486 -0.3869 -0.5840  0.3919
 6349TIP3    H240539   5.924   0.920  16.462 -0.3771 -0.0133 -0.3387
 6350TIP3   OH240540   6.252   5.728  15.722 -0.1726 -0.1783  0.2114
 6350TIP3    H140541   6.175   5.684  15.686 -1.3688  1.5440  0.5430
 6350TIP3    H240542   6.226   5.754  15.810  1.1148 -0.3184  0.6571
 6351TIP3   OH240543   4.631   2.793  11.982 -0.0701 -0.2021  0.5585
 6351TIP3    H140544   4.559   2.807  11.921  1.3833  2.0202 -0.7866
 6351TIP3    H240545   4.615   2.856  12.052  1.8877  2.3643 -1.1290
 6352TIP3   OH240546   4.067   1.315  11.446  0.2811  0.2257 -0.0651
 6352TIP3    H140547   4.123   1.296  11.521 -0.2822  0.6803  0.4741
 6352TIP3    H240548   4.027   1.231  11.423  2.6169 -0.5585 -1.6762
 6353TIP3   OH240549   1.295   3.755  13.928 -0.1149  0.2569  0.3570
 6353TIP3    H140550   1.244   3.831  13.898 -0.1318  0.3269  0.5620
 6353TIP3    H240551   1.264   3.682  13.874 -0.4680  0.2891  0.5175
 6354TIP3   OH240552   5.571   5.242  11.669  0.0063  0.1830 -0.9213
 6354TIP3    H140553   5.598   5.305  11.603 -2.5481  3.7774  1.1135
 6354TIP3    H240554   5.476   5.253  11.676  0.0320 -0.5912  2.6719
 6355TIP3   OH240555   3.291   3.854   1.143  0.2065  0.4147 -0.6646
 6355TIP3    H140556   3.203   3.854   1.106  0.0091 -1.6341 -0.3133
 6355TIP3    H240557   3.284   3.802   1.223  1.6039  0.8245 -0.2357
 6356TIP3   OH240558   3.953   5.770   3.597 -0.0924 -0.0531  0.1102
 6356TIP3    H140559   3.933   5.712   3.670 -1.5828 -1.3247 -1.2361
 6356TIP3    H240560   3.956   5.712   3.521  1.3286  1.2472 -0.8671
 6357TIP3   OH240561   2.844   6.170   5.566  0.3346  0.2252 -0.2291
 6357TIP3    H140562   2.861   6.130   5.480 -0.9364  0.1690 -0.4704
 6357TIP3    H240563   2.832   6.096   5.625 -1.3653  0.2120 -0.5442
 6358TIP3   OH240564   6.815   3.374  14.354  0.6650  0.2312 -0.2285
 6358TIP3    H140565   6.831   3.282  14.376  0.9250  0.5748  1.0645
 6358TIP3    H240566   6.877   3.393  14.284  1.1373 -0.3669  0.0179
 6359TIP3   OH240567   4.935   4.831   0.421  0.2819 -0.2100 -0.2644
 6359TIP3    H140568   4.954   4.747   0.379  2.3624  0.2270 -0.2765
 6359TIP3    H240569   4.890   4.882   0.353  0.8659 -0.6017 -0.9559
 6360TIP3   OH240570   2.675   3.346   6.121 -0.4248  0.4234  0.4007
 6360TIP3    H140571   2.672   3.428   6.171  0.5664  0.4740  0.4002
 6360TIP3    H240572   2.593   3.345   6.072 -1.8901 -0.0967  2.7179
 6361TIP3   OH240573   5.965   4.353   5.116 -0.1092  0.1852  0.2110
 6361TIP3    H140574   6.033   4.330   5.052  0.5617  0.8440  0.6646
 6361TIP3    H240575   5.905   4.278   5.115  0.7706 -0.5371 -0.0050
 6362TIP3   OH240576   4.806   2.367  12.751  0.1606  0.2289 -0.2794
 6362TIP3    H140577   4.740   2.394  12.688  2.1103  1.8680 -1.7791
 6362TIP3    H240578   4.879   2.427  12.736  2.2827 -1.9057  0.7832
 6363TIP3   OH240579   1.800   5.326  16.602  0.1261  0.0575  0.6643
 6363TIP3    H140580   1.741   5.252  16.617 -0.5176  0.6507  1.1233
 6363TIP3    H240581   1.743   5.402  16.598  0.7830  0.5381  0.1976
 6364TIP3   OH240582   2.543   1.947   3.069 -0.0109 -0.0383 -0.0244
 6364TIP3    H140583   2.634   1.921   3.058 -0.4781 -2.6945  1.4533
 6364TIP3    H240584   2.498   1.911   2.993 -0.1325 -0.5658  0.2936
 6365TIP3   OH240585   2.966   5.662   5.978  0.1513 -0.0418 -0.3484
 6365TIP3    H140586   2.930   5.573   5.985 -2.2004  0.9602  1.6545
 6365TIP3    H240587   2.942   5.691   5.890  0.8322 -1.3059 -0.9790
 6366TIP3   OH240588   3.607   4.221  11.985 -0.5549  0.4878  0.2545
 6366TIP3    H140589   3.568   4.233  12.072 -1.5468 -0.5442 -0.0101
 6366TIP3    H240590   3.589   4.129  11.964 -0.2601  0.6976 -0.9998
 6367TIP3   OH240591   2.564   6.666  11.559 -1.3366  0.1634 -0.7304
 6367TIP3    H140592   2.488   6.607  11.565 -1.3547  0.1463 -1.1214
 6367TIP3    H240593   2.561   6.716  11.641 -0.7704 -1.0360  0.0455
 6368TIP3   OH240594   3.610   3.743   4.748  0.3340  0.0946  0.2898
 6368TIP3    H140595   3.559   3.782   4.820 -1.4980  1.3222 -1.5629
 6368TIP3    H240596   3.574   3.655   4.738  1.1515 -0.3873  1.3349
 6369TIP3   OH240597   1.676   1.790  14.157  0.3150 -0.5745  0.2179
 6369TIP3    H140598   1.693   1.773  14.249  0.8153 -0.0205  0.2349
 6369TIP3    H240599   1.601   1.735  14.135  0.0680 -0.5568  1.0088
 6370TIP3   OH240600   5.604   1.322  17.211 -0.5651 -0.2101  0.7739
 6370TIP3    H140601   5.606   1.311  17.306 -1.0184  2.1016  1.1156
 6370TIP3    H240602   5.577   1.237  17.178 -0.0946 -1.1700  2.6796
 6371TIP3   OH240603   2.279   6.361   2.826  0.1636 -0.3166 -0.6254
 6371TIP3    H140604   2.366   6.362   2.867  0.8309 -0.2115 -2.0046
 6371TIP3    H240605   2.266   6.451   2.797  1.6382 -1.1669 -4.4895
 6372TIP3   OH240606   4.529   6.499   0.336 -0.5276 -0.4771  0.5714
 6372TIP3    H140607   4.552   6.586   0.303 -2.1688 -0.6266 -1.1411
 6372TIP3    H240608   4.511   6.513   0.429 -0.9563  1.0625  0.2853
 6373TIP3   OH240609   3.879   0.702   2.883  0.5729 -0.0583 -0.4121
 6373TIP3    H140610   3.905   0.748   2.803 -2.3956 -0.5999 -1.8680
 6373TIP3    H240611   3.836   0.768   2.937  0.1989 -0.2047 -0.5207
 6374TIP3   OH240612   5.230   2.225   3.321 -0.2128 -0.5427  0.3046
 6374TIP3    H140613   5.205   2.134   3.304 -0.5412 -0.8129  2.0529
 6374TIP3    H240614   5.169   2.254   3.389 -1.3062  1.6041 -1.4780
 6375TIP3   OH240615   6.277   3.947   5.853 -0.3744  0.0268  0.6446
 6375TIP3    H140616   6.242   3.985   5.773  2.6831 -0.9785 -1.3709
 6375TIP3    H240617   6.321   4.021   5.897 -1.4361  0.4324  1.0474
 6376TIP3   OH240618   5.594   5.064  16.078 -0.2972  0.2917 -0.2617
 6376TIP3    H140619   5.596   5.065  16.174 -3.2647 -1.2169 -0.0473
 6376TIP3    H240620   5.514   5.112  16.055  0.4394  0.7681 -2.0152
 6377TIP3   OH240621   4.448   1.677  15.017  0.0233 -0.2225 -0.4119
 6377TIP3    H140622   4.493   1.615  14.960 -0.2157 -0.5499 -0.2524
 6377TIP3    H240623   4.385   1.721  14.960 -0.5685 -0.9070 -0.3145
 6378TIP3   OH240624   0.544   6.437  11.520  0.1552 -0.0896  0.3021
 6378TIP3    H140625   0.575   6.524  11.544 -1.4488  0.1146  1.8694
 6378TIP3    H240626   0.527   6.442  11.426  0.3161  1.2030  0.3254
 6379TIP3   OH240627   2.503   1.174   3.914 -0.2975 -0.5260  0.1333
 6379TIP3    H140628   2.542   1.094   3.948 -0.8555 -0.8669 -0.0148
 6379TIP3    H240629   2.573   1.216   3.864 -0.3334 -1.5263 -0.7935
 6380TIP3   OH240630   6.750   5.643   3.588  0.4315  0.2694 -0.4917
 6380TIP3    H140631   6.756   5.650   3.493  0.6081 -0.6795 -0.5589
 6380TIP3    H240632   6.714   5.727   3.616  0.4277  0.5768 -1.3885
 6381TIP3   OH240633   1.514   3.930  16.178 -1.3958  0.0639  0.2301
 6381TIP3    H140634   1.520   3.972  16.264  1.5581  0.2554  0.0467
 6381TIP3    H240635   1.510   4.003  16.116 -0.8800 -0.0123  0.1042
 6382TIP3   OH240636   0.886   3.174  11.393 -0.2431 -0.3758 -0.1960
 6382TIP3    H140637   0.969   3.198  11.434  0.1003 -2.9159  0.7851
 6382TIP3    H240638   0.909   3.157  11.302 -0.0914  0.7639 -0.3838
 6383TIP3   OH240639   6.442   1.544  11.053 -0.2229  0.1126  0.1498
 6383TIP3    H140640   6.373   1.524  11.116 -0.0136  0.5365  0.5130
 6383TIP3    H240641   6.398   1.538  10.968 -0.6264  0.0422  0.3594
 6384TIP3   OH240642   5.957   4.932  15.803  0.2301 -0.2589 -0.7580
 6384TIP3    H140643   5.880   4.876  15.817  0.7279 -1.5618 -2.7598
 6384TIP3    H240644   5.924   5.021  15.812 -0.7186 -0.8114  1.9509
 6385TIP3   OH240645   3.407   6.526   0.015 -0.8553  0.6276  0.5208
 6385TIP3    H140646   3.386   6.600   0.071  0.7930  1.1896  0.4512
 6385TIP3    H240647   3.441   6.459   0.075 -1.0844  0.4200  0.4244
 6386TIP3   OH240648   0.542   1.029   5.147  0.2156  0.0170  0.7916
 6386TIP3    H140649   0.501   1.007   5.063 -0.6959  0.3223  1.1421
 6386TIP3    H240650   0.547   0.945   5.194 -2.0083  0.2773  1.5890
 6387TIP3   OH240651   5.701   6.130   1.735  0.2694  0.1825 -0.1512
 6387TIP3    H140652   5.792   6.124   1.705  0.7217 -1.6680  1.3751
 6387TIP3    H240653   5.663   6.046   1.711 -1.0123  0.8678 -0.5939
 6388TIP3   OH240654   6.812   3.292  11.382 -0.1101  0.0918  0.0228
 6388TIP3    H140655   6.847   3.331  11.302 -0.8072  0.5919 -0.0506
 6388TIP3    H240656   6.794   3.201  11.359  0.5217 -0.0002 -0.1237
 6389TIP3   OH240657   2.040   1.772  12.536  0.3613  0.4896  0.3929
 6389TIP3    H140658   2.025   1.859  12.499  0.0762 -0.2504 -1.3329
 6389TIP3    H240659   1.987   1.714  12.482 -0.1223 -0.6852  2.0381
 6390TIP3   OH240660   1.067   1.904   0.311  0.3087 -0.4453 -0.9491
 6390TIP3    H140661   1.161   1.895   0.293  0.1962 -0.6602 -1.4512
 6390TIP3    H240662   1.025   1.848   0.245 -0.0794 -2.1011  0.6082
 6391TIP3   OH240663   0.618   4.639   0.439 -0.4814  0.3073  0.3014
 6391TIP3    H140664   0.580   4.570   0.384 -1.3089  0.6926  0.3819
 6391TIP3    H240665   0.578   4.720   0.407  1.1089  0.8808 -0.3591
 6392TIP3   OH240666   5.782   1.603   0.620  0.1526  0.2877  0.4641
 6392TIP3    H140667   5.700   1.637   0.655 -0.6114 -1.0413  0.0732
 6392TIP3    H240668   5.777   1.509   0.637  0.7306 -0.0871 -1.2327
 6393TIP3   OH240669   1.496   3.514   2.383 -0.1103  0.2834  0.0796
 6393TIP3    H140670   1.494   3.586   2.320  0.6120 -0.6309 -1.0287
 6393TIP3    H240671   1.410   3.472   2.375 -0.6883  1.2443  1.0287
 6394TIP3   OH240672   5.994   2.203  15.822  0.0186  0.5391 -0.0167
 6394TIP3    H140673   5.969   2.113  15.842 -1.2216  0.8747  0.0686
 6394TIP3    H240674   6.089   2.205  15.831 -0.0567 -0.4530  1.2254
 6395TIP3   OH240675   1.309   1.570   6.053  0.1813 -0.3394 -0.1964
 6395TIP3    H140676   1.383   1.622   6.085 -0.6089  1.0031 -0.4554
 6395TIP3    H240677   1.298   1.598   5.962 -0.3845 -0.8256 -0.2861
 6396TIP3   OH240678   0.264   3.526   5.610 -0.1666  0.5169 -0.3414
 6396TIP3    H140679   0.222   3.454   5.657  0.6227  0.3289  0.0978
 6396TIP3    H240680   0.272   3.494   5.520 -0.0116  0.1306 -0.1946
 6397TIP3   OH240681   4.924   6.806   2.292  0.0219  0.4530  0.2990
 6397TIP3    H140682   4.936   6.766   2.206 -0.5520 -0.3446  0.5817
 6397TIP3    H240683   4.923   6.732   2.353 -0.9729  0.8997  0.8461
 6398TIP3   OH240684   1.391   0.927   4.362  0.0224  0.1476  0.4125
 6398TIP3    H140685   1.326   0.858   4.349 -1.5021  1.6866 -0.8689
 6398TIP3    H240686   1.340   0.999   4.400  0.9879  1.3384 -0.4618
 6399TIP3   OH240687   0.628   4.937   4.623  0.0329 -0.5764 -0.2257
 6399TIP3    H140688   0.649   5.028   4.642  0.4264 -0.6314 -0.3948
 6399TIP3    H240689   0.710   4.889   4.637 -0.3457 -1.0141  0.5600
 6400TIP3   OH240690   4.650   0.519   0.956  0.6071  0.7264 -0.5743
 6400TIP3    H140691   4.693   0.556   1.033  2.0666  0.1234 -1.0636
 6400TIP3    H240692   4.606   0.594   0.915 -0.9235  0.9240  1.2417
 6401TIP3   OH240693   2.836   2.745  14.641 -0.5272  0.4710 -0.5077
 6401TIP3    H140694   2.909   2.789  14.597  0.7145 -1.5570 -0.5946
 6401TIP3    H240695   2.796   2.691  14.572 -0.7896 -0.0381  0.0357
 6402TIP3   OH240696   3.859   3.747  17.152 -0.2469  0.9624  0.4682
 6402TIP3    H140697   3.847   3.763  17.246 -0.1443  0.5021  0.5647
 6402TIP3    H240698   3.770   3.753  17.115 -0.2812  1.1876  0.5880
 6403TIP3   OH240699   5.475   3.757   4.927  0.0513  0.4066 -0.5130
 6403TIP3    H140700   5.434   3.716   5.003  1.3521  0.3161  0.1570
 6403TIP3    H240701   5.498   3.683   4.870 -1.9268  0.5276 -1.5681
 6404TIP3   OH240702   4.158   6.570   4.943  0.0028  0.1797 -0.0951
 6404TIP3    H140703   4.173   6.664   4.937 -1.2007  0.3455 -0.9218
 6404TIP3    H240704   4.062   6.561   4.945 -0.0194 -1.1494 -3.0036
 6405TIP3   OH240705   4.661   3.220   5.734 -0.3188 -0.0438  0.0122
 6405TIP3    H140706   4.662   3.315   5.724 -1.7018 -0.0517 -0.4788
 6405TIP3    H240707   4.712   3.203   5.813  0.2862  1.0647 -0.1222
 6406TIP3   OH240708   6.226   3.391  16.768 -0.0639 -0.0290  0.6058
 6406TIP3    H140709   6.229   3.296  16.756 -1.7242  0.0175 -0.4245
 6406TIP3    H240710   6.152   3.406  16.826 -0.3963  0.6969  0.0124
 6407TIP3   OH240711   5.255   2.372  12.464  0.1955  0.1570  0.0723
 6407TIP3    H140712   5.230   2.399  12.552 -0.5995  0.3023 -0.1923
 6407TIP3    H240713   5.346   2.345  12.472  0.4200  1.0697  0.7430
 6408TIP3   OH240714   2.329   2.526  14.140 -0.5863  0.1079  0.1002
 6408TIP3    H140715   2.367   2.439  14.125  2.0481  1.3491 -1.1371
 6408TIP3    H240716   2.378   2.561  14.214 -0.6956  1.0211 -0.2476
 6409TIP3   OH240717   3.321   5.095   5.372 -0.4209 -0.2244  0.3319
 6409TIP3    H140718   3.339   5.111   5.465 -0.4172 -1.1179  0.4852
 6409TIP3    H240719   3.225   5.088   5.367 -0.3891 -0.6711  0.3479
 6410TIP3   OH240720   1.752   1.973  11.528  0.0124 -0.1317  0.2114
 6410TIP3    H140721   1.706   2.032  11.468  1.0979 -2.7418 -3.5644
 6410TIP3    H240722   1.837   2.016  11.542 -0.2367  0.5082 -0.1918
 6411TIP3   OH240723   0.659   4.208  13.237 -0.5902 -0.2401 -0.5485
 6411TIP3    H140724   0.595   4.244  13.174 -2.0533  0.8127  1.4289
 6411TIP3    H240725   0.632   4.117  13.248 -0.7470 -0.2433 -0.9200
 6412TIP3   OH240726   1.190   2.040   1.954  0.5461 -0.0476  0.4960
 6412TIP3    H140727   1.275   2.068   1.986  0.9284  1.4347 -1.5856
 6412TIP3    H240728   1.158   2.114   1.902 -0.2647 -1.9196 -1.9071
 6413TIP3   OH240729   0.886   2.950  12.722  0.1095  0.3644 -0.0012
 6413TIP3    H140730   0.848   2.929  12.807 -0.6905 -0.3159 -0.5148
 6413TIP3    H240731   0.820   3.005  12.679  2.0279  3.9509  1.2167
 6414TIP3   OH240732   4.038   1.769  12.318  0.7473 -0.0236  0.3609
 6414TIP3    H140733   4.124   1.753  12.357  0.8097 -0.3251  0.1080
 6414TIP3    H240734   4.057   1.799  12.229  0.5828 -1.6113 -0.2476
 6415TIP3   OH240735   4.922   0.157  16.672  0.3403  1.1797 -0.0066
 6415TIP3    H140736   4.955   0.121  16.754 -2.4161  0.1045  0.7491
 6415TIP3    H240737   4.916   0.252  16.688  0.8783  1.1193  0.6038
 6416TIP3   OH240738   5.645   1.544   3.001  0.1848  0.0300  0.1533
 6416TIP3    H140739   5.627   1.507   3.087 -3.0062 -0.1995 -0.4907
 6416TIP3    H240740   5.635   1.639   3.012 -0.7574 -0.0356 -0.0198
 6417TIP3   OH240741   1.932   3.467  16.956  1.0373 -0.2825  0.4656
 6417TIP3    H140742   1.947   3.401  17.024 -0.7475  0.4562  1.6296
 6417TIP3    H240743   1.894   3.541  17.002 -2.2881 -0.5316 -1.5490
 6418TIP3   OH240744   6.259   3.389   2.807 -0.3655 -0.0207 -0.0699
 6418TIP3    H140745   6.262   3.336   2.886 -0.6890  1.8271  1.2516
 6418TIP3    H240746   6.169   3.422   2.804  0.2375  1.7121  0.0498
 6419TIP3   OH240747   0.357   5.035  14.525 -0.3080 -0.9686 -0.0427
 6419TIP3    H140748   0.338   5.129  14.520 -1.1393 -1.1271  0.0179
 6419TIP3    H240749   0.452   5.030  14.512 -0.4014 -0.2095 -1.1670
 6420TIP3   OH240750   3.980   4.279   2.280  0.2095  0.1611  0.6434
 6420TIP3    H140751   4.066   4.309   2.251  0.8963 -4.2773 -3.0715
 6420TIP3    H240752   3.922   4.354   2.267  2.4464  1.4721 -3.2745
 6421TIP3   OH240753   3.077   2.521  11.346 -0.3768  0.0904 -0.8317
 6421TIP3    H140754   3.169   2.538  11.326 -0.6112  0.7771 -1.3917
 6421TIP3    H240755   3.058   2.437  11.303  0.2848 -0.6631  0.2934
 6422TIP3   OH240756   4.768   3.996   1.975  0.3539 -0.2703  0.4829
 6422TIP3    H140757   4.743   3.931   2.040 -0.5117 -2.3155 -1.7560
 6422TIP3    H240758   4.860   3.978   1.957  0.4672 -0.0041  0.7799
 6423TIP3   OH240759   0.609   4.844  11.515  0.0215  0.2344 -0.5148
 6423TIP3    H140760   0.521   4.856  11.551  0.6991 -0.6711  1.5981
 6423TIP3    H240761   0.668   4.867  11.586  1.4857 -0.3691 -1.4832
 6424TIP3   OH240762   0.425   2.169   2.373  0.4305 -0.0285 -0.1036
 6424TIP3    H140763   0.365   2.225   2.323 -0.6875 -1.1067 -0.0238
 6424TIP3    H240764   0.488   2.138   2.308  0.4581  0.5116 -0.3430
 6425TIP3   OH240765   1.868   4.641  12.392  0.1009  0.2545  0.1759
 6425TIP3    H140766   1.781   4.673  12.365 -0.4985 -1.5259 -0.1298
 6425TIP3    H240767   1.927   4.672  12.323 -0.0827  2.2941  0.8587
 6426TIP3   OH240768   1.105   2.813   1.844 -0.1305 -0.2805  0.7050
 6426TIP3    H140769   1.180   2.872   1.844 -0.0522 -0.3695 -0.1269
 6426TIP3    H240770   1.070   2.818   1.755  0.9256 -2.7990  0.0560
 6427TIP3   OH240771   0.634   5.535  16.508 -0.6806 -0.1593 -0.5344
 6427TIP3    H140772   0.692   5.481  16.562 -1.3324  1.0010  1.4351
 6427TIP3    H240773   0.694   5.596  16.463 -0.0026 -2.0198 -2.3114
 6428TIP3   OH240774   2.256   1.982  16.606 -0.4155  0.1953  1.0248
 6428TIP3    H140775   2.350   1.999  16.620 -0.5140  1.6844  0.0871
 6428TIP3    H240776   2.214   2.066  16.625 -1.5069 -0.3323  0.9697
 6429TIP3   OH240777   0.030   6.769  14.030 -0.0801 -0.2435 -0.2541
 6429TIP3    H140778   0.046   6.862  14.012 -0.1541 -0.4961 -1.7553
 6429TIP3    H240779   0.086   6.749  14.106 -1.1282  1.3372  1.0047
 6430TIP3   OH240780   6.693   6.694   3.371 -0.5625 -0.1382  0.1882
 6430TIP3    H140781   6.684   6.774   3.423 -0.9322 -0.1814  0.1908
 6430TIP3    H240782   6.625   6.635   3.404  0.6465 -1.0161  1.1966
 6431TIP3   OH240783   2.255   1.932  14.702 -0.1217 -0.1990  0.6061
 6431TIP3    H140784   2.277   1.887  14.620  0.0706 -0.2127  0.6654
 6431TIP3    H240785   2.179   1.986  14.679  0.0535 -0.0518  0.3691
 6432TIP3   OH240786   3.120   6.741   2.376 -0.3215  0.2672  0.0276
 6432TIP3    H140787   3.164   6.807   2.429 -0.1202  1.5232 -1.6548
 6432TIP3    H240788   3.191   6.686   2.341 -0.2909  0.6573 -0.5305
 6433TIP3   OH240789   1.103   5.864   6.094  0.2706 -0.0548 -0.0056
 6433TIP3    H140790   1.120   5.770   6.097  0.6784  0.0018  3.2865
 6433TIP3    H240791   1.053   5.882   6.174 -1.2373  2.3237 -1.3679
 6434TIP3   OH240792   4.853   1.754  15.484 -0.9506  0.2284 -1.1562
 6434TIP3    H140793   4.896   1.668  15.487  1.6733  1.4834  0.4272
 6434TIP3    H240794   4.815   1.764  15.571 -2.1279  0.3414 -1.6514
 6435TIP3   OH240795   1.556   1.419  15.475 -0.1096 -0.1993  0.1051
 6435TIP3    H140796   1.598   1.483  15.531 -1.0395  0.6315 -0.1062
 6435TIP3    H240797   1.559   1.337  15.524  1.8122 -0.2015  0.0407
 6436TIP3   OH240798   3.548   4.572   4.695 -0.4043 -0.4610  0.1545
 6436TIP3    H140799   3.624   4.602   4.645 -0.8869 -0.8525 -0.8443
 6436TIP3    H240800   3.570   4.483   4.721  0.5729  0.3110  2.1852
 6437TIP3   OH240801   3.234   6.728  13.393  0.6167  0.4374 -0.3594
 6437TIP3    H140802   3.328   6.709  13.392  0.5210 -0.0900 -1.7927
 6437TIP3    H240803   3.194   6.643  13.413  0.4773  1.0306  2.1443
 6438TIP3   OH240804   5.574   4.964   1.459 -0.1096 -0.7405 -0.7772
 6438TIP3    H140805   5.615   5.040   1.418  0.3990 -1.6214 -1.9743
 6438TIP3    H240806   5.508   5.000   1.517  0.4375  0.6249 -0.9789
 6439TIP3   OH240807   4.388   4.208   4.770 -0.1601  0.2067 -0.2218
 6439TIP3    H140808   4.427   4.269   4.832  0.9215  0.3365 -1.0146
 6439TIP3    H240809   4.298   4.195   4.803  0.8202 -0.9798  2.2813
 6440TIP3   OH240810   1.339   4.659  14.524 -0.2490  0.2655 -0.1404
 6440TIP3    H140811   1.375   4.571  14.530 -0.1105  0.2558 -0.9811
 6440TIP3    H240812   1.415   4.717  14.534 -0.1669  0.2657 -0.7445
 6441TIP3   OH240813   2.902   3.590  12.750  0.1921 -0.5413  0.4030
 6441TIP3    H140814   2.913   3.501  12.717  0.6553  0.0389 -1.0812
 6441TIP3    H240815   2.978   3.638  12.716  0.4778  0.2160  1.9999
 6442TIP3   OH240816   4.269   3.877  14.151 -0.0854  0.3263  0.4466
 6442TIP3    H140817   4.349   3.921  14.121 -0.1181 -0.2352 -0.4869
 6442TIP3    H240818   4.226   3.847  14.071 -2.0226  1.9342  0.8036
 6443TIP3   OH240819   0.814   4.119  15.333 -0.3511  0.2769 -0.7454
 6443TIP3    H140820   0.722   4.144  15.324 -0.7338 -0.0975  1.4642
 6443TIP3    H240821   0.858   4.200  15.359 -1.3391 -0.6008  4.9279
 6444TIP3   OH240822   3.394   4.591  10.901  1.0507 -0.1594 -0.0243
 6444TIP3    H140823   3.336   4.645  10.847 -0.8121 -1.1678  0.8810
 6444TIP3    H240824   3.425   4.523  10.841  1.5014  0.5075 -0.5691
 6445TIP3   OH240825   0.972   3.364  15.981  0.1851 -0.0871 -0.5727
 6445TIP3    H140826   1.059   3.330  15.959  0.0829 -2.8457  2.4458
 6445TIP3    H240827   0.988   3.453  16.011  1.9505 -0.4021 -0.4845
 6446TIP3   OH240828   0.052   4.087   2.450 -0.0216  0.3629  0.3337
 6446TIP3    H140829  -0.031   4.090   2.497  0.5392  0.0191  1.3870
 6446TIP3    H240830   0.110   4.037   2.508  1.1574  1.3086  0.0045
 6447TIP3   OH240831   6.631   3.559   1.404 -0.0664  0.0583 -0.2832
 6447TIP3    H140832   6.609   3.505   1.328 -1.7263  1.1072 -0.5987
 6447TIP3    H240833   6.548   3.575   1.448  0.7349  0.2974  1.2235
 6448TIP3   OH240834   3.205   4.221   6.776 -0.1671 -0.2262 -0.0781
 6448TIP3    H140835   3.133   4.160   6.790 -0.4296 -0.2962 -1.6079
 6448TIP3    H240836   3.252   4.222   6.859 -2.4331  0.5241  1.2788
 6449TIP3   OH240837   1.258   6.481  12.697 -0.4367  0.6790 -1.1106
 6449TIP3    H140838   1.224   6.408  12.749 -2.7636  1.4921 -1.3515
 6449TIP3    H240839   1.303   6.537  12.761  1.4708 -0.9537 -0.9435
 6450TIP3   OH240840   5.900   5.764  16.432  0.0633 -0.4790  0.2348
 6450TIP3    H140841   5.867   5.853  16.444 -0.1380 -0.7615  2.1668
 6450TIP3    H240842   5.822   5.710  16.422  0.1889 -0.1940 -4.0448
 6451TIP3   OH240843   0.954   1.940   4.103 -0.3884 -0.4650 -0.0060
 6451TIP3    H140844   1.018   1.887   4.152  0.5564  0.4568 -0.1901
 6451TIP3    H240845   0.951   1.900   4.017 -0.2698 -0.6960  0.0955
 6452TIP3   OH240846   5.806   5.778   5.846  0.5026 -0.1971  1.1055
 6452TIP3    H140847   5.728   5.770   5.900 -0.2819  1.2080  0.2448
 6452TIP3    H240848   5.795   5.861   5.799  1.7778 -0.7014 -0.1861
 6453TIP3   OH240849   1.247   2.193  13.681  0.3881 -0.1365  0.2844
 6453TIP3    H140850   1.283   2.198  13.770  2.8565  0.1912 -0.6653
 6453TIP3    H240851   1.168   2.247  13.685  1.6330  1.7315  1.7591
 6454TIP3   OH240852   5.286   3.838   3.001 -0.1591 -0.3177  0.2272
 6454TIP3    H140853   5.232   3.804   3.072  0.1758 -0.7411  0.2861
 6454TIP3    H240854   5.249   3.799   2.922  0.3414 -0.9768  0.3136
 6455TIP3   OH240855   3.301   5.376   4.300 -0.1448  0.1932 -0.1690
 6455TIP3    H140856   3.256   5.430   4.235  1.5515 -0.3215 -1.8664
 6455TIP3    H240857   3.304   5.289   4.260 -2.0785 -1.0461  2.1379
 6456TIP3   OH240858   2.564   1.527   0.432 -0.2114 -0.6391 -0.2302
 6456TIP3    H140859   2.601   1.611   0.404  0.3855 -0.1280  1.8917
 6456TIP3    H240860   2.641   1.473   0.454 -0.6231 -1.3374 -0.4528
 6457TIP3   OH240861   5.296   5.648   3.550  0.5429 -0.0242  0.3269
 6457TIP3    H140862   5.217   5.679   3.595 -0.2491 -0.6683 -0.5716
 6457TIP3    H240863   5.355   5.723   3.550 -0.7702  1.0556 -0.5341
 6458TIP3   OH240864   0.783   5.193  11.802  0.4699  0.2188 -0.4952
 6458TIP3    H140865   0.767   5.244  11.723 -1.3127  1.7821  0.8171
 6458TIP3    H240866   0.698   5.188  11.846  0.1597 -4.8599 -0.9977
 6459TIP3   OH240867   4.821   3.931  14.100  0.0608  0.0822  0.0756
 6459TIP3    H140868   4.786   3.856  14.148  0.8792 -0.1800  0.2804
 6459TIP3    H240869   4.763   3.940  14.025 -0.0734 -0.7307  0.0703
 6460TIP3   OH240870   5.171   3.852  14.845  0.5421  0.8828 -0.0973
 6460TIP3    H140871   5.091   3.867  14.894  0.2561 -0.0732 -0.2369
 6460TIP3    H240872   5.180   3.929  14.789  0.9209  2.0377  1.4814
 6461TIP3   OH240873   0.516   2.365   0.847  0.0678 -0.6183  0.4848
 6461TIP3    H140874   0.425   2.369   0.816  0.0612 -1.6118  0.3275
 6461TIP3    H240875   0.539   2.455   0.867 -0.7622 -0.2795 -0.0436
 6462TIP3   OH240876   1.529   0.623   1.735  0.1605  0.0294 -0.0624
 6462TIP3    H140877   1.594   0.567   1.692 -0.0785 -0.6314  0.4306
 6462TIP3    H240878   1.490   0.568   1.803 -0.8648  0.4341 -0.2953
 6463TIP3   OH240879   4.821   1.030   5.147 -0.3033  0.2728  0.1861
 6463TIP3    H140880   4.872   1.107   5.123  1.6479 -0.5565  1.3247
 6463TIP3    H240881   4.838   0.967   5.076  1.4908 -0.4845  1.2184
 6464TIP3   OH240882   0.831   3.474   5.208  0.1346 -0.0466 -0.0332
 6464TIP3    H140883   0.832   3.390   5.253 -0.6266 -0.0525 -0.0165
 6464TIP3    H240884   0.757   3.521   5.246  0.6918  0.7256  0.1222
 6465TIP3   OH240885   5.756   5.870   4.160 -0.2737 -0.3905  0.3651
 6465TIP3    H140886   5.790   5.807   4.224  2.3050  0.1666 -0.3427
 6465TIP3    H240887   5.739   5.949   4.210  1.2954 -0.1005  0.4660
 6466TIP3   OH240888   4.825   4.061  16.075 -0.3669  0.0312 -0.2568
 6466TIP3    H140889   4.841   4.101  15.989  0.0523 -2.0449 -1.2033
 6466TIP3    H240890   4.802   3.971  16.055  0.7790 -0.7944  1.8667
 6467TIP3   OH240891   0.512   6.214  16.614  0.3668  0.0381  0.0446
 6467TIP3    H140892   0.601   6.244  16.634  1.3337 -2.3481 -0.3562
 6467TIP3    H240893   0.505   6.222  16.519 -0.2288  1.1021  0.1635
 6468TIP3   OH240894   6.445   3.099  10.680  0.4663 -0.4705 -0.2433
 6468TIP3    H140895   6.400   3.113  10.764  1.7433  0.7557  0.2783
 6468TIP3    H240896   6.394   3.149  10.617 -0.0904 -0.8083 -0.0719
 6469TIP3   OH240897   3.959   3.919  14.272  0.0246  0.4270  0.2639
 6469TIP3    H140898   3.910   3.852  14.224  0.0600  0.3710  0.3067
 6469TIP3    H240899   3.899   3.949  14.339  0.1281  0.2051  0.4549
 6470TIP3   OH240900   6.431   6.726  10.875 -0.6527 -0.0078 -0.4886
 6470TIP3    H140901   6.525   6.706  10.879 -0.8486 -0.9972  3.1339
 6470TIP3    H240902   6.396   6.662  10.813  0.7426 -1.3793  0.0610
 6471TIP3   OH240903   1.626   5.493  13.530  0.0779 -0.2320  0.1347
 6471TIP3    H140904   1.639   5.464  13.620 -0.6374  0.5769  0.5142
 6471TIP3    H240905   1.552   5.441  13.499  0.0928 -0.2526  0.1334
 6472TIP3   OH240906   3.207   4.900   1.116 -0.1413  0.4777 -0.4212
 6472TIP3    H140907   3.205   4.994   1.135 -0.1395  0.1407  1.4838
 6472TIP3    H240908   3.299   4.876   1.126 -0.4912 -0.1714  1.8728
 6473TIP3   OH240909   5.033   2.432  14.095 -0.1622 -0.4021  0.7256
 6473TIP3    H140910   5.025   2.441  14.000 -0.8390  1.2553  0.9047
 6473TIP3    H240911   5.119   2.471  14.115 -0.6634  0.6333  0.9274
 6474TIP3   OH240912   3.190   4.646  12.071  0.1271 -0.3216 -0.2552
 6474TIP3    H140913   3.152   4.670  12.156  1.3491 -0.8065  0.4506
 6474TIP3    H240914   3.234   4.562  12.087 -0.3345 -0.8412 -1.5845
 6475TIP3   OH240915   5.662   2.139   5.854 -0.1470  0.0644 -0.0654
 6475TIP3    H140916   5.727   2.201   5.886 -0.1843 -0.2656  0.6621
 6475TIP3    H240917   5.633   2.092   5.932 -1.4404  0.3711 -0.3357
 6476TIP3   OH240918   4.294   5.661   3.545 -0.1607 -0.0984  0.4792
 6476TIP3    H140919   4.313   5.605   3.470 -1.0568  0.4154 -0.1500
 6476TIP3    H240920   4.259   5.600   3.611 -1.9788 -0.2191 -0.5151
 6477TIP3   OH240921   6.345   5.108  11.728  0.6069 -0.1791 -0.0703
 6477TIP3    H140922   6.252   5.132  11.730  1.3380  2.9989  1.3559
 6477TIP3    H240923   6.346   5.014  11.747 -2.2299  0.1755  2.5732
 6478TIP3   OH240924   1.900   5.726   4.618 -0.0298 -0.0669  0.2527
 6478TIP3    H140925   1.931   5.649   4.665  1.1708  0.2177 -0.0385
 6478TIP3    H240926   1.836   5.766   4.678  1.0977  0.0121  1.4656
 6479TIP3   OH240927   5.197   5.126   0.758 -0.0054 -0.0290 -0.4713
 6479TIP3    H140928   5.107   5.147   0.735 -0.0627 -0.1665 -0.3762
 6479TIP3    H240929   5.232   5.207   0.794 -0.2579 -0.1218 -0.0059
 6480TIP3   OH240930   1.733   0.247   3.110  0.2357  0.3293  0.0441
 6480TIP3    H140931   1.815   0.294   3.126 -0.0354  1.5505 -1.8372
 6480TIP3    H240932   1.681   0.261   3.189  1.0446  1.3065  0.4221
 6481TIP3   OH240933   4.581   2.209  14.580 -0.0205 -0.0369  0.7145
 6481TIP3    H140934   4.516   2.211  14.650 -0.5450  0.4820  0.2259
 6481TIP3    H240935   4.560   2.130  14.529  0.2373 -0.3049  1.0202
 6482TIP3   OH240936   4.164   6.239  15.996  0.5609  0.3140 -0.5412
 6482TIP3    H140937   4.125   6.322  15.967 -0.4572  0.0849  0.1024
 6482TIP3    H240938   4.234   6.265  16.056  0.0034  0.7271 -0.0437
 6483TIP3   OH240939   1.169   6.307  13.840  0.4845  0.4735  0.0594
 6483TIP3    H140940   1.143   6.369  13.771 -3.7594  0.5741  1.4298
 6483TIP3    H240941   1.142   6.222  13.806  1.7763  0.0060  0.1694
 6484TIP3   OH240942   1.482   3.108   5.885  0.3375  0.0099 -0.1777
 6484TIP3    H140943   1.518   3.157   5.811 -0.4612 -0.3254 -0.8117
 6484TIP3    H240944   1.537   3.029   5.891 -0.1042 -0.3765 -0.9716
 6485TIP3   OH240945   3.551   3.421   1.403 -0.1457  0.4895  0.2850
 6485TIP3    H140946   3.530   3.499   1.352 -1.5022 -0.7948 -1.2264
 6485TIP3    H240947   3.490   3.354   1.372  1.7240 -1.5260  0.6792
 6486TIP3   OH240948   2.069   4.431  12.547 -0.0601  0.6916 -0.0260
 6486TIP3    H140949   2.008   4.442  12.620 -1.2572  0.5952 -0.9987
 6486TIP3    H240950   2.139   4.495  12.565 -1.0794  1.7154  0.4400
 6487TIP3   OH240951   3.920   0.384   4.505  0.7952  0.4274 -0.0424
 6487TIP3    H140952   3.922   0.480   4.509 -1.4158  0.6501 -1.8092
 6487TIP3    H240953   4.007   0.357   4.532  1.6116  2.9613  0.1551
 6488TIP3   OH240954   3.643   2.655  14.152  0.2577 -0.1330  0.3984
 6488TIP3    H140955   3.708   2.630  14.218  1.0179  0.0430 -0.2784
 6488TIP3    H240956   3.672   2.614  14.071 -0.9632 -0.7874  0.2618
 6489TIP3   OH240957   0.827   5.907  14.137 -0.6775 -0.1579 -0.3427
 6489TIP3    H140958   0.886   5.908  14.062  1.6983  0.6367  1.4002
 6489TIP3    H240959   0.824   5.815  14.164 -0.3597 -0.2239 -0.5287
 6490TIP3   OH240960   4.243   6.688   5.761  0.3150  0.0953  0.1999
 6490TIP3    H140961   4.237   6.716   5.853 -1.4539 -1.7745  0.7404
 6490TIP3    H240962   4.242   6.769   5.711  2.3798  1.2176  1.8259
 6491TIP3   OH240963   1.554   5.888  14.404 -0.5405  0.1943 -0.2729
 6491TIP3    H140964   1.570   5.934  14.486 -0.7160 -0.1044 -0.0693
 6491TIP3    H240965   1.628   5.828  14.395 -1.9466 -1.9160  1.1776
 6492TIP3   OH240966   6.373   5.393  11.676  0.2013  0.0449 -0.2661
 6492TIP3    H140967   6.348   5.310  11.716 -1.0733  0.7820  0.5474
 6492TIP3    H240968   6.340   5.386  11.586 -1.1978  0.1956  0.2069
 6493TIP3   OH240969   6.468   2.735   4.638  0.4457 -0.5712 -0.1112
 6493TIP3    H140970   6.523   2.694   4.571  0.5652 -0.9117  0.1956
 6493TIP3    H240971   6.475   2.829   4.621  0.2131 -0.6701 -0.7869
 6494TIP3   OH240972   1.064   3.207   2.039 -0.3116  0.6237 -0.5424
 6494TIP3    H140973   1.067   3.150   1.962  0.9789 -1.7506  1.1467
 6494TIP3    H240974   1.002   3.164   2.098 -0.3535  1.7411  0.2554
 6495TIP3   OH240975   5.981   6.229   2.815  0.2815  0.1118  0.5839
 6495TIP3    H140976   5.904   6.189   2.855  0.0954 -0.4240 -0.2965
 6495TIP3    H240977   5.969   6.217   2.721  1.3559  0.1785  0.4243
 6496TIP3   OH240978   1.805   3.843   0.486 -0.3257 -0.1499  0.1902
 6496TIP3    H140979   1.838   3.909   0.547 -0.4815 -1.6043  1.9308
 6496TIP3    H240980   1.836   3.760   0.521  0.0926 -1.0357 -2.0920
 6497TIP3   OH240981   1.417   6.751  13.563  0.3064 -0.0937  0.2713
 6497TIP3    H140982   1.366   6.691  13.618 -0.0496  0.6241  0.7440
 6497TIP3    H240983   1.380   6.741  13.476 -2.5331  2.2691  1.0193
 6498TIP3   OH240984   0.425   3.119  16.701  0.2431 -0.0639 -0.4404
 6498TIP3    H140985   0.486   3.172  16.752 -0.6064  1.1053 -0.5833
 6498TIP3    H240986   0.457   3.029  16.710  0.8068  0.2611  1.1336
 6499TIP3   OH240987   6.022   0.812  14.633  0.2757  0.0612  0.1621
 6499TIP3    H140988   5.930   0.787  14.635 -0.0203  0.7528 -2.2171
 6499TIP3    H240989   6.026   0.894  14.683 -0.8858  1.2664 -1.6178
 6500TIP3   OH240990   1.588   5.551  13.108 -0.5731  0.7446  0.2088
 6500TIP3    H140991   1.571   5.599  13.027 -0.8937  1.8574  0.9301
 6500TIP3    H240992   1.630   5.614  13.166  0.0226 -0.1526  0.7848
 6501TIP3   OH240993   3.283   4.940   4.309  0.0905 -0.4792 -0.5787
 6501TIP3    H140994   3.244   4.893   4.383  1.2505 -0.8601 -0.1818
 6501TIP3    H240995   3.226   4.920   4.235  1.8319 -4.7904 -1.0827
 6502TIP3   OH240996   1.864   3.968   4.746  0.3062  0.5076  0.0531
 6502TIP3    H140997   1.941   3.915   4.766  0.3017  0.7922  0.8423
 6502TIP3    H240998   1.842   4.012   4.828 -0.7713  0.3344 -0.1184
 6503TIP3   OH240999   5.675   2.360  11.721  1.0656  0.4264  0.4586
 6503TIP3    H141000   5.671   2.281  11.774 -2.1363  0.2999  0.2098
 6503TIP3    H241001   5.594   2.359  11.670  2.0764  2.6392 -1.3837
 6504TIP3   OH241002   5.093   3.463   1.985 -0.3786 -0.1636 -0.1370
 6504TIP3    H141003   5.146   3.438   2.061  1.4835  0.9881 -0.9670
 6504TIP3    H241004   5.123   3.405   1.914 -0.7629  0.0060 -0.4436
 6505TIP3   OH241005   4.058   2.305  15.028 -0.1656 -0.2836  0.0006
 6505TIP3    H141006   4.034   2.216  15.053 -2.4458  0.0654 -0.7706
 6505TIP3    H241007   4.131   2.293  14.967  0.1608 -1.5402  0.5962
 6506TIP3   OH241008   6.293   0.241  14.292  0.1767 -0.0519 -0.2996
 6506TIP3    H141009   6.226   0.292  14.338 -0.8885 -1.1383 -0.5911
 6506TIP3    H241010   6.376   0.273  14.327 -0.5347  0.4075  1.0408
 6507TIP3   OH241011   4.686   0.258   3.004 -0.2149 -0.1853  0.2139
 6507TIP3    H141012   4.659   0.350   3.005  1.6214  0.4687 -2.2114
 6507TIP3    H241013   4.707   0.238   3.095  1.6266  2.5588  0.4897
 6508TIP3   OH241014   5.080   1.607  16.729 -0.4882 -0.3270  0.3159
 6508TIP3    H141015   5.063   1.515  16.708  1.0490 -0.6426  0.2854
 6508TIP3    H241016   5.169   1.606  16.766 -0.3225  1.1872 -0.0038
 6509TIP3   OH241017   2.747   0.626   1.368  0.2184  0.1978 -0.3801
 6509TIP3    H141018   2.699   0.658   1.292  3.4105  2.2560 -1.7858
 6509TIP3    H241019   2.784   0.542   1.340  1.0368  0.7510 -1.0438
 6510TIP3   OH241020   1.103   1.890  11.928 -0.4780  0.1344 -0.0538
 6510TIP3    H141021   1.031   1.889  11.991 -1.0371  0.3617 -0.6740
 6510TIP3    H241022   1.141   1.977  11.937 -1.3578  0.6250 -0.8991
 6511TIP3   OH241023   4.608   3.338  13.280 -0.3707 -0.0332  0.1181
 6511TIP3    H141024   4.671   3.287  13.331  0.6824  0.9461 -0.1607
 6511TIP3    H241025   4.628   3.317  13.189 -1.2121 -0.5832  0.0510
 6512TIP3   OH241026   3.175   6.025  11.976  0.1595 -0.4098 -0.2596
 6512TIP3    H141027   3.169   6.091  12.044 -1.1916  0.5960 -1.3117
 6512TIP3    H241028   3.252   5.973  12.000 -0.1187  0.0739  1.8477
 6513TIP3   OH241029   4.897   0.719   4.466 -0.7459  0.2335  0.1264
 6513TIP3    H141030   4.889   0.635   4.421 -0.9090  1.1162 -1.5622
 6513TIP3    H241031   4.861   0.702   4.554  0.7172 -1.8436  0.4014
 6514TIP3   OH241032   1.016   2.983  11.854 -0.4947  0.3078 -0.0067
 6514TIP3    H141033   1.068   2.987  11.774  0.3894  1.5198  0.5847
 6514TIP3    H241034   1.056   3.049  11.912 -2.7110  1.3425  0.4641
 6515TIP3   OH241035   1.552   0.386   1.549  0.0189 -0.0320  0.3609
 6515TIP3    H141036   1.626   0.420   1.499  0.0058 -0.6822 -0.1131
 6515TIP3    H241037   1.475   0.427   1.508 -0.1686 -1.9942 -1.4738
 6516TIP3   OH241038   1.490   2.519  12.840 -0.1477  0.4092 -0.0555
 6516TIP3    H141039   1.513   2.431  12.871  1.0743  0.8955  0.4904
 6516TIP3    H241040   1.404   2.536  12.878  0.7800  0.5065  2.1445
 6517TIP3   OH241041   1.669   5.712   4.106 -0.0108  0.2496  0.3260
 6517TIP3    H141042   1.693   5.694   4.197  0.7606  1.3552  0.3560
 6517TIP3    H241043   1.674   5.627   4.062 -2.8602 -0.8232  1.8073
 6518TIP3   OH241044   4.999   1.662   4.265 -0.2739 -0.4506  0.0543
 6518TIP3    H141045   4.929   1.727   4.276 -0.1729 -0.4752  0.8900
 6518TIP3    H241046   4.956   1.578   4.282 -0.4250 -0.6217 -1.1132
 6519TIP3   OH241047   5.036   6.403  13.112  0.1566  0.5851 -0.0855
 6519TIP3    H141048   5.041   6.447  13.027  2.1313  0.5935 -0.0206
 6519TIP3    H241049   5.077   6.465  13.173  1.0403 -0.4381  0.3902
 6520TIP3   OH241050   6.663   3.639   0.996 -0.0081  0.5533  0.1414
 6520TIP3    H141051   6.686   3.591   0.916 -1.1345  0.0373  0.0994
 6520TIP3    H241052   6.572   3.613   1.014 -0.3020  1.8876  0.7075
 6521TIP3   OH241053   0.330   4.705   5.050  0.4660  0.1213  0.4749
 6521TIP3    H141054   0.348   4.766   4.979  0.3138  0.4118  0.6848
 6521TIP3    H241055   0.301   4.625   5.006 -0.3698  0.5511  0.2256
 6522TIP3   OH241056   2.479   2.630   2.830  0.0677 -0.0551 -0.0031
 6522TIP3    H141057   2.571   2.603   2.832  0.1746  0.2938  1.7898
 6522TIP3    H241058   2.443   2.598   2.913 -1.4907 -0.3478 -0.7563
 6523TIP3   OH241059   2.105   2.357  13.382  0.1724  0.3585  0.2130
 6523TIP3    H141060   2.075   2.322  13.298  0.7754  0.4890 -0.0656
 6523TIP3    H241061   2.041   2.327  13.446  0.3281 -0.7186 -0.1217
 6524TIP3   OH241062   1.384   2.706  16.271  0.4695 -0.9664  0.1591
 6524TIP3    H141063   1.339   2.718  16.188 -0.2165  0.9458  0.7520
 6524TIP3    H241064   1.477   2.697  16.246  0.2676 -0.5050 -0.8194
 6525TIP3   OH241065   3.138   2.615   4.845 -0.2089  0.0096  0.4781
 6525TIP3    H141066   3.177   2.603   4.932  1.1595  1.6520  0.1497
 6525TIP3    H241067   3.094   2.532   4.827  2.3459 -1.6662  1.3200
 6526TIP3   OH241068   5.794   1.013   5.527 -0.0545 -0.0540  0.0891
 6526TIP3    H141069   5.724   0.971   5.477 -0.8882  0.8533  0.4490
 6526TIP3    H241070   5.748   1.071   5.588  0.9659 -0.4303  1.2655
 6527TIP3   OH241071   1.594   4.094   4.941 -0.1443  0.1892  0.8252
 6527TIP3    H141072   1.619   4.147   4.865 -1.3115  0.0038  0.2984
 6527TIP3    H241073   1.677   4.057   4.972  0.3847  0.4779 -0.1882
 6528TIP3   OH241074   1.752   0.274   5.951  0.3882 -0.0088  0.3460
 6528TIP3    H141075   1.788   0.192   5.919  0.7130  0.2408  0.0725
 6528TIP3    H241076   1.733   0.257   6.044 -2.1958 -1.2978 -0.3356
 6529TIP3   OH241077   1.029   2.283   1.213 -0.0391  0.0215  0.0523
 6529TIP3    H141078   0.984   2.321   1.138 -0.0894 -0.0009  0.0709
 6529TIP3    H241079   1.120   2.309   1.202 -0.3348  1.5296  0.9276
 6530TIP3   OH241080   6.310   0.137  14.781 -0.0510  0.9248  0.5469
 6530TIP3    H141081   6.228   0.179  14.808  0.2738  2.5434 -0.7957
 6530TIP3    H241082   6.292   0.043  14.787 -1.4690  1.2281  1.7823
 6531TIP3   OH241083   4.921   4.938   0.666  0.0278 -0.0530 -0.0202
 6531TIP3    H141084   4.949   4.903   0.581 -1.1345  0.3542 -0.5931
 6531TIP3    H241085   4.933   5.033   0.657 -2.0582  0.2150 -0.5325
 6532TIP3   OH241086   0.026   0.559  11.126  0.0868 -0.3848 -0.0613
 6532TIP3    H141087   0.028   0.644  11.170  0.9606  0.4791 -1.6926
 6532TIP3    H241088  -0.056   0.519  11.155  0.8062 -0.0881  2.6619
 6533TIP3   OH241089   6.278   6.566  10.656 -0.1206 -0.1373  0.6704
 6533TIP3    H141090   6.325   6.634  10.608 -0.3543 -0.6263 -0.2598
 6533TIP3    H241091   6.333   6.488  10.649 -0.7566 -0.5475  0.1082
 6534TIP3   OH241092   0.416   0.514  11.285 -0.4913  0.6298 -0.5264
 6534TIP3    H141093   0.430   0.551  11.371  0.0788 -1.0161  0.1288
 6534TIP3    H241094   0.393   0.589  11.230 -2.1107  1.5494  1.2963
 6535TIP3   OH241095   3.344   1.096   6.064 -0.4619 -0.0945  0.3454
 6535TIP3    H141096   3.430   1.092   6.022 -0.3738  1.8347  0.2798
 6535TIP3    H241097   3.333   1.009   6.102  1.3149 -0.5355 -0.0321
 6536TIP3   OH241098   5.390   5.732  16.823 -0.1165  0.0465 -0.7495
 6536TIP3    H141099   5.413   5.812  16.775  0.5438  1.1950  1.3279
 6536TIP3    H241100   5.306   5.752  16.864 -0.0655 -0.3943 -0.4150
 6537TIP3   OH241101   3.359   0.492   1.033  0.4372 -0.1078  0.7732
 6537TIP3    H141102   3.369   0.576   1.076  1.4339  0.0661  0.2316
 6537TIP3    H241103   3.448   0.465   1.010  0.0963 -1.0719  0.4900
 6538TIP3   OH241104   1.396   3.171   2.055 -0.0059 -0.7261 -0.5338
 6538TIP3    H141105   1.309   3.201   2.084  0.4969  0.7366 -0.4562
 6538TIP3    H241106   1.398   3.078   2.079 -0.5947 -0.1952  1.8264
 6539TIP3   OH241107   0.499   3.043  12.839  0.0961  0.1073  0.0205
 6539TIP3    H141108   0.542   2.993  12.908 -0.0580 -0.0675 -0.0078
 6539TIP3    H241109   0.445   3.107  12.885  2.6912  2.4055  0.0820
 6540TIP3   OH241110   3.050   1.944   0.377  0.0039  0.0185 -0.3286
 6540TIP3    H141111   2.997   2.022   0.364  0.5281  0.1308 -2.0998
 6540TIP3    H241112   3.008   1.897   0.448 -2.0927  0.4227 -1.2423
 6541TIP3   OH241113   1.416   1.398   5.803  0.0310 -0.2553 -0.1327
 6541TIP3    H141114   1.387   1.489   5.810  1.5898  0.2660 -0.0035
 6541TIP3    H241115   1.447   1.390   5.712 -1.6529 -1.1789 -0.6672
 6542TIP3   OH241116   3.976   0.376  13.498 -0.2907 -0.0068  0.3180
 6542TIP3    H141117   3.980   0.457  13.549 -1.9512  1.3082 -1.4879
 6542TIP3    H241118   3.953   0.308  13.563  1.9745  0.7290  2.0190
 6543TIP3   OH241119   2.677   5.360  13.440 -1.1183 -0.1083  0.1511
 6543TIP3    H141120   2.747   5.400  13.491 -0.6589 -0.6994 -0.0070
 6543TIP3    H241121   2.709   5.272  13.420 -0.0225  0.9450 -3.5102
 6544TIP3   OH241122   1.708   5.890  15.820  0.2340  0.0080 -0.1367
 6544TIP3    H141123   1.642   5.872  15.753  1.2401  1.3404 -1.5655
 6544TIP3    H241124   1.789   5.858  15.782  0.7442  0.2887  0.6984
 6545TIP3   OH241125   0.497   1.348   2.203 -0.0821 -0.6425 -0.5362
 6545TIP3    H141126   0.581   1.303   2.217  0.9926  1.1601 -0.8468
 6545TIP3    H241127   0.458   1.353   2.291  1.5829  1.1381  0.1709
 6546TIP3   OH241128   1.809   4.799  15.405 -0.2137 -0.3499 -0.0465
 6546TIP3    H141129   1.780   4.875  15.455 -0.7332 -0.8769  0.4757
 6546TIP3    H241130   1.808   4.829  15.314  2.1029  1.0578  0.3003
 6547TIP3   OH241131   4.426   1.075   1.147  0.1655  0.0442 -0.5925
 6547TIP3    H141132   4.381   1.139   1.091  0.9693  0.9510 -0.2328
 6547TIP3    H241133   4.379   0.993   1.132 -0.7656  0.6689 -1.2215
 6548TIP3   OH241134   0.041   4.222  13.054  0.5550  0.3982  0.0358
 6548TIP3    H141135   0.084   4.180  12.979  1.7717  1.9781 -0.2075
 6548TIP3    H241136   0.097   4.201  13.129  1.7403  2.2556 -0.2420
 6549TIP3   OH241137   4.584   6.722   0.790 -0.0377  0.0956  0.0536
 6549TIP3    H141138   4.669   6.712   0.831  0.0050 -2.6263 -0.5112
 6549TIP3    H241139   4.602   6.715   0.696 -0.9530 -2.0279 -0.0280
 6550TIP3   OH241140   4.013   1.481   4.894  0.0165 -0.2781  0.2557
 6550TIP3    H141141   3.944   1.440   4.947 -0.0656  0.0071  0.3721
 6550TIP3    H241142   4.084   1.418   4.894 -1.0546 -1.6065 -1.7116
 6551TIP3   OH241143   1.595   2.196   1.999  0.2302 -0.0553 -0.1490
 6551TIP3    H141144   1.519   2.201   2.057 -0.5226 -0.3104 -1.0896
 6551TIP3    H241145   1.579   2.263   1.932 -0.3651 -1.6867 -1.7182
 6552TIP3   OH241146   0.832   5.276   2.979  0.0435 -0.0681  0.1402
 6552TIP3    H141147   0.926   5.259   2.987  0.7014  2.6933 -0.8989
 6552TIP3    H241148   0.805   5.225   2.903  0.9992  0.1904 -0.3875
 6553TIP3   OH241149   2.378   2.058   1.574  0.1019  0.0007 -0.9408
 6553TIP3    H141150   2.291   2.048   1.613  0.6163  2.4918  1.2035
 6553TIP3    H241151   2.439   2.037   1.646  1.1668  1.5632 -1.3200
 6554TIP3   OH241152   2.301   1.787   5.110  0.2257  0.2866  0.3067
 6554TIP3    H141153   2.287   1.739   5.191  0.5558  1.5067  1.1223
 6554TIP3    H241154   2.396   1.784   5.097  0.2347  0.5983  0.2956
 6555TIP3   OH241155   4.701   4.971  12.530  0.2954 -0.0239 -0.4258
 6555TIP3    H141156   4.683   5.022  12.452 -0.1711  0.1092 -0.2316
 6555TIP3    H241157   4.666   4.884  12.511 -1.9712  0.6009  0.4988
 6556TIP3   OH241158   0.374   2.352  15.087  0.4359 -0.4784  0.2276
 6556TIP3    H141159   0.418   2.266  15.086  3.1831  0.8088  0.5420
 6556TIP3    H241160   0.398   2.390  15.171 -0.0289  0.9260 -0.2442
 6557TIP3   OH241161   1.249   5.498  13.219  0.4384  0.0468 -0.3312
 6557TIP3    H141162   1.263   5.509  13.125  0.6297  2.5028 -0.0649
 6557TIP3    H241163   1.317   5.436  13.246 -1.4730 -3.1613 -2.2353
 6558TIP3   OH241164   5.546   3.091   2.195  0.0052 -0.3037 -0.1807
 6558TIP3    H141165   5.516   3.064   2.108 -0.0388 -3.0277  0.5703
 6558TIP3    H241166   5.642   3.091   2.188  0.0237  1.9147 -0.8080
 6559TIP3   OH241167   1.979   5.657  10.565 -0.6953 -0.1918 -0.2899
 6559TIP3    H141168   1.934   5.730  10.607 -1.0031 -0.7260  0.3352
 6559TIP3    H241169   2.065   5.691  10.543  0.7329 -0.7111  3.6348
 6560TIP3   OH241170   0.102   2.813  11.418 -0.0037  0.2225 -0.6697
 6560TIP3    H141171   0.048   2.776  11.487  0.3795 -0.2050 -0.5934
 6560TIP3    H241172   0.076   2.766  11.339  0.1104  0.1552 -0.6683
 6561TIP3   OH241173   3.303   2.518  15.530 -0.0669 -0.3829  0.3602
 6561TIP3    H141174   3.261   2.438  15.564  0.8803 -0.9314  0.2825
 6561TIP3    H241175   3.287   2.515  15.436 -0.5323 -0.1722  0.4300
 6562TIP3   OH241176   0.515   6.050   4.399 -0.4210  0.5191 -0.0981
 6562TIP3    H141177   0.601   6.085   4.375  0.4605 -0.0917  1.9529
 6562TIP3    H241178   0.531   6.001   4.480 -2.5891 -0.1866 -0.0412
 6563TIP3   OH241179   1.632   5.544   3.115  0.1197  0.7332 -0.5885
 6563TIP3    H141180   1.553   5.490   3.106  0.0302  0.8542 -0.5325
 6563TIP3    H241181   1.614   5.599   3.191  1.5586 -1.5017  1.5281
 6564TIP3   OH241182   5.505   3.566   5.370 -0.4290  0.1318  0.4813
 6564TIP3    H141183   5.422   3.575   5.324  0.0991 -1.2475 -0.8383
 6564TIP3    H241184   5.489   3.601   5.457 -1.9211  1.3909 -0.2552
 6565TIP3   OH241185   4.948   1.018  13.094 -0.0978 -0.5438  0.2074
 6565TIP3    H141186   4.951   1.110  13.068 -1.8300  0.3625  2.7361
 6565TIP3    H241187   4.990   0.971  13.022  2.0149  2.3067 -0.6303
 6566TIP3   OH241188   6.530   5.312   0.830  0.1590  0.0006  0.3695
 6566TIP3    H141189   6.453   5.360   0.800  1.1146 -0.0454 -2.4091
 6566TIP3    H241190   6.510   5.220   0.808 -0.0241 -0.3916  2.0431
 6567TIP3   OH241191   4.925   6.615  13.910 -0.3041  0.1554 -0.4001
 6567TIP3    H141192   4.839   6.578  13.933 -0.9170  1.3914 -0.5788
 6567TIP3    H241193   4.966   6.549  13.856 -1.4489 -0.1766 -0.8916
 6568TIP3   OH241194   4.182   0.504   2.334 -0.3532  0.2205  0.5041
 6568TIP3    H141195   4.211   0.422   2.374 -1.0615 -0.6505 -0.6826
 6568TIP3    H241196   4.185   0.486   2.240 -0.1814  1.6896  0.2048
 6569TIP3   OH241197   2.647   5.816   1.483 -0.6667  1.0581 -0.0068
 6569TIP3    H141198   2.627   5.900   1.441  1.3883  0.9768 -1.2816
 6569TIP3    H241199   2.701   5.840   1.559  1.1287  0.8873 -1.1637
 6570TIP3   OH241200   3.932   4.826   4.984  0.4345  0.3392 -0.1543
 6570TIP3    H141201   3.970   4.813   5.071 -0.2816  1.4595  0.3386
 6570TIP3    H241202   3.959   4.914   4.958 -1.8868  1.2438  0.2860
 6571TIP3   OH241203   3.165   0.754   5.294  0.5402 -0.3251 -0.1734
 6571TIP3    H141204   3.174   0.763   5.389 -1.0172  0.3523 -0.0584
 6571TIP3    H241205   3.198   0.837   5.259 -2.4912  1.1297  0.0905
 6572TIP3   OH241206   3.394   6.031  13.065  0.1737 -0.2417 -0.0342
 6572TIP3    H141207   3.424   6.007  13.153 -0.8881  1.2687  0.7827
 6572TIP3    H241208   3.386   6.126  13.067 -2.3220 -0.3614 -0.9327
 6573TIP3   OH241209   2.572   5.839   3.053 -0.4448  0.5038  0.0448
 6573TIP3    H141210   2.491   5.862   3.007 -0.9238  0.4380  0.8514
 6573TIP3    H241211   2.544   5.788   3.129  0.4413 -0.7579 -0.4231
 6574TIP3   OH241212   3.987   3.699  11.252 -0.6327  0.4152  0.1245
 6574TIP3    H141213   3.907   3.722  11.205  0.0123  0.9795 -0.7311
 6574TIP3    H241214   4.049   3.768  11.229  0.1057 -0.0205  0.7612
 6575TIP3   OH241215   1.006   4.153  14.815 -0.1600 -0.2048  0.0538
 6575TIP3    H141216   1.033   4.169  14.905 -0.6137 -0.7959  0.3060
 6575TIP3    H241217   1.075   4.191  14.761  0.6957 -0.8413  0.6735
 6576TIP3   OH241218   6.376   4.465  15.046 -0.3856 -0.3346  0.3358
 6576TIP3    H141219   6.312   4.536  15.055 -0.2611 -0.4190  2.4104
 6576TIP3    H241220   6.413   4.455  15.134  1.2176 -1.4796 -0.4194
 6577TIP3   OH241221   6.698   4.989   3.494 -0.3234 -0.6130 -0.0865
 6577TIP3    H141222   6.676   5.005   3.586 -1.2572 -0.9515 -0.2403
 6577TIP3    H241223   6.782   5.031   3.482  0.9835 -2.5642  1.5460
 6578TIP3   OH241224   6.449   0.743   3.120 -0.0692 -0.2717  0.4416
 6578TIP3    H141225   6.386   0.754   3.191 -1.7048  0.8466 -1.1092
 6578TIP3    H241226   6.400   0.765   3.041  1.8997 -0.7540 -0.9761
 6579TIP3   OH241227   1.884   1.977   6.037  0.1288  0.0637 -0.4975
 6579TIP3    H141228   1.858   1.945   6.124  2.5747 -1.3002 -0.1644
 6579TIP3    H241229   1.980   1.984   6.042  0.4284 -0.8313 -3.3005
 6580TIP3   OH241230   5.286   3.138   5.231 -0.1303 -0.2474  0.6397
 6580TIP3    H141231   5.325   3.220   5.198 -0.9664  0.2209  0.7800
 6580TIP3    H241232   5.333   3.120   5.312  1.3552 -0.9379 -0.3332
 6581TIP3   OH241233   3.390   4.053   5.102 -0.2121  0.1677  0.4188
 6581TIP3    H141234   3.441   4.134   5.102  1.9912 -1.1484  0.5505
 6581TIP3    H241235   3.312   4.074   5.050  1.4123  1.7100 -1.5590
 6582TIP3   OH241236   6.409   5.862  14.091 -0.2796 -0.4243 -0.0301
 6582TIP3    H141237   6.497   5.828  14.103 -0.3931 -1.2137 -1.1886
 6582TIP3    H241238   6.400   5.931  14.157  0.8806 -0.9174  0.6801
 6583TIP3   OH241239   1.467   1.441   2.906 -0.1538  0.0438  0.4085
 6583TIP3    H141240   1.446   1.527   2.943  0.5390  1.5341 -2.3131
 6583TIP3    H241241   1.554   1.421   2.938 -0.0083  0.7497  0.4614
 6584TIP3   OH241242   1.788   3.778  15.233  0.7848 -0.0946  0.4990
 6584TIP3    H141243   1.820   3.868  15.236  0.5177  0.0013  0.4273
 6584TIP3    H241244   1.694   3.785  15.217  0.8701 -0.3986 -0.1636
 6585TIP3   OH241245   0.370   5.862  13.445 -0.4838  0.4327  0.2695
 6585TIP3    H141246   0.463   5.884  13.444 -0.7322  1.5711  0.7293
 6585TIP3    H241247   0.352   5.830  13.357  0.0358  1.5860 -0.2767
 6586TIP3   OH241248   1.018   6.110  12.074  0.2371 -0.6126 -0.0204
 6586TIP3    H141249   1.072   6.188  12.081  0.5495 -0.8728  0.5551
 6586TIP3    H241250   1.072   6.048  12.026  0.3597 -0.7852  0.3329
 6587TIP3   OH241251   5.885   2.170   1.286 -0.0633 -0.1221 -0.1275
 6587TIP3    H141252   5.960   2.175   1.345 -0.3035 -1.4174  0.3180
 6587TIP3    H241253   5.889   2.251   1.235  1.4261 -0.0088  0.1326
 6588TIP3   OH241254   2.487   2.877  15.991 -0.3303 -0.2477 -0.5535
 6588TIP3    H141255   2.524   2.834  16.068 -0.7564  0.7865  0.2502
 6588TIP3    H241256   2.525   2.831  15.916 -1.0124 -2.2289  0.2616
 6589TIP3   OH241257   1.368   0.924  16.544  0.0390 -0.4647 -0.0357
 6589TIP3    H141258   1.387   0.886  16.458 -2.2422  1.0431 -1.3131
 6589TIP3    H241259   1.274   0.910  16.556 -0.0238  0.9280  1.3948
 6590TIP3   OH241260   5.428   0.529   4.632 -0.2982  0.2579 -0.5093
 6590TIP3    H141261   5.430   0.442   4.672 -1.6770  0.2964 -0.3279
 6590TIP3    H241262   5.472   0.517   4.548  0.8585 -0.2661  0.1423
 6591TIP3   OH241263   3.301   0.546  12.237  0.2891  0.6546 -0.3494
 6591TIP3    H141264   3.389   0.583  12.238  0.6050  0.1450  2.9083
 6591TIP3    H241265   3.251   0.603  12.296 -1.6014  0.9170 -2.1034
 6592TIP3   OH241266   2.617   4.926   3.905  0.0428 -0.3579  0.2156
 6592TIP3    H141267   2.637   4.956   3.816  1.2905 -0.2338  0.5183
 6592TIP3    H241268   2.521   4.921   3.908 -0.1769  2.3760 -0.2535
 6593TIP3   OH241269   1.390   5.685  14.231 -0.2649  0.5185  0.1662
 6593TIP3    H141270   1.331   5.657  14.301  1.3453  0.8328  1.7189
 6593TIP3    H241271   1.433   5.763  14.266  1.1333  0.2448 -0.8631
 6594TIP3   OH241272   6.438   3.481  13.622  0.1704 -0.0311  0.2370
 6594TIP3    H141273   6.450   3.573  13.645  0.2262  0.2099 -0.7516
 6594TIP3    H241274   6.521   3.455  13.581  0.1340 -0.5145  0.4537
 6595TIP3   OH241275   2.360   5.489   5.891  0.2102 -0.0684  0.0632
 6595TIP3    H141276   2.340   5.432   5.966 -0.1546 -0.5508 -0.3970
 6595TIP3    H241277   2.381   5.574   5.931 -0.9554 -0.0411  0.6645
 6596TIP3   OH241278   6.281   0.412  10.969 -0.9281  0.3064 -0.1460
 6596TIP3    H141279   6.265   0.327  10.928 -0.4552  0.6835 -1.1665
 6596TIP3    H241280   6.372   0.407  10.998 -1.1972  0.1200  0.6989
 6597TIP3   OH241281   4.281   0.549  16.424  0.5527 -0.0216 -0.0739
 6597TIP3    H141282   4.313   0.459  16.416  0.1832 -0.1733  0.1403
 6597TIP3    H241283   4.186   0.541  16.421  0.4841  0.2381  1.0879
 6598TIP3   OH241284   2.704   4.310  15.982  0.1987 -0.0391  0.2158
 6598TIP3    H141285   2.630   4.331  16.039  0.3492  1.7958 -0.1924
 6598TIP3    H241286   2.668   4.255  15.914 -0.7720  0.6958  0.1169
 6599TIP3   OH241287   3.303   3.981  16.423 -0.0470 -0.5868 -0.6826
 6599TIP3    H141288   3.344   4.067  16.415 -0.3092 -0.4079 -0.1371
 6599TIP3    H241289   3.352   3.938  16.494 -1.0356 -0.2260  0.2465
 6600TIP3   OH241290   1.621   3.254   3.433  0.3679 -0.2993 -0.4824
 6600TIP3    H141291   1.670   3.319   3.483  1.0241 -0.0725 -1.3935
 6600TIP3    H241292   1.671   3.244   3.352  0.1990 -1.8208 -0.4330
 6601TIP3   OH241293   3.745   1.393  16.718  0.1771  0.6662  0.6911
 6601TIP3    H141294   3.783   1.346  16.644 -0.9379  3.0957 -1.5658
 6601TIP3    H241295   3.707   1.324  16.773  2.3384 -1.3280 -0.1535
 6602TIP3   OH241296   6.653   3.264   2.540 -0.0582  1.1297 -0.2703
 6602TIP3    H141297   6.694   3.336   2.492  1.9360 -0.2620 -0.7700
 6602TIP3    H241298   6.642   3.195   2.475 -1.0241  0.6092  0.4195
 6603TIP3   OH241299   2.474   3.312   4.993  0.3855  0.7576  0.1676
 6603TIP3    H141300   2.551   3.357   5.026  1.7901 -1.0774 -0.4424
 6603TIP3    H241301   2.507   3.229   4.958 -1.8613 -0.1066 -0.1118
 6604TIP3   OH241302   2.293   0.070  13.006 -0.0646  0.3778 -0.0094
 6604TIP3    H141303   2.260   0.158  13.024 -2.7236  0.0650 -2.6805
 6604TIP3    H241304   2.339   0.078  12.923 -0.8250 -0.7968 -0.5745
 6605TIP3   OH241305   2.696   3.910  16.460  0.1781 -0.4433 -0.2770
 6605TIP3    H141306   2.710   3.890  16.367  1.5863 -1.4505  0.1176
 6605TIP3    H241307   2.732   3.835  16.506  1.8093  1.1379  1.1657
 6606TIP3   OH241308   1.656   4.807   5.131  0.1699 -0.3531  0.5250
 6606TIP3    H141309   1.672   4.768   5.045  3.4641 -2.1248  1.8107
 6606TIP3    H241310   1.590   4.751   5.171  0.1521 -0.7582 -0.0602
 6607TIP3   OH241311   5.187   2.576  17.180  0.0383  0.5477 -0.4341
 6607TIP3    H141312   5.125   2.607  17.247  0.0840  1.1363 -0.6504
 6607TIP3    H241313   5.132   2.533  17.115  0.1115 -1.1283  0.5580
 6608TIP3   OH241314   5.529   6.156   4.105  0.8715  0.0567 -0.2984
 6608TIP3    H141315   5.588   6.153   4.029  1.8999  0.4497  0.4528
 6608TIP3    H241316   5.452   6.202   4.073  1.4208  0.5057 -1.0339
 6609TIP3   OH241317   3.808   1.399  13.686  0.1715 -0.1767 -0.1465
 6609TIP3    H141318   3.790   1.491  13.707  1.2233  0.9951 -3.6229
 6609TIP3    H241319   3.812   1.355  13.771 -1.0648  2.8197  1.6263
 6610TIP3   OH241320   4.344   3.940  12.258  0.4454  0.4919 -0.0905
 6610TIP3    H141321   4.313   3.911  12.172 -0.7533  1.0622  0.1229
 6610TIP3    H241322   4.278   3.908  12.320  2.8414 -2.7063  1.1068
 6611TIP3   OH241323   3.507   3.296   0.271  0.3701  0.7460  0.2022
 6611TIP3    H141324   3.501   3.387   0.301  0.1216  0.8692 -0.2151
 6611TIP3    H241325   3.422   3.258   0.290 -0.3685  1.2700 -1.7415
 6612TIP3   OH241326   1.052   4.717  14.173 -0.5707  0.3960 -0.3330
 6612TIP3    H141327   1.142   4.685  14.168  0.5247  3.2619 -0.7873
 6612TIP3    H241328   1.002   4.643  14.208  1.9422 -1.2602  0.0079
 6613TIP3   OH241329   4.545   4.237  15.676  0.0936 -0.2536  0.5742
 6613TIP3    H141330   4.564   4.239  15.770  1.0491 -0.3134  0.3898
 6613TIP3    H241331   4.629   4.216  15.635  0.5215  2.9323 -0.5189
 6614TIP3   OH241332   2.224   1.367   6.374  0.2271 -0.9321  0.9140
 6614TIP3    H141333   2.253   1.293   6.428 -3.0484 -0.9201  2.9661
 6614TIP3    H241334   2.257   1.444   6.420  1.6346 -1.0073  0.0792
 6615TIP3   OH241335   5.977   0.720   4.591  0.4168 -0.3585  0.2239
 6615TIP3    H141336   6.054   0.672   4.559 -0.5870 -1.0353 -1.2528
 6615TIP3    H241337   5.992   0.728   4.685  2.2076 -0.6231  0.0062
 6616TIP3   OH241338   6.236   1.094   5.063 -0.3130 -0.3414 -0.4008
 6616TIP3    H141339   6.324   1.061   5.080 -0.6593 -1.2051 -0.2330
 6616TIP3    H241340   6.247   1.188   5.051  0.6226 -0.4379 -0.3218
 6617TIP3   OH241341   0.154   2.407  14.792  0.1083 -0.5144 -0.1738
 6617TIP3    H141342   0.089   2.377  14.856 -2.8707  1.4277 -2.0388
 6617TIP3    H241343   0.173   2.497  14.818 -2.4095  0.9001 -2.7209
 6618TIP3   OH241344   1.390   5.982   5.943 -0.0615 -0.1161 -0.4255
 6618TIP3    H141345   1.384   5.913   6.009  0.0487  0.9596  0.7520
 6618TIP3    H241346   1.383   6.063   5.993 -1.0817  0.7341 -1.8617
 6619TIP3   OH241347   1.482   1.762   6.119  0.4922  0.0966 -0.0523
 6619TIP3    H141348   1.412   1.826   6.112  1.1146  0.6622 -1.4038
 6619TIP3    H241349   1.540   1.797   6.186  0.7224  0.8601 -0.6388
 6620TIP3   OH241350   0.014   3.547  15.162  0.0313 -0.3651 -0.6025
 6620TIP3    H141351   0.011   3.550  15.258  0.2951  1.2623 -0.6263
 6620TIP3    H241352  -0.078   3.556  15.135 -0.0130 -0.5538 -0.5228
 6621TIP3   OH241353   0.275   4.719  15.528  0.5156  0.1141 -0.5776
 6621TIP3    H141354   0.190   4.694  15.493  0.7506 -0.7595 -0.5557
 6621TIP3    H241355   0.332   4.645  15.506  0.7376 -0.3493  1.3720
 6622TIP3   OH241356   5.071   0.297  15.503 -0.6188  0.7349 -0.8168
 6622TIP3    H141357   4.996   0.237  15.506 -0.7554  0.9411  0.6249
 6622TIP3    H241358   5.051   0.363  15.570  1.1397  0.4373  0.0604
 6623TIP3   OH241359   2.191   5.686  11.277  0.3579 -0.1818 -0.0145
 6623TIP3    H141360   2.165   5.764  11.229 -0.2061 -0.4987 -0.2396
 6623TIP3    H241361   2.108   5.649  11.309  0.6113 -0.7067  0.0492
 6624TIP3   OH241362   2.899   2.875  11.537  0.0835 -0.1130 -0.2901
 6624TIP3    H141363   2.891   2.786  11.573  0.3896 -0.0593 -0.0936
 6624TIP3    H241364   2.810   2.910  11.543 -0.2635 -0.7672 -1.3083
 6625TIP3   OH241365   0.006   3.399  16.424 -0.3848  0.1549 -0.3774
 6625TIP3    H141366   0.057   3.356  16.492 -1.8715 -0.3445  0.4584
 6625TIP3    H241367  -0.079   3.355  16.425 -1.4049  2.0018 -0.6097
 6626TIP3   OH241368   4.858   6.251   6.842 -0.2493 -0.5351 -0.4848
 6626TIP3    H141369   4.794   6.320   6.828 -1.5048 -1.4035  0.7522
 6626TIP3    H241370   4.943   6.293   6.826 -1.0660  0.8580 -1.2713
 6627TIP3   OH241371   1.500   5.954  15.640  0.7895  0.7771 -0.4104
 6627TIP3    H141372   1.520   6.041  15.673 -1.0922  0.9528  0.3946
 6627TIP3    H241373   1.408   5.959  15.613  0.7210 -0.8760 -0.6086
 6628TIP3   OH241374   1.026   0.077   1.779 -0.4057  0.0842 -0.1192
 6628TIP3    H141375   1.120   0.089   1.771 -0.5452  0.4677 -1.3547
 6628TIP3    H241376   1.013   0.049   1.869  0.8635  0.2502  0.1293
 6629TIP3   OH241377   5.892   2.454  15.851 -0.6591  0.7300 -0.2409
 6629TIP3    H141378   5.957   2.494  15.794 -0.4978  2.2064  0.9278
 6629TIP3    H241379   5.901   2.360  15.836 -0.4847  1.0427 -2.4677
 6630TIP3   OH241380   0.552   4.329  11.639  0.4079 -0.6562  0.9444
 6630TIP3    H141381   0.470   4.309  11.594  1.3106  0.8490 -1.6163
 6630TIP3    H241382   0.546   4.421  11.663  1.7259 -0.1979 -0.3187
 6631TIP3   OH241383   0.443   2.023  16.920 -0.3449  0.1404  0.1194
 6631TIP3    H141384   0.518   1.992  16.870  1.0086 -2.8095  3.5869
 6631TIP3    H241385   0.472   2.105  16.960 -0.8444  1.6030 -2.3197
 6632TIP3   OH241386   4.095   6.789   2.562 -0.0973 -0.9951 -0.6346
 6632TIP3    H141387   4.114   6.839   2.642 -1.9438 -2.1288  0.5801
 6632TIP3    H241388   4.128   6.701   2.580 -1.0528 -1.4160 -0.8560
 6633TIP3   OH241389   0.074   0.894   3.159 -0.0390 -0.1548 -0.3132
 6633TIP3    H141390   0.019   0.825   3.122  0.3214  0.0353 -1.2465
 6633TIP3    H241391   0.058   0.970   3.102  3.0819 -0.7939 -2.2628
 6634TIP3   OH241392   0.419   3.669   4.259 -0.9114  0.5667 -0.1327
 6634TIP3    H141393   0.391   3.731   4.191  0.6239  0.2685 -1.0802
 6634TIP3    H241394   0.510   3.692   4.276 -0.8131 -0.3840  0.7073
 6635TIP3   OH241395   4.910   6.781   1.536  0.2553  0.8493  0.1416
 6635TIP3    H141396   5.002   6.788   1.513  0.6259 -0.5831  1.0601
 6635TIP3    H241397   4.908   6.785   1.631 -0.5259  0.0434  0.1751
 6636TIP3   OH241398   0.910   5.763   4.113  0.4870 -0.0023 -0.0434
 6636TIP3    H141399   0.867   5.768   4.198 -0.0020  3.1417 -0.3516
 6636TIP3    H241400   1.004   5.764   4.134  0.4521 -2.4381  0.4832
 6637TIP3   OH241401   6.506   6.814   4.304  0.5668  0.2667 -0.0045
 6637TIP3    H141402   6.533   6.862   4.383 -2.7295  1.2363  0.6796
 6637TIP3    H241403   6.537   6.725   4.319  1.0258  0.6821  1.8491
 6638TIP3   OH241404   4.393   4.135  11.993 -0.1840  1.1625  0.3539
 6638TIP3    H141405   4.461   4.172  11.936  0.8938  1.4139  1.7608
 6638TIP3    H241406   4.441   4.095  12.065 -1.4699 -0.3065  0.4435
 6639TIP3   OH241407   4.369   1.401   0.115 -0.0040 -0.3459  0.3799
 6639TIP3    H141408   4.330   1.435   0.035  1.0156  1.9919  0.8054
 6639TIP3    H241409   4.350   1.467   0.181  1.2179 -1.0867  1.5219
 6640TIP3   OH241410   3.980   0.928  16.490  0.2414 -0.0212  0.3793
 6640TIP3    H141411   3.965   0.878  16.409  0.9518  1.9435 -1.0439
 6640TIP3    H241412   4.067   0.903  16.518 -0.5481 -1.7786  1.3847
 6641TIP3   OH241413   3.944   4.343  13.630 -0.0239 -0.0909 -0.1539
 6641TIP3    H141414   3.934   4.296  13.548  0.4828  1.4504 -1.1526
 6641TIP3    H241415   3.855   4.353  13.664 -0.2664 -0.4680 -0.6811
 6642TIP3   OH241416   4.245   5.600  12.790 -0.1009 -0.6002  0.6309
 6642TIP3    H141417   4.237   5.517  12.838 -0.3452 -0.8855  0.1046
 6642TIP3    H241418   4.240   5.667  12.858 -1.7019 -0.9505  0.8965
 6643TIP3   OH241419   4.624   5.574  12.632 -0.0038 -0.3858  0.3279
 6643TIP3    H141420   4.547   5.518  12.625  1.5852 -2.5361 -1.2337
 6643TIP3    H241421   4.598   5.655  12.588 -1.1260 -1.3766 -0.9378
 6644TIP3   OH241422   5.604   4.593  16.550 -0.0898 -0.0927  0.2602
 6644TIP3    H141423   5.648   4.670  16.587  0.8990 -0.3814 -0.2911
 6644TIP3    H241424   5.527   4.581  16.606 -0.8431  1.9050 -0.2383
 6645TIP3   OH241425   3.789   1.938  16.185  0.4538  0.0868  0.3035
 6645TIP3    H141426   3.821   1.985  16.108  1.7554 -0.8507  0.2329
 6645TIP3    H241427   3.737   2.003  16.233  1.7875  1.4736 -0.0367
 6646TIP3   OH241428   0.864   5.711   5.344  0.3190 -0.8325  0.1499
 6646TIP3    H141429   0.809   5.692   5.420  0.3394 -1.3161  0.0460
 6646TIP3    H241430   0.811   5.686   5.268 -0.5209  1.5364 -0.1443
 6647TIP3   OH241431   5.787   4.872  11.712 -0.3025  0.1538  0.2585
 6647TIP3    H141432   5.799   4.939  11.780  1.6514 -0.4074  0.5486
 6647TIP3    H241433   5.725   4.811  11.750  1.2911 -0.5315  1.9213
 6648TIP3   OH241434   5.987   2.884  16.557  0.0729  0.7465  0.8860
 6648TIP3    H141435   6.030   2.878  16.471 -0.0467 -1.3790  0.9206
 6648TIP3    H241436   5.894   2.893  16.536  0.0736  0.5176  0.7724
 6649TIP3   OH241437   2.766   1.681  13.208  0.6288  0.4291 -0.1106
 6649TIP3    H141438   2.792   1.590  13.224 -0.9943  0.0101  0.3223
 6649TIP3    H241439   2.843   1.721  13.167  1.3043 -1.1831 -0.5012
 6650TIP3   OH241440   6.573   4.569   0.787 -0.2731  0.0102 -0.1468
 6650TIP3    H141441   6.627   4.515   0.845 -1.1621 -1.1220 -0.3296
 6650TIP3    H241442   6.528   4.630   0.847  1.2252  1.0329 -0.0054
 6651TIP3   OH241443   5.653   1.456  14.153 -0.6104 -0.0903 -0.6696
 6651TIP3    H141444   5.643   1.408  14.071 -0.3167 -1.1236 -0.1288
 6651TIP3    H241445   5.565   1.482  14.178 -1.2091 -2.7536  0.3852
 6652TIP3   OH241446   2.480   6.435   1.375  0.6016  0.1933  0.2259
 6652TIP3    H141447   2.406   6.494   1.357  1.1287  0.8085  0.0186
 6652TIP3    H241448   2.518   6.470   1.455  0.7169 -0.0712  0.2856
 6653TIP3   OH241449   1.923   4.895   2.446  0.6562  0.0321 -0.2660
 6653TIP3    H141450   1.829   4.892   2.427  0.4082 -0.6499  0.9868
 6653TIP3    H241451   1.947   4.987   2.430 -0.1041  0.1176 -1.0418
 6654TIP3   OH241452   1.993   0.512  12.371  0.3339 -0.5088 -0.2505
 6654TIP3    H141453   1.907   0.528  12.332  0.5977 -2.3841 -1.7777
 6654TIP3    H241454   1.976   0.446  12.439  0.2169  1.1044  1.3556
 6655TIP3   OH241455   3.626   1.644  15.258  0.3473  1.0197 -1.0459
 6655TIP3    H141456   3.583   1.726  15.234 -0.9384  0.6618 -0.0624
 6655TIP3    H241457   3.652   1.606  15.174 -1.5800  1.0961 -1.7291
 6656TIP3   OH241458   5.087   1.861  15.391  0.8594 -0.5451  0.4209
 6656TIP3    H141459   5.000   1.838  15.424  0.0896  0.3248 -0.8609
 6656TIP3    H241460   5.107   1.793  15.326  1.0575 -0.6489  0.5909
 6657TIP3   OH241461   3.990   2.363   5.067  0.4394 -0.2874  0.5225
 6657TIP3    H141462   4.019   2.454   5.054  0.8426 -0.2749  1.4353
 6657TIP3    H241463   4.070   2.315   5.088  0.0658 -0.6213  1.2263
 6658TIP3   OH241464   3.226   1.227   1.740  0.7592 -0.9328  0.2688
 6658TIP3    H141465   3.255   1.230   1.832 -0.1867  0.8178  0.5397
 6658TIP3    H241466   3.231   1.317   1.710 -2.1634 -0.8737 -0.3585
 6659TIP3   OH241467   1.488   3.830   4.341  0.6460 -0.0091  0.0382
 6659TIP3    H141468   1.414   3.784   4.301  1.6406  0.7701 -2.9227
 6659TIP3    H241469   1.475   3.922   4.317  1.5009  0.4616  1.2754
 6660TIP3   OH241470   6.686   2.615  14.186  0.1445  0.5002 -1.1270
 6660TIP3    H141471   6.619   2.671  14.224  0.8723  0.1799  0.7543
 6660TIP3    H241472   6.652   2.526  14.194  1.7955  0.0273  2.4289
 6661TIP3   OH241473   2.959   2.953   1.644 -0.4201  0.0450  0.4692
 6661TIP3    H141474   2.925   2.870   1.677 -0.0064 -0.5737 -0.6031
 6661TIP3    H241475   2.895   2.982   1.579 -0.7636  0.7825  1.1196
 6662TIP3   OH241476   5.531   6.270  12.878  0.5717 -0.3663 -0.0833
 6662TIP3    H141477   5.619   6.300  12.900  0.7117  0.4194 -1.5655
 6662TIP3    H241478   5.545   6.197  12.818  0.2137 -0.3266 -0.2208
 6663TIP3   OH241479   5.854   1.097  15.094 -0.0311  0.0250  0.1358
 6663TIP3    H141480   5.871   1.143  15.177  1.0599  1.6278 -0.9174
 6663TIP3    H241481   5.888   1.155  15.027 -1.0835 -1.1413 -1.4921
 6664TIP3   OH241482   6.777   2.487  12.877  0.0955 -0.0146 -0.5853
 6664TIP3    H141483   6.860   2.474  12.922  0.1589 -0.6558 -0.8804
 6664TIP3    H241484   6.728   2.545  12.934 -0.1830 -1.5224  0.7883
 6665TIP3   OH241485   5.873   0.513   6.085 -0.0697  0.2911 -0.1129
 6665TIP3    H141486   5.847   0.497   6.176  0.1616  1.5704  0.1940
 6665TIP3    H241487   5.792   0.537   6.041 -0.3039 -0.9862 -0.4269
 6666TIP3   OH241488   1.809   1.600   0.720 -0.4887  0.6835  0.2708
 6666TIP3    H141489   1.785   1.560   0.804  1.7013 -2.3144 -0.3767
 6666TIP3    H241490   1.894   1.641   0.736 -0.5885  1.1082 -0.2376
 6667TIP3   OH241491   5.165   2.342  15.080  0.5136  0.6412 -0.0106
 6667TIP3    H141492   5.198   2.259  15.115  0.5065  0.8858  0.5869
 6667TIP3    H241493   5.091   2.317  15.024 -0.4207  0.3511  1.3096
 6668TIP3   OH241494   5.355   5.096   1.556  0.2429 -0.6007  0.4150
 6668TIP3    H141495   5.287   5.153   1.520  0.0525 -0.3378  1.1710
 6668TIP3    H241496   5.336   5.010   1.519  2.6657  0.3665 -3.7378
 6669TIP3   OH241497   1.063   5.440  15.297  0.3288  0.3432  0.1695
 6669TIP3    H141498   0.998   5.416  15.362 -1.4796  1.2748 -1.2209
 6669TIP3    H241499   1.080   5.533  15.313 -0.9784  0.8835 -1.3180
 6670TIP3   OH241500   2.704   2.062   1.060  0.0757  0.2909  0.6431
 6670TIP3    H141501   2.793   2.029   1.050 -0.4542 -0.4932 -3.0108
 6670TIP3    H241502   2.711   2.156   1.040 -0.1288 -0.1874 -1.9977
 6671TIP3   OH241503   2.581   4.922  16.140  0.2304  0.0925 -0.0074
 6671TIP3    H141504   2.610   5.008  16.108 -0.7866  0.6110  0.4011
 6671TIP3    H241505   2.485   4.929  16.144  0.2051 -0.6382  1.2157
 6672TIP3   OH241506   6.064   0.256  17.160  0.2929  0.5143 -0.0884
 6672TIP3    H141507   6.131   0.230  17.097  0.5039  2.9289 -0.9749
 6672TIP3    H241508   6.085   0.347  17.181 -1.6192  0.7374  1.0749
 6673TIP3   OH241509   5.835   0.946   1.745  0.1716  0.1935 -0.1496
 6673TIP3    H141510   5.893   0.957   1.821 -0.8449  1.7708  0.4294
 6673TIP3    H241511   5.764   1.007   1.759 -0.1394  0.4205 -2.3226
 6674TIP3   OH241512   4.895   1.542  12.783  0.0876  0.3629  0.1056
 6674TIP3    H141513   4.966   1.498  12.831 -0.0943  0.9310  0.9273
 6674TIP3    H241514   4.941   1.593  12.715  0.7009  2.3157  1.8683
 6675TIP3   OH241515   0.830   3.168   0.818 -0.1219  0.3426  0.1467
 6675TIP3    H141516   0.754   3.219   0.845  1.1317  1.8697  0.9730
 6675TIP3    H241517   0.796   3.106   0.754 -2.1111  0.7287  0.7581
 6676TIP3   OH241518   1.954   2.577  13.281 -0.0708  0.5296  0.2493
 6676TIP3    H141519   1.872   2.545  13.319 -0.0573  0.4644  0.2237
 6676TIP3    H241520   2.022   2.527  13.327 -0.0827 -0.0677 -0.3606
 6677TIP3   OH241521   4.463   1.708  15.680  0.1535 -0.1413  0.5121
 6677TIP3    H141522   4.402   1.637  15.657 -0.8104  1.0327 -0.7027
 6677TIP3    H241523   4.483   1.750  15.596  0.4351  1.2391  1.2533
 6678TIP3   OH241524   4.624   2.616   5.435  0.1861  0.6613  0.3873
 6678TIP3    H141525   4.570   2.536   5.435  1.8967 -0.5630 -0.7863
 6678TIP3    H241526   4.585   2.671   5.503 -1.3619 -0.9607  0.8946
 6679TIP3   OH241527   5.539   1.340   0.972 -0.1766  0.0906  0.1013
 6679TIP3    H141528   5.501   1.256   0.997  0.1917  0.2239  1.1628
 6679TIP3    H241529   5.466   1.402   0.980 -0.2319  0.0150  0.1939
 6680TIP3   OH241530   3.675   4.686   0.828 -0.4078  0.3373 -0.3805
 6680TIP3    H141531   3.657   4.778   0.842 -1.5903  0.3428 -1.6902
 6680TIP3    H241532   3.589   4.646   0.816 -0.0830 -1.3386  2.2321
 6681TIP3   OH241533   5.903   6.610  15.523  0.4972  0.0331  0.3216
 6681TIP3    H141534   5.822   6.559  15.523  0.3181  0.3074 -0.6687
 6681TIP3    H241535   5.934   6.606  15.433  2.3623 -1.2621  0.9552
 6682TIP3   OH241536   5.777   5.578   1.384  0.2364 -0.0235 -0.2250
 6682TIP3    H141537   5.779   5.653   1.444 -0.6428 -0.8926  0.9422
 6682TIP3    H241538   5.685   5.556   1.376  0.3816 -0.1951 -1.6057
 6683TIP3   OH241539   1.982   1.392   2.957  0.1005 -0.0585 -0.4721
 6683TIP3    H141540   2.008   1.317   2.904  0.3899 -0.3079  0.0128
 6683TIP3    H241541   1.985   1.360   3.047 -0.4144  0.3505 -0.3052
 6684TIP3   OH241542   6.305   3.339  13.408  0.0939 -0.3571  0.5847
 6684TIP3    H141543   6.374   3.292  13.361 -0.9100 -0.8359 -0.4798
 6684TIP3    H241544   6.302   3.425  13.366 -0.1705 -0.4554  0.3966
 6685TIP3   OH241545   4.823   6.644  17.079  0.1444  0.1221  0.1719
 6685TIP3    H141546   4.894   6.583  17.057  1.8785  1.8064  0.8282
 6685TIP3    H241547   4.847   6.726  17.036 -0.8986  1.0271  1.2281
 6686TIP3   OH241548   4.721   5.862   4.937 -0.7671 -0.1579  0.1167
 6686TIP3    H141549   4.781   5.798   4.898 -2.5993 -2.0245  0.1352
 6686TIP3    H241550   4.688   5.912   4.863  0.5709  0.7259  0.0801
 6687TIP3   OH241551   0.257   0.606   0.040  0.1264 -0.2874  0.4627
 6687TIP3    H141552   0.216   0.575  -0.041 -1.3745  0.7533  0.7841
 6687TIP3    H241553   0.194   0.668   0.077  1.4725  0.4584  1.6272
 6688TIP3   OH241554   2.102   2.265   2.305 -0.9502  0.4847  0.2358
 6688TIP3    H141555   2.140   2.334   2.360  0.0719 -0.9601  1.4372
 6688TIP3    H241556   2.167   2.195   2.307 -0.7201  0.4396 -3.1117
 6689TIP3   OH241557   5.130   0.254   0.782 -0.1274  0.2170  0.1554
 6689TIP3    H141558   5.072   0.181   0.803 -0.0308 -0.1822 -0.9435
 6689TIP3    H241559   5.172   0.276   0.866 -0.9014 -0.3172  0.6972
 6690TIP3   OH241560   4.226   2.471   1.008  0.2594 -0.7522 -0.4667
 6690TIP3    H141561   4.147   2.426   1.038 -0.3493  0.3632 -0.3402
 6690TIP3    H241562   4.290   2.401   0.994 -1.0799 -1.8002 -1.6348
 6691TIP3   OH241563   0.543   3.819   6.696  0.9962 -0.0022 -0.2981
 6691TIP3    H141564   0.598   3.871   6.755  3.6960 -0.8766 -1.8446
 6691TIP3    H241565   0.511   3.747   6.749  1.5593  0.3977  0.6066
 6692TIP3   OH241566   2.013   4.308  10.667 -0.5017 -0.0279 -0.1822
 6692TIP3    H141567   1.962   4.317  10.587  0.4586  1.0762 -0.7105
 6692TIP3    H241568   1.997   4.389  10.716 -0.5439 -0.3920  0.4225
 6693TIP3   OH241569   6.642   4.001   2.512  0.0259 -0.2957  0.3607
 6693TIP3    H141570   6.621   3.932   2.450  1.8223  0.4241 -1.1482
 6693TIP3    H241571   6.670   3.955   2.591 -1.2014 -1.2358  0.2627
 6694TIP3   OH241572   1.375   3.280  15.106 -0.6327 -0.1259  0.5821
 6694TIP3    H141573   1.427   3.304  15.029  2.6747 -1.6131  2.1732
 6694TIP3    H241574   1.362   3.185  15.097  0.5441 -0.4853  2.1704
 6695TIP3   OH241575   1.209   0.185   5.548 -0.3562 -0.1317  0.2173
 6695TIP3    H141576   1.174   0.263   5.503  0.2413 -0.1328 -0.2498
 6695TIP3    H241577   1.133   0.126   5.555 -0.4606 -0.1338 -0.7899
 6696TIP3   OH241578   4.237   5.100  14.909  0.1701 -0.3658  0.7356
 6696TIP3    H141579   4.209   5.190  14.926  0.6119 -0.4008  1.6810
 6696TIP3    H241580   4.156   5.050  14.901 -0.1002  0.2423 -0.5894
 6697TIP3   OH241581   0.771   5.049  13.301 -0.3346 -0.1255  0.6627
 6697TIP3    H141582   0.716   4.997  13.242 -0.1841 -0.4877  0.8409
 6697TIP3    H241583   0.809   5.116  13.245  2.1208 -2.1809 -0.2906
 6698TIP3   OH241584   1.070   0.736  10.490 -0.1992 -0.4716 -0.1951
 6698TIP3    H141585   1.145   0.771  10.442 -0.5955 -2.1424 -2.1327
 6698TIP3    H241586   1.104   0.657  10.533 -0.6326 -0.7356 -0.3342
 6699TIP3   OH241587   0.033   6.672   1.590 -0.8092  0.0982 -0.4521
 6699TIP3    H141588  -0.035   6.639   1.531  1.5092 -2.1813 -2.0641
 6699TIP3    H241589   0.038   6.606   1.660 -0.0286  0.0740 -0.5287
 6700TIP3   OH241590   6.471   2.690  11.995 -0.2352 -0.1890  0.0710
 6700TIP3    H141591   6.436   2.759  11.938 -0.1124 -0.7588 -0.6973
 6700TIP3    H241592   6.432   2.708  12.081  0.6975  1.5434  0.1892
 6701TIP3   OH241593   2.245   2.398  14.385  0.2719 -0.8497 -0.3230
 6701TIP3    H141594   2.221   2.437  14.301 -0.8656 -1.6714 -0.4059
 6701TIP3    H241595   2.189   2.442  14.449  0.8997 -0.4607 -0.0325
 6702TIP3   OH241596   6.363   5.095   4.557  0.8399 -0.3183  0.3257
 6702TIP3    H141597   6.394   5.158   4.622  2.5041 -0.4319 -0.3143
 6702TIP3    H241598   6.436   5.034   4.546  0.3235 -0.7167 -1.1296
 6703TIP3   OH241599   6.359   3.529  12.454  0.3674  0.6389 -0.6262
 6703TIP3    H141600   6.309   3.484  12.386  2.1984  0.8834 -2.2283
 6703TIP3    H241601   6.406   3.458  12.499 -1.2419  0.4188  0.8192
 6704TIP3   OH241602   5.304   4.502  14.843 -0.0850 -0.1752  0.0145
 6704TIP3    H141603   5.277   4.468  14.758 -1.4494  0.2798  0.2259
 6704TIP3    H241604   5.393   4.469  14.856 -0.1582 -0.9137 -1.2225
 6705TIP3   OH241605   3.920   2.101  17.233 -0.0960  0.4868 -0.2676
 6705TIP3    H141606   3.872   2.135  17.157 -1.7409 -1.4924 -0.2021
 6705TIP3    H241607   4.003   2.069  17.197  0.2182  1.7916 -0.7797
 6706TIP3   OH241608   3.344   4.102   2.950 -0.6435  0.6155 -0.8188
 6706TIP3    H141609   3.373   4.186   2.915  1.5774 -0.2763 -1.2700
 6706TIP3    H241610   3.357   4.040   2.879  0.5888 -0.5931  0.3849
 6707TIP3   OH241611   5.744   6.649   4.709  0.0591 -0.4408  0.2729
 6707TIP3    H141612   5.675   6.672   4.647 -2.9894 -0.8443  3.2023
 6707TIP3    H241613   5.776   6.733   4.742 -0.1214 -0.2696  0.0111
 6708TIP3   OH241614   6.041   5.179   2.496 -0.8016  0.3743  0.3501
 6708TIP3    H141615   6.013   5.270   2.483  0.3336  0.4203 -2.3024
 6708TIP3    H241616   6.125   5.173   2.451  1.2389 -0.9914  3.9011
 6709TIP3   OH241617   6.438   3.217   4.159 -0.2242  0.3507 -0.2748
 6709TIP3    H141618   6.469   3.285   4.219  1.8096 -0.8897  0.1542
 6709TIP3    H241619   6.362   3.257   4.116 -0.6707  1.9265  1.8017
 6710TIP3   OH241620   1.876   5.444  12.664  0.1462  0.1396  0.2020
 6710TIP3    H141621   1.789   5.455  12.702 -0.1975  0.7681 -0.7507
 6710TIP3    H241622   1.913   5.532  12.664  1.3390 -0.3003  1.8475
 6711TIP3   OH241623   3.417   5.564   1.174 -0.1462 -0.6184  0.2420
 6711TIP3    H141624   3.356   5.571   1.101  1.1695  1.0305 -0.7774
 6711TIP3    H241625   3.424   5.653   1.208  1.5432 -0.7695  0.3937
 6712TIP3   OH241626   0.029   5.835   0.078  0.0926  0.2165  0.0834
 6712TIP3    H141627   0.025   5.805  -0.013 -0.3455  1.0390 -0.1727
 6712TIP3    H241628  -0.020   5.917   0.079  1.0881  0.8269  0.8216
 6713TIP3   OH241629   2.119   5.504   5.059  0.3645 -0.4582  0.4329
 6713TIP3    H141630   2.138   5.487   4.967 -0.1409  1.2746 -0.0294
 6713TIP3    H241631   2.030   5.471   5.072  0.8819 -1.8027  0.6335
 6714TIP3   OH241632   0.329   4.933   4.151 -0.2329 -0.0696  0.0529
 6714TIP3    H141633   0.407   4.944   4.097 -3.0099  1.3385 -4.1567
 6714TIP3    H241634   0.294   4.847   4.126  0.0812 -0.8891  2.2261
 6715TIP3   OH241635   2.317   1.893   5.737 -0.0415  0.0135  0.1073
 6715TIP3    H141636   2.237   1.858   5.776  0.4963 -2.2272 -0.6882
 6715TIP3    H241637   2.386   1.871   5.800  0.0836  1.3310  0.4647
 6716TIP3   OH241638   4.538   5.606  12.938  0.4891  0.3352 -0.0508
 6716TIP3    H141639   4.451   5.639  12.964  1.5075  1.8778  1.6183
 6716TIP3    H241640   4.553   5.644  12.851 -1.0302 -1.0720 -0.9920
 6717TIP3   OH241641   2.608   0.478   5.767 -0.6857  0.2695 -0.2707
 6717TIP3    H141642   2.553   0.540   5.814 -2.5247 -1.2527 -0.3148
 6717TIP3    H241643   2.645   0.421   5.834  0.5736  1.0377 -0.2789
 6718TIP3   OH241644   4.969   5.215   1.292  0.0507 -0.3447  0.0940
 6718TIP3    H141645   5.001   5.143   1.239  0.9438  0.0088  0.1406
 6718TIP3    H241646   4.921   5.173   1.364  0.3834 -0.8750  0.0071
 6719TIP3   OH241647   1.696   0.292  11.386 -0.4905  0.3094  0.2031
 6719TIP3    H141648   1.610   0.282  11.345  0.5238  0.8289 -2.2342
 6719TIP3    H241649   1.744   0.214  11.359  0.3636  0.8964  0.0119
 6720TIP3   OH241650   0.762   1.041  17.209 -0.1887 -0.2491 -0.4398
 6720TIP3    H141651   0.808   1.081  17.283 -0.9090  0.0512 -0.1558
 6720TIP3    H241652   0.716   0.966  17.247 -1.2286  0.3846 -0.4137
 6721TIP3   OH241653   5.644   3.293  14.596 -0.1038  0.2729  0.3509
 6721TIP3    H141654   5.629   3.347  14.518 -0.4344 -0.5550 -0.1796
 6721TIP3    H241655   5.603   3.209  14.574 -0.4255  0.1102  1.5272
 6722TIP3   OH241656   1.948   2.837   2.036  0.0105  0.1771 -0.3710
 6722TIP3    H141657   1.988   2.751   2.026 -1.2560 -0.8551  2.4048
 6722TIP3    H241658   1.858   2.819   2.064 -0.3370  2.3913  0.1327
 6723TIP3   OH241659   4.740   5.375  11.784 -0.1542  0.1725 -0.5162
 6723TIP3    H141660   4.713   5.320  11.858  0.4568 -0.6460 -0.8805
 6723TIP3    H241661   4.716   5.323  11.707 -0.6483  0.9535 -0.8919
 6724TIP3   OH241662   5.998   0.457  11.044 -0.3750  0.3589 -0.0193
 6724TIP3    H141663   6.093   0.466  11.037 -0.1470 -1.4290  0.2735
 6724TIP3    H241664   5.965   0.488  10.960  0.6451 -0.9121 -0.9293
 6725TIP3   OH241665   6.051   1.911   3.761  0.1869  0.3742  0.8466
 6725TIP3    H141666   6.113   1.980   3.785  0.0228  0.9791 -0.3938
 6725TIP3    H241667   6.061   1.845   3.830  3.5150 -0.4317 -0.2202
 6726TIP3   OH241668   3.922   3.958   5.251 -0.2915 -0.1873  0.2983
 6726TIP3    H141669   4.010   3.946   5.216 -0.3017  0.3617  0.0671
 6726TIP3    H241670   3.864   3.926   5.181 -0.2781 -0.6269  0.4844
 6727TIP3   OH241671   6.122   4.681   1.396 -0.4036 -0.0647  0.5756
 6727TIP3    H141672   6.179   4.614   1.359 -0.9409  0.1568 -0.7158
 6727TIP3    H241673   6.159   4.700   1.482  0.8867 -0.6181  0.1619
 6728TIP3   OH241674   2.169   1.645  12.301 -0.1861 -0.2107 -0.0512
 6728TIP3    H141675   2.097   1.703  12.275  0.2108  0.4339  0.2649
 6728TIP3    H241676   2.238   1.705  12.330  0.0774 -0.8529  0.6647
 6729TIP3   OH241677   0.226   3.706  12.007  0.0302  0.3904  0.2523
 6729TIP3    H141678   0.185   3.705  12.094  0.4076 -1.9708  0.4655
 6729TIP3    H241679   0.312   3.668  12.021  0.5086  0.9707 -1.0047
 6730TIP3   OH241680   5.247   2.066   0.747  0.4203 -0.1345 -0.5229
 6730TIP3    H141681   5.200   2.060   0.663  0.9855 -1.4582 -0.7849
 6730TIP3    H241682   5.180   2.094   0.810 -0.5822 -1.3050 -1.0086
 6731TIP3   OH241683   1.645   2.753   2.796 -0.2780 -0.2063 -0.2458
 6731TIP3    H141684   1.557   2.790   2.786 -0.1644 -0.2409 -1.6797
 6731TIP3    H241685   1.645   2.676   2.739  0.5555 -0.4424  0.0586
 6732TIP3   OH241686   5.735   3.330  11.989  0.0423  0.6002 -0.1109
 6732TIP3    H141687   5.777   3.277  12.057  0.9135  0.3358 -0.8318
 6732TIP3    H241688   5.641   3.320  12.004  0.2230 -0.0686  0.5836
 6733TIP3   OH241689   1.984   0.409   5.842 -0.2013  0.2291 -0.0857
 6733TIP3    H141690   2.034   0.381   5.920  3.0449  2.0272 -1.3190
 6733TIP3    H241691   1.893   0.387   5.863  0.7651 -1.2667  3.3263
 6734TIP3   OH241692   0.001   2.186  16.676  0.0497 -0.4240  0.7286
 6734TIP3    H141693   0.022   2.225  16.592  1.0433 -0.4584  0.9498
 6734TIP3    H241694  -0.054   2.110  16.655 -0.0380 -0.2013  0.1491
 6735TIP3   OH241695   3.945   3.188  14.103  0.2268  0.4218 -0.0396
 6735TIP3    H141696   3.869   3.212  14.050  1.0551  0.6469 -1.1704
 6735TIP3    H241697   3.974   3.105  14.065  0.0490 -0.1048  0.9446
 6736TIP3   OH241698   0.510   1.032   1.204  0.4009  0.2671 -0.1704
 6736TIP3    H141699   0.477   1.064   1.288 -1.5509 -0.3826 -0.6401
 6736TIP3    H241700   0.499   1.106   1.144  2.3304  0.9307  0.1989
 6737TIP3   OH241701   1.140   4.948  17.252  0.4049  0.1492 -0.1930
 6737TIP3    H141702   1.173   5.004  17.182 -0.9167  0.0296 -0.9398
 6737TIP3    H241703   1.106   5.010  17.317  0.5408  0.2386 -0.2057
 6738TIP3   OH241704   3.696   3.370   5.646 -0.0830  0.1277  0.2130
 6738TIP3    H141705   3.776   3.422   5.656 -0.4585  0.6848  0.4148
 6738TIP3    H241706   3.625   3.433   5.663 -0.5650 -0.3283 -0.0875
 6739TIP3   OH241707   2.585   3.577   1.076 -0.3884  0.2330 -0.3970
 6739TIP3    H141708   2.611   3.504   1.020 -2.2235 -1.0683  0.3403
 6739TIP3    H241709   2.540   3.535   1.150 -0.2774  2.0490  0.7519
 6740TIP3   OH241710   2.251   0.293  13.307 -0.0640 -0.7400 -0.6416
 6740TIP3    H141711   2.249   0.210  13.354  0.8184  0.5045  1.8143
 6740TIP3    H241712   2.188   0.348  13.355  1.6272  0.9123 -0.1819
 6741TIP3   OH241713   5.498   4.757   1.306  0.0277 -0.3359  0.2196
 6741TIP3    H141714   5.506   4.840   1.354  0.4180 -0.1247 -0.2091
 6741TIP3    H241715   5.501   4.782   1.214 -3.5391 -0.4070 -0.0768
 6742TIP3   OH241716   0.694   5.960   3.821  0.2577 -0.8627  0.6365
 6742TIP3    H141717   0.771   5.964   3.878  0.7747  1.9174 -0.0714
 6742TIP3    H241718   0.730   5.948   3.733 -0.1076 -0.0591  0.3622
 6743TIP3   OH241719   4.314   1.611   1.244  0.2190  0.2894  0.5914
 6743TIP3    H141720   4.292   1.562   1.323  2.5190 -0.8259  0.6086
 6743TIP3    H241721   4.235   1.662   1.225 -0.4235  0.5585  3.5464
 6744TIP3   OH241722   2.288   3.276   3.090 -0.1804  0.3571  0.4122
 6744TIP3    H141723   2.275   3.221   3.167 -0.8440 -0.8677 -0.5253
 6744TIP3    H241724   2.256   3.222   3.017  1.5318  0.9993 -0.8707
 6745TIP3   OH241725   6.118   3.106  14.455 -0.1049  0.3522 -0.5696
 6745TIP3    H141726   6.139   3.118  14.362 -0.0035  2.6189 -0.3242
 6745TIP3    H241727   6.119   3.195  14.491  2.2997 -0.6040  2.1394
 6746TIP3   OH241728   1.657   5.740  15.534 -0.0545  0.1106  0.7034
 6746TIP3    H141729   1.694   5.826  15.516 -0.4370  0.0621 -0.3221
 6746TIP3    H241730   1.575   5.758  15.579  0.5845  0.2373  1.8715
 6747TIP3   OH241731   5.761   3.936  17.139  0.2364  0.5801 -0.5952
 6747TIP3    H141732   5.779   3.847  17.171 -0.4864  1.3012  2.0746
 6747TIP3    H241733   5.823   3.949  17.067 -0.1772 -2.3448 -1.6148
 6748TIP3   OH241734   0.216   1.741  15.925  0.3523  0.3003  0.2140
 6748TIP3    H141735   0.139   1.724  15.871  1.2390 -1.4736 -0.6099
 6748TIP3    H241736   0.232   1.657  15.969  2.9748 -0.0962 -1.2687
 6749TIP3   OH241737   4.106   0.693   1.619 -0.2710 -0.0381 -0.4893
 6749TIP3    H141738   4.190   0.704   1.663 -1.1698  1.4327  0.9493
 6749TIP3    H241739   4.113   0.746   1.540  0.6926 -1.2281 -1.2495
 6750TIP3   OH241740   3.947   3.341   1.659 -0.2299 -0.0430  0.0142
 6750TIP3    H141741   3.876   3.394   1.623 -1.7688 -2.4096 -0.6729
 6750TIP3    H241742   3.924   3.330   1.751 -0.9584 -1.0203 -0.2635
 6751TIP3   OH241743   1.683   0.324  13.568 -0.1951  0.1938  0.5169
 6751TIP3    H141744   1.665   0.256  13.633 -0.6563  1.7605  2.1055
 6751TIP3    H241745   1.598   0.345  13.531 -0.3800  1.3137  1.5278
 6752TIP3   OH241746   0.172   3.583  10.896 -0.1134 -0.3427 -0.0613
 6752TIP3    H141747   0.232   3.534  10.840 -0.8444 -0.7759 -0.4820
 6752TIP3    H241748   0.227   3.648  10.939  0.8860 -1.5152  0.4955
 6753TIP3   OH241749   1.522   3.800  12.104 -0.2334  0.4765  0.1950
 6753TIP3    H141750   1.614   3.807  12.130  0.8327 -0.1984 -3.0092
 6753TIP3    H241751   1.512   3.709  12.078 -1.5899  0.7434 -0.2794
 6754TIP3   OH241752   4.526   5.787  16.287  0.1511 -0.0459  0.1533
 6754TIP3    H141753   4.483   5.851  16.231  0.0728 -1.1709 -1.1290
 6754TIP3    H241754   4.588   5.743  16.229  0.7211 -0.6432  1.1889
 6755TIP3   OH241755   0.267   2.460   6.177 -0.7963 -0.6811  0.0870
 6755TIP3    H141756   0.325   2.399   6.223  1.8502  2.0829  0.7698
 6755TIP3    H241757   0.194   2.474   6.237  0.4073 -0.4553  1.5505
 6756TIP3   OH241758   6.037   6.421  15.265 -0.3653  0.3289  0.6035
 6756TIP3    H141759   6.105   6.442  15.329  1.0119 -0.4126 -0.5561
 6756TIP3    H241760   6.032   6.325  15.267  0.8735  0.1668 -1.5017
 6757TIP3   OH241761   6.093   2.985  15.279  0.3350  0.7421  0.3415
 6757TIP3    H141762   6.107   3.039  15.357 -0.4740  0.4367  0.7045
 6757TIP3    H241763   5.998   2.979  15.271  0.4113 -0.6607  0.3199
 6758TIP3   OH241764   2.520   0.646   4.987 -0.1244  0.2723  0.1414
 6758TIP3    H141765   2.485   0.575   5.041  0.1501  0.4922  0.6112
 6758TIP3    H241766   2.526   0.608   4.899 -2.6682  0.5911 -0.2478
 6759TIP3   OH241767   4.729   1.340   4.046 -0.0755 -0.5063 -0.2699
 6759TIP3    H141768   4.656   1.286   4.016 -1.0411 -0.5790  1.9879
 6759TIP3    H241769   4.805   1.283   4.039  0.2576  0.1211 -4.3575
 6760TIP3   OH241770   2.451   5.678   3.304 -0.0100 -0.6826  0.2297
 6760TIP3    H141771   2.530   5.668   3.355 -0.4434 -2.0538  0.6718
 6760TIP3    H241772   2.400   5.745   3.350  0.4967 -0.4401  0.4354
 6761TIP3   OH241773   6.479   5.297   4.719 -0.0964 -0.0183  0.0290
 6761TIP3    H141774   6.571   5.273   4.729  0.3717  2.1901  1.8034
 6761TIP3    H241775   6.437   5.264   4.799 -0.2698  1.3002  0.4973
 6762TIP3   OH241776   1.816   4.178   6.347 -0.2060  0.1001  0.4187
 6762TIP3    H141777   1.858   4.257   6.380  0.9704 -0.9351  1.5116
 6762TIP3    H241778   1.789   4.130   6.426 -0.8044 -0.6388 -0.2195
 6763TIP3   OH241779   0.646   1.866  16.766  0.0445 -0.3781 -0.0545
 6763TIP3    H141780   0.718   1.828  16.714  0.7367 -2.0016  1.9655
 6763TIP3    H241781   0.568   1.851  16.712  0.7803 -1.6805 -0.8211
 6764TIP3   OH241782   4.192   1.272   3.208  0.5939 -0.6682  0.6028
 6764TIP3    H141783   4.223   1.359   3.182  0.2082 -0.5719  0.4436
 6764TIP3    H241784   4.185   1.277   3.303  0.3787 -0.4554  0.5776
 6765TIP3   OH241785   6.575   6.573   5.545 -0.1269 -0.0121  0.7532
 6765TIP3    H141786   6.507   6.640   5.544 -1.6480 -1.4597  1.3783
 6765TIP3    H241787   6.539   6.502   5.491  0.9904 -0.7171  0.9102
 6766TIP3   OH241788   1.083   3.842   1.377  0.0689 -0.1475  0.2958
 6766TIP3    H141789   1.082   3.766   1.435 -2.1858 -0.6178 -0.2509
 6766TIP3    H241790   1.079   3.805   1.289 -1.7240  0.5452  0.0399
 6767TIP3   OH241791   4.824   3.484   3.267 -0.0323 -0.0171  0.1212
 6767TIP3    H141792   4.747   3.429   3.255 -0.8838  1.1164  0.3255
 6767TIP3    H241793   4.809   3.560   3.211  1.7886 -0.6052 -1.2765
 6768TIP3   OH241794   0.952   4.357  13.337 -0.4395  0.5886  0.0528
 6768TIP3    H141795   0.986   4.426  13.280 -1.9033  1.5944  0.3401
 6768TIP3    H241796   0.911   4.404  13.410 -1.8528 -0.5505  0.0358
 6769TIP3   OH241797   0.045   2.794  15.950 -0.1529 -0.5920 -0.4244
 6769TIP3    H141798   0.091   2.710  15.957  0.2078 -0.3507  0.1677
 6769TIP3    H241799   0.100   2.846  15.891  0.0026 -0.5234 -0.2202
 6770TIP3   OH241800   6.010   1.299  10.268 -0.0468 -0.0591  0.1171
 6770TIP3    H141801   6.068   1.375  10.265 -0.1907  0.0342 -0.5808
 6770TIP3    H241802   6.070   1.224  10.270  0.1061  0.0397 -0.4567
 6771TIP3   OH241803   1.352   4.038   3.808 -0.4764 -0.2183 -0.1167
 6771TIP3    H141804   1.341   4.063   3.900 -0.4501 -1.9139  0.3674
 6771TIP3    H241805   1.263   4.044   3.772 -0.3626  1.2505 -0.2268
 6772TIP3   OH241806   1.215   0.465   5.932  0.7116  0.0874 -0.4566
 6772TIP3    H141807   1.257   0.509   5.858  3.1251 -1.7564 -0.2943
 6772TIP3    H241808   1.287   0.426   5.981 -0.7881  1.2933  2.9830
 6773TIP3   OH241809   5.715   5.045  12.907  0.9256  0.2754 -0.0922
 6773TIP3    H141810   5.664   5.126  12.904  0.3898  0.0138  1.1294
 6773TIP3    H241811   5.772   5.049  12.831 -0.3968  0.9368 -1.0745
 6774TIP3   OH241812   3.597   6.543  10.510 -0.3652  0.3149  0.3091
 6774TIP3    H141813   3.548   6.622  10.487  0.9192  2.2199  3.4187
 6774TIP3    H241814   3.675   6.547  10.455 -0.4462  1.0836  0.2351
 6775TIP3   OH241815   5.586   0.475  12.715  0.1234 -0.0225  1.0229
 6775TIP3    H141816   5.530   0.552  12.721 -0.1708 -0.2271  0.9697
 6775TIP3    H241817   5.636   0.475  12.796  0.0777  0.1881  1.0512
 6776TIP3   OH241818   0.340   0.583  15.459  0.2002  0.1139  0.0139
 6776TIP3    H141819   0.342   0.569  15.554 -0.2938  0.8180  0.1313
 6776TIP3    H241820   0.254   0.620  15.442  0.6373  0.8738 -0.5863
 6777TIP3   OH241821   6.484   5.226   1.682  0.1186 -0.4611  0.2685
 6777TIP3    H141822   6.537   5.198   1.756  1.6371  1.2608 -0.0993
 6777TIP3    H241823   6.547   5.245   1.612 -0.7776  2.6522  0.1419
 6778TIP3   OH241824   1.151   4.098  15.726  0.3791 -0.3928 -0.2618
 6778TIP3    H141825   1.128   4.011  15.691  1.4559 -0.4370 -0.9440
 6778TIP3    H241826   1.079   4.155  15.698  0.7562 -0.6220 -1.8205
 6779TIP3   OH241827   2.268   0.585  11.796 -0.5351 -0.0483 -0.3224
 6779TIP3    H141828   2.219   0.537  11.863  0.1510 -0.8500 -0.3733
 6779TIP3    H241829   2.273   0.674  11.829 -0.6927 -0.3049  0.4234
 6780TIP3   OH241830   5.809   3.700  16.569 -0.1647  0.1658  0.6872
 6780TIP3    H141831   5.788   3.735  16.482 -0.8353  0.8852  1.1232
 6780TIP3    H241832   5.725   3.669  16.603  0.2353 -0.8774  0.7593
 6781TIP3   OH241833   0.226   0.030   5.000  0.1505  0.0437 -0.5336
 6781TIP3    H141834   0.319   0.047   5.014  0.5787 -1.9265 -0.6622
 6781TIP3    H241835   0.198   0.096   4.936  1.1759  1.3261  0.2955
 6782TIP3   OH241836   4.568   1.033   2.101  0.0557  0.2047  0.5869
 6782TIP3    H141837   4.519   1.028   2.183  1.0396  0.4684  1.2130
 6782TIP3    H241838   4.517   0.981   2.039 -1.1580  0.7205  1.1235
 6783TIP3   OH241839   4.773   5.435  11.237 -0.6902  0.2065 -0.3530
 6783TIP3    H141840   4.729   5.515  11.265  3.5779  2.7739 -0.1105
 6783TIP3    H241841   4.809   5.397  11.317 -1.4378 -1.2301 -0.6555
 6784TIP3   OH241842   4.412   3.746   3.218  0.2802  0.2284  0.6512
 6784TIP3    H141843   4.357   3.794   3.156 -0.2096 -0.8770  0.2052
 6784TIP3    H241844   4.490   3.723   3.168 -0.2342 -0.9008  0.3476
 6785TIP3   OH241845   5.899   3.827   5.176 -0.1858 -1.0846 -0.6428
 6785TIP3    H141846   5.952   3.875   5.240  1.5448 -3.0449 -0.4801
 6785TIP3    H241847   5.820   3.880   5.165  1.6421  1.8371 -0.6455
 6786TIP3   OH241848   3.172   5.744  13.150 -0.1762  0.2427  0.2085
 6786TIP3    H141849   3.191   5.745  13.056  0.3683 -1.0777  0.2844
 6786TIP3    H241850   3.077   5.738  13.155 -0.2727  1.1041 -0.2318
 6787TIP3   OH241851   0.438   4.779  11.996  0.4622 -0.0992  0.2499
 6787TIP3    H141852   0.432   4.691  11.959  0.6083 -0.6029  1.3891
 6787TIP3    H241853   0.521   4.781  12.043 -0.9314 -0.4780  2.9453
 6788TIP3   OH241854   0.517   5.122   5.719  0.1896 -0.5136  0.0055
 6788TIP3    H141855   0.443   5.145   5.663 -1.6275  2.7465  3.2931
 6788TIP3    H241856   0.482   5.060   5.783  0.8402 -0.4746  0.4162
 6789TIP3   OH241857   0.139   0.505   3.111 -0.1251  0.3963  0.0667
 6789TIP3    H141858   0.099   0.541   3.191 -0.1202  0.8794 -0.1436
 6789TIP3    H241859   0.224   0.549   3.105  0.1112 -0.0573  0.0975
 6790TIP3   OH241860   3.852   0.705   0.325  0.3444  0.4569  0.9328
 6790TIP3    H141861   3.785   0.772   0.313  0.0526  0.0209  0.0426
 6790TIP3    H241862   3.916   0.722   0.256 -0.7095 -1.3273 -0.5872
 6791TIP3   OH241863   2.171   0.679   4.204  0.7612 -0.5962 -0.0669
 6791TIP3    H141864   2.200   0.671   4.113  1.8195  0.0708  0.1935
 6791TIP3    H241865   2.195   0.595   4.244  2.1741 -0.1635  0.0752
 6792TIP3   OH241866   3.085   5.268  10.924 -0.2403 -0.6285 -0.2022
 6792TIP3    H141867   3.039   5.194  10.964 -0.3807 -0.1032  0.6339
 6792TIP3    H241868   3.111   5.237  10.838  1.5773 -2.3992  0.8974
 6793TIP3   OH241869   4.499   5.961   1.777 -0.6678  0.0198 -0.6983
 6793TIP3    H141870   4.410   5.925   1.768 -1.3582  0.2842  3.2186
 6793TIP3    H241871   4.493   6.020   1.852  2.5638  1.0794 -1.1461
 6794TIP3   OH241872   1.669   0.243   2.320  0.1522  0.3611 -0.3689
 6794TIP3    H141873   1.644   0.157   2.287  0.0153  0.0183  0.5791
 6794TIP3    H241874   1.648   0.239   2.414  1.8185  0.7754  0.0591
 6795TIP3   OH241875   5.509   2.426  12.883  0.2582 -0.1299  0.0069
 6795TIP3    H141876   5.417   2.414  12.861  0.4535  0.4238 -1.2132
 6795TIP3    H241877   5.551   2.449  12.800  1.0814  1.9232  0.9080
 6796TIP3   OH241878   1.205   5.517  14.949 -0.2331 -0.0903 -0.0765
 6796TIP3    H141879   1.259   5.551  15.021 -1.5519  0.0436  0.8747
 6796TIP3    H241880   1.117   5.549  14.967 -0.7921 -0.9138 -1.1986
 6797TIP3   OH241881   3.764   1.972  13.167 -0.3196 -0.2444  0.3445
 6797TIP3    H141882   3.686   1.949  13.217 -1.8446  0.1912 -1.7057
 6797TIP3    H241883   3.732   2.032  13.100  1.5816 -0.9210 -1.2400
 6798TIP3   OH241884   3.929   4.607   0.848 -0.2565  0.3587  0.6559
 6798TIP3    H141885   3.836   4.615   0.825 -0.3870 -0.7551  0.7341
 6798TIP3    H241886   3.975   4.657   0.781 -0.7717 -0.9558 -0.7178
 6799TIP3   OH241887   2.220   1.126   1.264 -0.5711 -0.1433 -0.0334
 6799TIP3    H141888   2.190   1.200   1.317 -1.1382 -0.1305 -0.3589
 6799TIP3    H241889   2.315   1.132   1.264 -0.6236  0.8122 -0.3733
 6800TIP3   OH241890   5.631   4.119   0.645 -0.9798  0.4254 -0.1702
 6800TIP3    H141891   5.681   4.040   0.627  0.9015  1.3107  0.8879
 6800TIP3    H241892   5.582   4.135   0.564 -2.2948 -2.3584 -0.0520
 6801TIP3   OH241893   4.255   1.260  12.638 -0.3066 -0.4269 -0.4452
 6801TIP3    H141894   4.172   1.235  12.598 -0.8584 -1.9080  1.4955
 6801TIP3    H241895   4.282   1.338  12.589 -1.7395 -1.1524 -2.5295
 6802TIP3   OH241896   1.056   0.864  10.754 -0.1552 -0.4630 -0.2777
 6802TIP3    H141897   1.076   0.796  10.691  0.5588 -2.0692  1.5775
 6802TIP3    H241898   0.973   0.901  10.724  0.1486 -1.1804 -2.0910
 6803TIP3   OH241899   3.247   3.403  16.027  0.2011  0.6110  0.3477
 6803TIP3    H141900   3.182   3.350  16.073  1.3471 -0.9971  0.1747
 6803TIP3    H241901   3.284   3.460  16.095 -1.7764  2.0312  0.3286
 6804TIP3   OH241902   2.063   6.449   3.412  0.3630 -0.3599  0.1399
 6804TIP3    H141903   2.056   6.423   3.504  1.7874  0.4563  0.5030
 6804TIP3    H241904   1.972   6.448   3.380 -0.6809  2.7283  2.4963
 6805TIP3   OH241905   6.116   1.660   0.413  0.1618 -0.2965 -0.2651
 6805TIP3    H141906   6.069   1.673   0.330 -0.3441  1.3505  0.2397
 6805TIP3    H241907   6.131   1.749   0.446 -1.4130 -0.9112  2.3791
 6806TIP3   OH241908   1.238   0.148  16.942  0.3476  0.2126 -0.3203
 6806TIP3    H141909   1.165   0.113  16.890 -1.8073  5.0222 -1.1429
 6806TIP3    H241910   1.253   0.082  17.009 -4.6005 -1.3538 -0.3063
 6807TIP3   OH241911   0.853   3.690   0.861 -0.1502  0.0918  0.4315
 6807TIP3    H141912   0.786   3.622   0.868 -0.6774  0.3643 -1.4929
 6807TIP3    H241913   0.929   3.645   0.825 -0.5876  0.5205 -1.1117
 6808TIP3   OH241914   2.021   6.525  10.845 -0.5035 -0.7008 -0.3266
 6808TIP3    H141915   1.963   6.523  10.769 -0.1588  1.6712 -0.7272
 6808TIP3    H241916   2.042   6.618  10.856  1.1145 -1.2275  1.4163
 6809TIP3   OH241917   6.757   5.835   0.804 -0.2435 -0.2687 -0.1061
 6809TIP3    H141918   6.704   5.807   0.729 -1.0546  0.6092  0.1052
 6809TIP3    H241919   6.836   5.781   0.800 -1.0075 -1.3960 -0.6313
 6810TIP3   OH241920   3.774   5.695   3.327 -0.4691  0.3973 -0.6553
 6810TIP3    H141921   3.799   5.626   3.388  0.6190  0.4636 -0.9920
 6810TIP3    H241922   3.770   5.652   3.242  0.3023  0.7451 -0.8800
 6811TIP3   OH241923   1.882   2.052  15.133  0.2766  0.4877  0.6632
 6811TIP3    H141924   1.883   2.134  15.182  0.1005  0.1201  1.3111
 6811TIP3    H241925   1.798   2.052  15.088 -0.2104  0.1791  1.5427
 6812TIP3   OH241926   6.376   3.380   1.660  0.2186  0.9779  0.2064
 6812TIP3    H141927   6.468   3.396   1.638 -0.1198  1.2038 -1.1763
 6812TIP3    H241928   6.342   3.330   1.585  0.1166 -2.5117  2.3465
 6813TIP3   OH241929   4.807   6.669   0.969  0.2167  0.1391  0.3157
 6813TIP3    H141930   4.832   6.577   0.970 -2.4552 -0.6765  1.5326
 6813TIP3    H241931   4.780   6.687   1.060 -1.0617  1.5505 -0.2948
 6814TIP3   OH241932   3.777   3.389   2.669 -0.6787 -0.4052  0.4563
 6814TIP3    H141933   3.750   3.388   2.761 -0.1743 -0.1508  0.6057
 6814TIP3    H241934   3.696   3.408   2.621 -0.7981  0.2262  0.8986
 6815TIP3   OH241935   2.561   2.351   2.294  0.2123 -0.3584 -0.5059
 6815TIP3    H141936   2.650   2.368   2.262 -0.6031  1.4874 -2.0055
 6815TIP3    H241937   2.552   2.256   2.290  3.2785 -1.0314  3.1516
 6816TIP3   OH241938   4.063   1.125   1.997 -0.4174  0.2138 -0.0814
 6816TIP3    H141939   4.072   1.066   1.922 -0.8120  1.4406 -1.1135
 6816TIP3    H241940   4.152   1.151   2.018 -0.3705  0.5348 -0.6702
 6817TIP3   OH241941   0.868   1.008  13.777 -0.1969 -0.8107  0.2505
 6817TIP3    H141942   0.829   0.924  13.801 -0.7685 -0.1502  1.7887
 6817TIP3    H241943   0.945   1.016  13.832  0.5332 -0.8368 -0.7424
 6818TIP3   OH241944   5.750   1.956  14.985 -0.3639  0.3850  0.0425
 6818TIP3    H141945   5.736   1.922  15.073 -0.2745 -0.2685 -0.1931
 6818TIP3    H241946   5.661   1.969  14.951 -0.4216 -1.1549 -0.4496
 6819TIP3   OH241947   2.327   1.969   3.338 -0.3312 -0.2983  0.0339
 6819TIP3    H141948   2.401   1.938   3.285  0.4426  0.0342  0.8890
 6819TIP3    H241949   2.313   2.059   3.308 -1.5430 -0.9003 -1.3345
 6820TIP3   OH241950   4.474   3.129   0.640 -0.0200 -0.7944 -0.0659
 6820TIP3    H141951   4.478   3.113   0.734 -0.7859  1.0316  0.3041
 6820TIP3    H241952   4.460   3.042   0.602 -0.4595 -1.4679  1.5540
 6821TIP3   OH241953   4.454   6.254  16.681  0.6063 -0.0526 -0.1875
 6821TIP3    H141954   4.500   6.336  16.698 -3.1931  2.2588  0.1665
 6821TIP3    H241955   4.481   6.229  16.593  1.5730  1.7949 -0.4722
 6822TIP3   OH241956   6.568   2.537   2.527 -0.2507  0.2484 -0.1241
 6822TIP3    H141957   6.639   2.578   2.576  1.0906 -0.1985 -1.6250
 6822TIP3    H241958   6.514   2.610   2.497 -0.2682  0.6087  0.7413
 6823TIP3   OH241959   1.800   5.206  13.548  0.0660  0.1060  0.0060
 6823TIP3    H141960   1.738   5.191  13.476 -1.2945  0.6186  1.0242
 6823TIP3    H241961   1.863   5.269  13.512  0.4606 -0.9649 -1.2871
 6824TIP3   OH241962   6.623   4.020  14.462  0.1351  0.1014  0.0797
 6824TIP3    H141963   6.618   4.045  14.554 -2.3504 -1.8449  0.5700
 6824TIP3    H241964   6.700   3.964  14.457 -0.3225 -0.6578  1.2361
 6825TIP3   OH241965   6.353   1.500  15.434  0.0103  0.0396 -0.1427
 6825TIP3    H141966   6.416   1.528  15.501 -0.1320 -0.9409  0.4145
 6825TIP3    H241967   6.271   1.544  15.458 -0.0971 -0.4833  0.4603
 6826TIP3   OH241968   6.678   5.327  15.952  0.0627 -0.0032 -0.0806
 6826TIP3    H141969   6.594   5.368  15.971 -0.3705 -0.5136 -0.7883
 6826TIP3    H241970   6.735   5.398  15.924  0.0953  0.4483  1.1062
 6827TIP3   OH241971   5.204   6.033  14.176 -0.3669  0.2373 -0.3702
 6827TIP3    H141972   5.211   6.124  14.147 -0.2657  0.3357 -0.0406
 6827TIP3    H241973   5.122   6.031  14.226  0.5931  0.6056  1.2719
 6828TIP3   OH241974   5.911   1.332   5.355 -0.2407  0.7277 -0.2068
 6828TIP3    H141975   5.892   1.269   5.286 -0.3327 -0.6110  0.9961
 6828TIP3    H241976   5.869   1.413   5.326 -2.2351 -0.4071 -0.6795
 6829TIP3   OH241977   3.367   6.644  15.741 -0.3077 -0.0515  0.2195
 6829TIP3    H141978   3.299   6.628  15.807 -0.4672 -1.3508 -0.2234
 6829TIP3    H241979   3.404   6.557  15.723 -1.0887  0.0383 -2.2673
 6830TIP3   OH241980   5.514   3.676   5.628  0.2167  0.6547 -0.5075
 6830TIP3    H141981   5.595   3.718   5.600  0.9897 -0.2376  0.3204
 6830TIP3    H241982   5.488   3.723   5.707  2.4069 -1.8021  1.8702
 6831TIP3   OH241983   5.414   3.711   4.339  0.2013  0.0699  0.1056
 6831TIP3    H141984   5.381   3.647   4.402 -1.4007  0.2473 -0.4970
 6831TIP3    H241985   5.407   3.795   4.384  1.4835 -0.0667  0.5858
 6832TIP3   OH241986   6.686   4.712  11.589  0.1050 -0.0621  0.8730
 6832TIP3    H141987   6.716   4.626  11.559 -1.5137 -0.1814 -0.5451
 6832TIP3    H241988   6.680   4.703  11.684  0.2762 -1.4177  0.7858
 6833TIP3   OH241989   5.501   5.858  12.215 -0.4696 -0.4400  0.4574
 6833TIP3    H141990   5.500   5.781  12.157 -0.7217 -1.0507  1.2619
 6833TIP3    H241991   5.591   5.889  12.213 -0.7303  0.3317 -1.2749
 6834TIP3   OH241992   5.654   3.097   5.056  0.2368  0.1082  0.1869
 6834TIP3    H141993   5.615   3.034   5.116  0.9678 -0.2676  0.2673
 6834TIP3    H241994   5.735   3.056   5.027  0.5853  0.8971  0.0294
 6835TIP3   OH241995   2.092   1.593  14.588 -0.2686  0.4535 -0.3152
 6835TIP3    H141996   2.081   1.666  14.527  0.9442 -0.7614 -2.0951
 6835TIP3    H241997   2.009   1.546  14.584  0.1214 -0.1706 -1.8824
 6836TIP3   OH241998   2.535   3.065   4.058  0.2670  0.3285  0.1097
 6836TIP3    H141999   2.500   2.998   3.999  1.1809 -0.1660  0.1148
 6836TIP3    H242000   2.611   3.024   4.099  0.4188  1.1261  0.6497
 6837TIP3   OH242001   0.862   2.858  16.849 -0.5561  0.0496 -0.4597
 6837TIP3    H142002   0.921   2.840  16.775 -2.1760 -0.2754 -1.7338
 6837TIP3    H242003   0.897   2.805  16.921  0.0358 -1.0696 -1.5250
 6838TIP3   OH242004   5.629   0.444   2.809 -0.1464 -0.5704  0.2876
 6838TIP3    H142005   5.601   0.460   2.719 -0.6643 -0.6771  0.4285
 6838TIP3    H242006   5.553   0.466   2.862  0.1102 -0.6481  0.6889
 6839TIP3   OH242007   5.147   4.257  16.110  0.3755 -0.1304  0.0564
 6839TIP3    H142008   5.218   4.297  16.162 -0.3745  1.1301  0.1489
 6839TIP3    H242009   5.068   4.276  16.160 -0.0334 -1.6833  0.0400
 6840TIP3   OH242010   5.300   5.314  12.266 -0.4186  0.3552 -0.3101
 6840TIP3    H142011   5.208   5.297  12.246 -0.8906 -0.3610  2.1424
 6840TIP3    H242012   5.349   5.254  12.209 -1.6243 -1.2428  0.2726
 6841TIP3   OH242013   5.517   2.333  16.117  0.4048  0.0363 -0.4767
 6841TIP3    H142014   5.490   2.395  16.049 -0.9020 -1.9336 -1.8482
 6841TIP3    H242015   5.612   2.329  16.109  0.3079  0.1081 -1.9626
 6842TIP3   OH242016   2.119   4.969  12.839 -0.2892  0.1980 -0.0399
 6842TIP3    H142017   2.171   4.901  12.795 -1.1754 -0.1345 -0.6197
 6842TIP3    H242018   2.066   4.921  12.903 -1.3010  0.2482 -0.8110
 6843TIP3   OH242019   3.902   3.214   5.345  0.0136  0.2204 -0.0103
 6843TIP3    H142020   3.815   3.176   5.359 -1.4571  3.6195  0.9250
 6843TIP3    H242021   3.944   3.209   5.431 -0.0177  0.3864  0.0136
 6844TIP3   OH242022   2.547   4.211   6.606  0.0705 -0.3445  0.1458
 6844TIP3    H142023   2.637   4.181   6.589  0.1839 -0.5839  1.1284
 6844TIP3    H242024   2.492   4.152   6.555  0.3478 -1.6545  1.3012
 6845TIP3   OH242025   2.162   6.813  13.789  0.0239  0.6365  0.4142
 6845TIP3    H142026   2.229   6.770  13.736 -1.2481  0.3290 -1.0293
 6845TIP3    H242027   2.140   6.893  13.739 -0.8938  0.5630  0.6841
 6846TIP3   OH242028   0.805   0.099   4.365 -0.0333 -0.0042  0.4239
 6846TIP3    H142029   0.787   0.193   4.370  1.1060  0.1704  1.7385
 6846TIP3    H242030   0.896   0.090   4.393 -0.0634 -1.4827  0.1190
 6847TIP3   OH242031   3.030   6.369  10.910  0.2101 -0.1492 -0.8368
 6847TIP3    H142032   3.069   6.313  10.843  0.2144 -2.7581  1.1793
 6847TIP3    H242033   3.104   6.415  10.949  0.3643  0.3947 -1.7706
 6848TIP3   OH242034   0.651   1.574  11.569  0.5400  0.2851  0.1956
 6848TIP3    H142035   0.626   1.576  11.477 -1.0620  0.3212  0.6028
 6848TIP3    H242036   0.604   1.648  11.608  0.2239 -0.4612  1.2669
 6849TIP3   OH242037   6.359   0.728  15.037  0.0590  0.1980 -0.0524
 6849TIP3    H142038   6.305   0.659  14.998  1.8112 -1.8770  0.9744
 6849TIP3    H242039   6.349   0.803  14.978 -2.0140 -0.8692 -1.1638
 6850TIP3   OH242040   4.280   1.806  16.901 -0.3209  0.3551  0.4180
 6850TIP3    H142041   4.338   1.847  16.964 -0.5949 -0.4284  1.2033
 6850TIP3    H242042   4.337   1.751  16.847 -0.2169  0.2817  0.6047
 6851TIP3   OH242043   5.108   6.404   3.233  0.3898 -0.3060  0.1659
 6851TIP3    H142044   5.053   6.471   3.193 -1.2346 -0.8340  1.4138
 6851TIP3    H242045   5.144   6.354   3.159 -1.4125 -0.4072 -0.6850
 6852TIP3   OH242046   0.010   2.876  13.498  0.1900  0.7613 -0.4156
 6852TIP3    H142047  -0.030   2.938  13.559 -0.7326 -0.8515  0.6927
 6852TIP3    H242048   0.104   2.891  13.507  0.0118  1.5548  0.3047
 6853TIP3   OH242049   2.739   2.138  13.335 -0.3177 -0.5416  0.1262
 6853TIP3    H142050   2.746   2.116  13.242 -3.5783  0.0436 -0.3816
 6853TIP3    H242051   2.763   2.057  13.380  2.4560 -0.5002 -1.1036
 6854TIP3   OH242052   3.051   1.062  11.996  0.4385  0.2418 -0.5676
 6854TIP3    H142053   3.006   1.144  12.019 -0.9827 -0.9525  1.1617
 6854TIP3    H242054   3.020   1.043  11.907 -0.7309  0.6219 -0.2680
 6855TIP3   OH242055   3.684   2.562   0.291 -0.5987 -0.0085  0.6720
 6855TIP3    H142056   3.717   2.505   0.221 -0.2172 -1.1568  1.7429
 6855TIP3    H242057   3.627   2.624   0.246 -1.2764 -1.4181 -0.5292
 6856TIP3   OH242058   3.717   0.055   4.918 -0.4178 -0.1441 -0.0092
 6856TIP3    H142059   3.778   0.020   4.983 -1.1197 -0.5577  0.4435
 6856TIP3    H242060   3.761   0.132   4.883  0.9341 -1.1635 -0.6372
 6857TIP3   OH242061   6.022   5.209   4.826  0.0977 -0.1076  0.2275
 6857TIP3    H142062   6.110   5.245   4.831 -0.2253  1.0888 -1.6748
 6857TIP3    H242063   6.007   5.193   4.732 -0.9709 -2.2371  0.6874
 6858TIP3   OH242064   1.905   2.252  14.235  0.7469 -0.2063  0.4428
 6858TIP3    H142065   1.850   2.178  14.262 -0.3344 -0.0106 -1.0552
 6858TIP3    H242066   1.845   2.308  14.185  1.9698  0.7958  0.0651
 6859TIP3   OH242067   4.819   5.247  11.470 -0.0185  0.2797  0.2169
 6859TIP3    H142068   4.826   5.339  11.492 -1.8658  0.9589 -1.6774
 6859TIP3    H242069   4.737   5.219  11.510  0.3485 -0.4616  0.4706
 6860TIP3   OH242070   1.190   5.999   2.230  0.3107  0.3235  0.0619
 6860TIP3    H142071   1.282   6.027   2.233  0.7546 -1.0615  2.3698
 6860TIP3    H242072   1.195   5.904   2.220 -0.9330  0.3430 -0.8852
 6861TIP3   OH242073   0.299   0.258  13.580 -0.3242  0.8540 -0.6679
 6861TIP3    H142074   0.364   0.205  13.626  0.6308  1.2577 -1.4922
 6861TIP3    H242075   0.306   0.230  13.489 -0.0836  2.0899 -1.0501
 6862TIP3   OH242076   1.422   6.189  14.832 -0.1055 -0.0142 -0.2035
 6862TIP3    H142077   1.417   6.272  14.880  1.5810  0.6486 -1.0987
 6862TIP3    H242078   1.332   6.155  14.834 -0.5111  1.0316  1.5383
 6863TIP3   OH242079   5.810   1.264  11.217  0.0880 -0.0950  0.3824
 6863TIP3    H142080   5.866   1.340  11.197 -1.5879  0.6334 -2.0916
 6863TIP3    H242081   5.742   1.299  11.274 -1.4359  0.7424 -1.7863
 6864TIP3   OH242082   4.349   4.413  11.804 -0.1639  0.2859  0.2244
 6864TIP3    H142083   4.350   4.430  11.898 -0.6975 -2.7800  0.8931
 6864TIP3    H242084   4.384   4.324  11.795 -1.8918 -0.2520 -2.2773
 6865TIP3   OH242085   3.404   4.127  12.707 -0.5069 -0.3498 -0.0838
 6865TIP3    H142086   3.324   4.085  12.677 -0.4485  0.3185 -1.2297
 6865TIP3    H242087   3.421   4.087  12.792 -0.5290 -2.5537 -1.0255
 6866TIP3   OH242088   3.844   2.219   5.403  0.5137 -0.0632 -0.2123
 6866TIP3    H142089   3.822   2.133   5.366  2.2199 -0.1134 -1.2250
 6866TIP3    H242090   3.802   2.220   5.489  0.4124 -1.9096 -0.2049
 6867TIP3   OH242091   2.413   5.792   5.305 -0.4351  0.4085 -0.1901
 6867TIP3    H142092   2.349   5.846   5.352 -0.0140  0.4539  0.3461
 6867TIP3    H242093   2.470   5.855   5.262  0.8944  0.4627  1.5528
 6868TIP3   OH242094   2.603   5.919   1.783 -0.3384  0.0290  0.7762
 6868TIP3    H142095   2.622   5.834   1.821 -1.9720 -0.2876  0.9668
 6868TIP3    H242096   2.588   5.977   1.858 -0.8542  0.0650  0.6547
 6869TIP3   OH242097   4.300   2.223  10.811 -0.3310  0.0221  0.1962
 6869TIP3    H142098   4.220   2.200  10.859  0.4968  0.5031  1.8683
 6869TIP3    H242099   4.271   2.287  10.746 -1.7658 -1.8535 -1.1217
 6870TIP3   OH242100   4.061   5.390   2.922  0.5349 -0.4122 -0.0067
 6870TIP3    H142101   3.972   5.354   2.916 -0.1422  1.1314  0.4545
 6870TIP3    H242102   4.097   5.352   3.002 -0.7317  1.0672  1.3229
 6871TIP3   OH242103   4.235   2.564   3.906  0.0733  0.1841  0.1380
 6871TIP3    H142104   4.156   2.607   3.939  0.4735  0.8075  0.2833
 6871TIP3    H242105   4.204   2.479   3.874 -0.3298 -0.5396  2.2536
 6872TIP3   OH242106   1.480   3.556  14.780 -0.5213  0.2182 -0.2524
 6872TIP3    H142107   1.518   3.603  14.854  0.9339  0.8912 -1.3923
 6872TIP3    H242108   1.410   3.613  14.749  0.4920  1.1325 -0.9155
 6873TIP3   OH242109   0.686   4.478  16.115  0.4117 -0.3641  0.3006
 6873TIP3    H142110   0.639   4.495  16.197  0.3338 -1.1837  0.4326
 6873TIP3    H242111   0.684   4.561  16.068  0.7903  0.2204  1.3026
 6874TIP3   OH242112   3.123   0.593  16.422 -0.0458  0.1360 -0.3760
 6874TIP3    H142113   3.047   0.560  16.372  0.2777 -0.0383 -0.7564
 6874TIP3    H242114   3.199   0.556  16.377  0.2649  0.2817  0.0290
 6875TIP3   OH242115   4.093   3.975   2.164  0.2065  0.0038 -0.0871
 6875TIP3    H142116   4.015   3.920   2.165  0.6160 -0.5836 -0.4101
 6875TIP3    H242117   4.084   4.031   2.242  0.6880 -1.7853  1.3179
 6876TIP3   OH242118   2.262   6.613   1.385 -0.0961  0.2255 -0.5509
 6876TIP3    H142119   2.206   6.537   1.370  0.2440 -0.1803  0.1577
 6876TIP3    H242120   2.218   6.685   1.340  0.1528 -0.6070 -2.1749
 6877TIP3   OH242121   0.132   6.238  12.782  0.2251  0.4364  0.0981
 6877TIP3    H142122   0.183   6.160  12.761  0.4639  0.9358 -1.2741
 6877TIP3    H242123   0.042   6.214  12.762  0.6226  1.4593 -3.4767
 6878TIP3   OH242124   4.751   6.161  14.631 -0.0570 -0.0811  0.1047
 6878TIP3    H142125   4.664   6.202  14.625 -1.2481 -2.2751  1.0837
 6878TIP3    H242126   4.765   6.151  14.725 -0.3641 -2.8539 -0.0780
 6879TIP3   OH242127   5.218   4.449   5.575  0.2773  0.4107  0.2860
 6879TIP3    H142128   5.135   4.410   5.601  0.4230 -0.1909 -0.1371
 6879TIP3    H242129   5.233   4.519   5.639 -1.2209  1.4199 -0.4119
 6880TIP3   OH242130   3.524   1.945   1.984  0.0394 -0.1476 -0.4256
 6880TIP3    H142131   3.519   2.023   2.039 -1.6171  1.2201 -2.3739
 6880TIP3    H242132   3.473   1.879   2.031 -1.7367  1.1319 -0.4573
 6881TIP3   OH242133   0.920   6.048  13.516  0.3340 -0.1388  0.5590
 6881TIP3    H142134   0.964   5.969  13.484  0.1087  0.4028 -1.1904
 6881TIP3    H242135   0.833   6.045  13.475 -0.1356  0.3955  1.4729
 6882TIP3   OH242136   4.350   0.308  15.814  0.1183 -0.0318  0.3402
 6882TIP3    H142137   4.338   0.395  15.777 -0.1169 -0.4205 -0.5026
 6882TIP3    H242138   4.269   0.261  15.793  1.6866 -1.6626 -2.6192
 6883TIP3   OH242139   2.842   5.453   3.888 -0.1714  0.4603  0.0582
 6883TIP3    H142140   2.827   5.370   3.843 -0.6032  0.5192  0.0927
 6883TIP3    H242141   2.862   5.428   3.979  2.5121  0.2174 -0.5058
 6884TIP3   OH242142   2.381   6.471  15.660 -0.0449 -0.1331  0.1855
 6884TIP3    H142143   2.465   6.462  15.615 -0.8127  0.7875 -1.5060
 6884TIP3    H242144   2.391   6.420  15.741  2.3305  0.4620  0.3236
 6885TIP3   OH242145   6.018   2.279   0.016 -0.1860  0.2550 -0.6536
 6885TIP3    H142146   6.087   2.272  -0.050 -0.4425  0.2504 -0.9224
 6885TIP3    H242147   5.947   2.325  -0.028  0.3721  2.0775  0.2011
 6886TIP3   OH242148   5.929   4.720  13.403 -0.3138 -0.6403  0.1042
 6886TIP3    H142149   5.900   4.666  13.329  2.0097 -1.6800 -0.1282
 6886TIP3    H242150   5.984   4.788  13.362  0.1442 -0.5984  0.7824
 6887TIP3   OH242151   6.207   6.506  13.530  0.9212  0.2945 -0.8097
 6887TIP3    H142152   6.204   6.429  13.586  0.6111 -0.8072 -2.2871
 6887TIP3    H242153   6.158   6.573  13.578 -0.3582 -0.9723 -0.2971
 6888TIP3   OH242154   3.601   0.744  15.866  0.7363 -0.3683  0.1122
 6888TIP3    H142155   3.674   0.730  15.926  1.0849  3.0961  0.7289
 6888TIP3    H242156   3.632   0.708  15.783  2.0444 -1.3444  0.9788
 6889TIP3   OH242157   6.297   5.354  16.936 -0.6174  0.1856  0.3088
 6889TIP3    H142158   6.238   5.404  16.992 -0.6265  0.7398 -0.1754
 6889TIP3    H242159   6.333   5.419  16.876 -0.0436 -0.2690  0.1537
 6890TIP3   OH242160   1.165   1.919   2.908 -0.0255 -0.3561 -0.5125
 6890TIP3    H142161   1.224   1.921   2.983  0.6021  0.1235 -1.0022
 6890TIP3    H242162   1.080   1.893   2.944 -0.2635  1.8989  0.7317
 6891TIP3   OH242163   4.867   0.513  11.547  0.9609 -0.8650  0.2976
 6891TIP3    H142164   4.918   0.443  11.589  0.8362 -0.2173  1.5790
 6891TIP3    H242165   4.781   0.508  11.589  1.0086  0.1665  0.5327
 6892TIP3   OH242166   1.859   1.029  13.488 -0.1023 -0.7706  0.1756
 6892TIP3    H142167   1.906   0.992  13.413  0.4139 -0.0996  0.1592
 6892TIP3    H242168   1.913   1.103  13.516 -1.5125  0.4758 -0.2833
 6893TIP3   OH242169   4.865   3.722   2.852 -0.0987 -0.1193  0.4512
 6893TIP3    H142170   4.790   3.664   2.837 -0.0759 -0.5692  1.9493
 6893TIP3    H242171   4.835   3.808   2.821 -0.4639 -0.7144 -0.9183
 6894TIP3   OH242172   4.954   6.587  16.538  0.2788  0.8850 -0.0893
 6894TIP3    H142173   5.006   6.604  16.459 -0.8154  4.6117 -0.1911
 6894TIP3    H242174   4.868   6.561  16.504  0.4040  0.3667 -0.0271
 6895TIP3   OH242175   1.938   2.603  12.789  0.0739  0.4195 -0.1268
 6895TIP3    H142176   1.887   2.585  12.868  0.9193  0.7701  0.5078
 6895TIP3    H242177   2.028   2.586  12.814  0.3011  0.0207 -1.1804
 6896TIP3   OH242178   4.232   0.688   0.759  0.2662 -1.2622  0.1076
 6896TIP3    H142179   4.326   0.696   0.775  0.4013 -1.3516 -0.6080
 6896TIP3    H242180   4.210   0.763   0.703 -0.0887 -1.2417  0.2671
 6897TIP3   OH242181   4.739   6.642   2.107  0.6747 -0.6117 -0.1560
 6897TIP3    H142182   4.806   6.576   2.089  2.3572  1.1973 -0.7351
 6897TIP3    H242183   4.682   6.640   2.029  0.7572 -1.2867 -0.2082
 6898TIP3   OH242184   4.138   2.339   3.801 -0.2910  0.4950  0.2400
 6898TIP3    H142185   4.087   2.374   3.874 -0.4756 -1.0840  0.9259
 6898TIP3    H242186   4.076   2.283   3.754 -0.0843  1.2427 -0.9525
 6899TIP3   OH242187   5.237   3.469  16.670 -0.5678  0.3877  0.0854
 6899TIP3    H142188   5.235   3.521  16.590 -1.3689  1.2318  0.6302
 6899TIP3    H242189   5.252   3.380  16.641  0.4503  0.8590 -0.9126
 6900TIP3   OH242190   4.407   0.864   0.105 -0.5052 -0.4577 -0.4766
 6900TIP3    H142191   4.381   0.812   0.182  0.7309  0.9197  0.9492
 6900TIP3    H242192   4.325   0.905   0.075 -0.7909  0.1911  1.0855
 6901TIP3   OH242193   2.858   3.722   0.746 -0.3692 -0.4773  0.1981
 6901TIP3    H142194   2.807   3.645   0.770 -2.0670  0.4412 -0.3095
 6901TIP3    H242195   2.868   3.716   0.651  0.4902 -0.6574  0.2961
 6902TIP3   OH242196   3.818   6.576   5.567 -0.1071 -0.1640  0.8657
 6902TIP3    H142197   3.908   6.583   5.536 -0.1902 -1.4267  0.2645
 6902TIP3    H242198   3.781   6.663   5.554  0.8582  0.2036  0.5598
 6903TIP3   OH242199   6.465   2.688  15.167  0.3699 -0.4945 -0.3253
 6903TIP3    H142200   6.524   2.654  15.099  0.9847  0.8096 -0.4755
 6903TIP3    H242201   6.428   2.768  15.129  0.8378  0.3446  0.9042
 6904TIP3   OH242202   3.119   1.474  17.076 -0.9786 -0.1982 -0.2265
 6904TIP3    H142203   3.121   1.539  17.147 -0.3717 -1.3000  0.7932
 6904TIP3    H242204   3.149   1.522  16.999 -1.9423  1.1068  0.1611
 6905TIP3   OH242205   0.288   4.062   4.989 -0.2634  0.2134 -0.3255
 6905TIP3    H142206   0.368   4.041   4.942  0.1151  0.4793  0.1819
 6905TIP3    H242207   0.259   3.978   5.025  1.1116  0.4449  1.4932
 6906TIP3   OH242208   5.594   5.499   6.853 -0.0334  0.4284 -0.4787
 6906TIP3    H142209   5.590   5.593   6.868 -0.0832  0.5382 -1.1528
 6906TIP3    H242210   5.684   5.483   6.824  1.0914 -0.2499  2.9028
 6907TIP3   OH242211   0.130   4.814  13.884  0.1641 -0.4185  0.1845
 6907TIP3    H142212   0.139   4.874  13.958 -1.3104 -0.2629  0.2748
 6907TIP3    H242213   0.078   4.741  13.919 -2.7344  0.7826 -1.2317
 6908TIP3   OH242214   4.398   4.982   6.266 -0.2702 -0.2562  0.0164
 6908TIP3    H142215   4.313   5.026   6.276 -0.3101  0.1307 -1.7251
 6908TIP3    H242216   4.462   5.049   6.289 -0.3963 -0.0940 -0.1014
 6909TIP3   OH242217   2.397   6.346   4.811 -0.5283  0.2499  0.5584
 6909TIP3    H142218   2.389   6.433   4.772 -2.0390  0.1844  0.6781
 6909TIP3    H242219   2.489   6.323   4.799  0.0592  2.1209  1.0815
 6910TIP3   OH242220   2.991   4.988  14.520 -0.0608  0.2122  0.2026
 6910TIP3    H142221   3.040   4.906  14.510  0.3655  0.3095  1.3146
 6910TIP3    H242222   3.016   5.041  14.444  0.2410 -0.3959 -0.1297
 6911TIP3   OH242223   6.343   6.573   4.536 -0.6430 -0.2232 -0.0503
 6911TIP3    H142224   6.289   6.513   4.586 -0.4727  1.1935  1.9518
 6911TIP3    H242225   6.280   6.630   4.490 -0.8326 -0.2406  0.1877
 6912TIP3   OH242226   2.461   6.549   3.263 -0.5653 -1.0196  0.1205
 6912TIP3    H142227   2.416   6.608   3.323  0.5859  1.9304 -1.7240
 6912TIP3    H242228   2.400   6.536   3.191  0.1500  0.1656 -0.7354
 6913TIP3   OH242229   4.684   1.862  17.027 -0.2990 -0.1312 -0.0050
 6913TIP3    H142230   4.705   1.890  17.116 -0.8149 -1.6361  0.6242
 6913TIP3    H242231   4.767   1.832  16.991 -0.1660  0.0823  0.1240
 6914TIP3   OH242232   2.049   1.798  14.399  0.4650  0.3845  0.1678
 6914TIP3    H142233   2.058   1.830  14.309  0.7381 -1.5341 -0.5536
 6914TIP3    H242234   2.015   1.872  14.448 -1.4452  0.9928 -1.8991
 6915TIP3   OH242235   2.549   1.236  12.468 -0.2610  0.4053 -0.4061
 6915TIP3    H142236   2.638   1.245  12.433  0.5003  1.4626  1.6619
 6915TIP3    H242237   2.539   1.142  12.483  0.7905  0.3471  0.0158
 6916TIP3   OH242238   3.587   6.026  16.047 -0.0267  0.4616  0.8689
 6916TIP3    H142239   3.595   6.009  16.141  0.7647 -1.8474  0.4371
 6916TIP3    H242240   3.497   6.002  16.026  0.6570 -2.1480  0.5443
 6917TIP3   OH242241   6.034   1.343   3.237  0.1963  0.2669  0.1716
 6917TIP3    H142242   5.969   1.341   3.308  0.6953 -0.4802  0.6283
 6917TIP3    H242243   6.073   1.430   3.243  1.3266 -0.2959  1.8654
 6918TIP3   OH242244   5.818   0.971  11.524 -0.1738  0.1100  0.0300
 6918TIP3    H142245   5.723   0.975  11.508 -0.2710  2.3668  0.8971
 6918TIP3    H242246   5.848   0.899  11.468 -2.1335  0.4104 -1.5349
 6919TIP3   OH242247   1.436   4.004  17.078  0.6203 -0.7945  0.0286
 6919TIP3    H142248   1.497   3.996  17.005 -0.5656  0.3878 -1.1374
 6919TIP3    H242249   1.443   4.095  17.106 -1.2894 -0.3505 -0.7882
 6920TIP3   OH242250   5.932   5.233  14.991 -0.2272  0.2394 -0.6299
 6920TIP3    H142251   5.977   5.191  15.065 -0.6592  0.7869 -0.0417
 6920TIP3    H242252   5.848   5.262  15.028 -0.2842  0.8700 -1.2366
 6921TIP3   OH242253   6.364   1.161   2.697 -0.0930  0.3365  0.2138
 6921TIP3    H142254   6.382   1.113   2.617 -2.3723  0.3340 -0.3736
 6921TIP3    H242255   6.309   1.235   2.670  0.0265  0.9950  1.6255
 6922TIP3   OH242256   6.456   6.615  13.488 -0.2033  0.3962  0.2452
 6922TIP3    H142257   6.362   6.632  13.485 -0.3037  0.5323  2.3716
 6922TIP3    H242258   6.463   6.529  13.529  0.5963  0.9569  1.3369
 6923TIP3   OH242259   0.663   5.803   1.372 -0.1932 -0.0316  0.2150
 6923TIP3    H142260   0.666   5.899   1.373  0.7439 -0.0530  0.3532
 6923TIP3    H242261   0.679   5.779   1.281 -1.1435 -0.0511  0.0415
 6924TIP3   OH242262   4.303   3.085   6.265 -0.2865  0.5397  0.4488
 6924TIP3    H142263   4.256   3.094   6.182 -0.4388  0.7819  0.5622
 6924TIP3    H242264   4.359   3.162   6.269  0.3742  0.0857  0.1559
 6925TIP3   OH242265   0.902   4.903   4.891 -0.3445 -0.4096 -0.1024
 6925TIP3    H142266   0.893   4.861   4.805 -1.7892  0.1159 -0.2258
 6925TIP3    H242267   0.943   4.988   4.872  0.0229 -0.5972 -0.1707
 6926TIP3   OH242268   3.269   1.999   3.969  0.1437 -0.3331 -0.2984
 6926TIP3    H142269   3.231   1.992   4.057  0.2859 -1.5358 -0.3194
 6926TIP3    H242270   3.328   1.924   3.962 -0.2843 -0.5777 -1.6147
 6927TIP3   OH242271   1.440   5.584   1.953 -0.0722  0.2743  0.5976
 6927TIP3    H142272   1.497   5.585   1.877 -0.8902  2.0100 -0.0566
 6927TIP3    H242273   1.357   5.547   1.920 -0.3245  0.7232  0.7229
 6928TIP3   OH242274   3.700   6.739  12.451 -0.3033 -0.5301 -0.1906
 6928TIP3    H142275   3.644   6.727  12.528 -1.2786 -1.3624 -0.9976
 6928TIP3    H242276   3.731   6.651  12.430 -0.7649 -0.4563 -1.2542
 6929TIP3   OH242277   1.335   5.656   0.385  0.5729  0.0948 -0.5108
 6929TIP3    H142278   1.347   5.655   0.480  1.9516 -1.3519 -0.6693
 6929TIP3    H242279   1.335   5.749   0.362 -1.2404  0.5543  1.0332
 6930TIP3   OH242280   6.280   5.781  15.373  0.2765 -0.3115  0.0126
 6930TIP3    H142281   6.204   5.723  15.362  1.5847 -1.9162 -0.9009
 6930TIP3    H242282   6.347   5.725  15.412  1.3769  0.7724 -0.2809
 6931TIP3   OH242283   1.571   0.203   4.471  0.0426 -0.2383  0.3013
 6931TIP3    H142284   1.504   0.134   4.474 -1.5090  1.2287  0.7290
 6931TIP3    H242285   1.571   0.232   4.380  1.1412 -1.1981 -0.0189
 6932TIP3   OH242286   4.572   4.550   2.040 -0.1429 -0.6712 -0.0591
 6932TIP3    H142287   4.495   4.601   2.064 -0.4738 -1.1793 -0.0324
 6932TIP3    H242288   4.609   4.597   1.965 -0.3207 -0.2738  0.0997
 6933TIP3   OH242289   2.676   4.197  12.176  0.5631 -0.4899  0.2458
 6933TIP3    H142290   2.585   4.179  12.200  0.2913 -0.4578 -0.7325
 6933TIP3    H242291   2.680   4.293  12.167  0.7300 -0.4800  0.4041
 6934TIP3   OH242292   4.881   2.088   1.198 -0.0668 -0.3040 -0.2075
 6934TIP3    H142293   4.814   2.027   1.230 -1.9447  3.3535  4.0176
 6934TIP3    H242294   4.948   2.088   1.266  0.9608  0.7756 -1.1727
 6935TIP3   OH242295   2.209   3.219   1.811 -0.2111 -0.3218 -0.3664
 6935TIP3    H142296   2.240   3.141   1.764  0.4969  0.0672 -0.5604
 6935TIP3    H242297   2.217   3.196   1.904 -4.9979 -2.4986 -0.1737
 6936TIP3   OH242298   5.033   1.620  15.228 -0.1239 -1.1521  0.1396
 6936TIP3    H142299   4.961   1.631  15.166 -0.8298 -3.1720  0.5529
 6936TIP3    H242300   5.046   1.526  15.235  1.1155 -0.9152  1.7323
 6937TIP3   OH242301   5.058   5.145  11.874  0.0969  0.0171  0.5529
 6937TIP3    H142302   5.034   5.124  11.783  0.3075 -2.0958  0.9324
 6937TIP3    H242303   5.153   5.136  11.876  0.1141  0.2837  0.9289
 6938TIP3   OH242304   6.245   1.811  14.457  0.1044 -0.0859 -0.3525
 6938TIP3    H142305   6.289   1.870  14.397 -0.1827 -0.6934 -1.1772
 6938TIP3    H242306   6.168   1.860  14.487 -0.2708 -0.1208 -1.2318
 6939TIP3   OH242307   6.397   6.194  15.018 -0.9923 -0.1462 -0.3667
 6939TIP3    H142308   6.308   6.213  14.991 -0.0435  2.5172 -1.9837
 6939TIP3    H242309   6.450   6.212  14.941  0.9497 -2.2378  0.3495
 6940TIP3   OH242310   1.119   0.439  16.019  0.4142  0.2954 -0.5319
 6940TIP3    H142311   1.094   0.383  16.093  1.4928  1.5189  0.8229
 6940TIP3    H242312   1.041   0.493  16.003 -0.7108 -1.6364 -1.9880
 6941TIP3   OH242313   0.729   5.754  15.657  0.3985 -0.3836  1.0399
 6941TIP3    H142314   0.754   5.669  15.620 -1.5782 -2.1025  3.3094
 6941TIP3    H242315   0.797   5.773  15.722  0.8590 -0.2186  0.5105
 6942TIP3   OH242316   3.579   3.466   1.829  0.5090 -0.4115  0.0330
 6942TIP3    H142317   3.644   3.460   1.900  0.4818 -0.2210  0.0747
 6942TIP3    H242318   3.545   3.555   1.836  2.2130  0.4530 -1.7153
 6943TIP3   OH242319   2.571   6.364  11.362 -0.1948  0.0508  0.1884
 6943TIP3    H142320   2.599   6.401  11.278 -1.7056 -0.1804 -0.4508
 6943TIP3    H242321   2.651   6.362  11.416  0.5929  1.1204 -0.8980
 6944TIP3   OH242322   4.842   5.305  16.883 -0.2078 -0.0660  0.5218
 6944TIP3    H142323   4.774   5.347  16.936 -0.1782  1.2919 -0.4543
 6944TIP3    H242324   4.899   5.377  16.856  0.8217 -0.9853  0.1524
 6945TIP3   OH242325   3.674   2.215  16.458 -0.4889 -0.2272 -0.0696
 6945TIP3    H142326   3.744   2.216  16.393 -0.3040  1.4128  0.1189
 6945TIP3    H242327   3.630   2.300  16.447 -0.5493  0.0221  1.8380
 6946TIP3   OH242328   3.741   1.656  13.686 -0.1105 -0.5610  0.1916
 6946TIP3    H142329   3.830   1.673  13.716  0.0019 -0.7317 -0.0511
 6946TIP3    H242330   3.688   1.724  13.729  0.1129 -0.5449  0.4437
 6947TIP3   OH242331   1.186   5.384  11.947  0.0642  0.3378  0.4957
 6947TIP3    H142332   1.091   5.387  11.937  0.1579 -0.7269 -0.9347
 6947TIP3    H242333   1.199   5.357  12.038 -1.0459 -0.8353  0.3438
 6948TIP3   OH242334   2.686   0.293   6.245 -0.8008  0.5576  0.8382
 6948TIP3    H142335   2.612   0.325   6.296  0.2447 -1.4027  3.8221
 6948TIP3    H242336   2.762   0.307   6.301  0.4871 -1.3948 -0.2968
 6949TIP3   OH242337   5.350   2.482   3.978  0.3597  0.8475  0.0290
 6949TIP3    H142338   5.441   2.456   3.969 -0.1881 -1.4568  0.5197
 6949TIP3    H242339   5.313   2.471   3.891  0.1406 -0.0119  0.2246
 6950TIP3   OH242340   0.836   0.727   3.286 -0.8085  0.2129  0.4120
 6950TIP3    H142341   0.873   0.813   3.303 -0.9242  0.1690  0.8952
 6950TIP3    H242342   0.897   0.666   3.326  0.5233 -0.0996 -1.9276
 6951TIP3   OH242343   5.378   1.368  12.612 -0.3421 -0.4158 -0.1354
 6951TIP3    H142344   5.442   1.439  12.619 -1.6710  0.6843  1.9172
 6951TIP3    H242345   5.415   1.297  12.665 -0.6324  0.0779  0.7382
 6952TIP3   OH242346   5.125   4.065   3.931 -0.4759 -0.5285  0.1532
 6952TIP3    H142347   5.192   4.121   3.971 -1.7076 -0.4425  2.2713
 6952TIP3    H242348   5.110   4.103   3.845  0.9397  0.4950  0.3159
 6953TIP3   OH242349   5.354   2.059  16.908  0.2489  0.2817 -0.6656
 6953TIP3    H142350   5.401   1.981  16.879 -1.7647 -1.2757  0.1079
 6953TIP3    H242351   5.262   2.042  16.887 -0.1774  2.7598 -1.1265
 6954TIP3   OH242352   0.106   5.758   4.918  0.0236 -0.4150  0.0817
 6954TIP3    H142353   0.150   5.842   4.929 -0.9179  0.1288 -0.2228
 6954TIP3    H242354   0.090   5.751   4.824 -1.5170 -0.0634  0.2778
 6955TIP3   OH242355   5.989   0.257  13.303  0.1291 -0.3831  0.0797
 6955TIP3    H142356   5.997   0.245  13.398  3.3453  2.6362  0.4124
 6955TIP3    H242357   6.052   0.195  13.266  1.1037  0.5006  0.2085
 6956TIP3   OH242358   4.092   2.645   2.005  0.0165 -0.1546  0.0231
 6956TIP3    H142359   4.182   2.623   2.030  1.0726  1.4332 -2.0928
 6956TIP3    H242360   4.079   2.734   2.037 -1.2377 -0.7153  1.2124
 6957TIP3   OH242361   1.771   4.902  15.091  0.3904  0.4109 -0.4969
 6957TIP3    H142362   1.724   4.822  15.068 -1.0756  0.5123  1.8181
 6957TIP3    H242363   1.706   4.957  15.134  2.0056  1.6883  0.4549
 6958TIP3   OH242364   5.391   1.076   4.522 -0.2899  0.3896  0.2350
 6958TIP3    H142365   5.370   1.016   4.450  0.5253  1.0036 -0.5389
 6958TIP3    H242366   5.313   1.132   4.529 -0.1781  0.6529 -0.5215
 6959TIP3   OH242367   6.260   2.118   5.960  0.4200  0.1422  0.1586
 6959TIP3    H142368   6.242   2.077   5.876 -0.8669  1.5151 -0.2785
 6959TIP3    H242369   6.268   2.045   6.022  0.7255 -0.8495 -1.0223
 6960TIP3   OH242370   5.687   5.635  13.154 -0.4187 -0.2505  0.0677
 6960TIP3    H142371   5.741   5.679  13.088  0.0027  0.7340  1.0378
 6960TIP3    H242372   5.746   5.570  13.192 -0.3851 -0.2043  0.0946
 6961TIP3   OH242373   0.486   6.382  13.432  0.5869  0.2328  0.3096
 6961TIP3    H142374   0.570   6.428  13.439  1.5103 -1.5401  1.5650
 6961TIP3    H242375   0.464   6.388  13.340  2.0341  0.8312 -0.0371
 6962TIP3   OH242376   2.829   1.325  15.135  0.2641  0.2522  0.1490
 6962TIP3    H142377   2.825   1.278  15.051  0.7459 -1.4567  1.0458
 6962TIP3    H242378   2.751   1.297  15.182  0.5821  0.2962  0.7163
 6963TIP3   OH242379   5.595   1.655  12.633 -0.3747 -0.1063  0.5345
 6963TIP3    H142380   5.607   1.737  12.585  2.4561 -1.1782 -0.8410
 6963TIP3    H242381   5.669   1.652  12.694  0.3531 -2.1539 -0.3529
 6964TIP3   OH242382   4.605   4.100   5.638  0.4824 -0.4403  0.1997
 6964TIP3    H142383   4.521   4.077   5.677  0.8358 -0.5615  0.9236
 6964TIP3    H242384   4.667   4.097   5.712  1.0060  0.2693 -0.1977
 6965TIP3   OH242385   0.822   2.765   5.320  0.8780 -0.2339  0.1806
 6965TIP3    H142386   0.752   2.740   5.380  1.1633  0.5740  0.8782
 6965TIP3    H242387   0.874   2.686   5.309  1.5166 -0.1154  1.9725
 6966TIP3   OH242388   5.545   5.927   1.405  0.0729  0.9039 -0.2720
 6966TIP3    H142389   5.572   5.890   1.321 -1.4959  0.0401 -0.4350
 6966TIP3    H242390   5.616   5.905   1.465  0.6042  0.3721 -1.0723
 6967TIP3   OH242391   6.133   2.565  17.029  0.2029 -0.1001  0.1809
 6967TIP3    H142392   6.180   2.626  16.972  2.0624  0.5995  2.3420
 6967TIP3    H242393   6.050   2.610  17.049 -0.5483 -0.4153 -1.9660
 6968TIP3   OH242394   2.441   3.734  11.383 -0.1254  0.4143  0.7506
 6968TIP3    H142395   2.467   3.761  11.294 -0.2254 -1.8219 -0.0091
 6968TIP3    H242396   2.384   3.805  11.413  3.7639  3.8095  1.0963
 6969TIP3   OH242397   5.294   1.927  11.991 -0.2414  0.3971 -0.4487
 6969TIP3    H142398   5.252   1.842  12.001 -0.5528  0.4062 -1.5494
 6969TIP3    H242399   5.234   1.989  12.033  0.1263  0.0587  0.6141
 6970TIP3   OH242400   3.567   1.747   0.883 -0.3752  0.0359 -0.2407
 6970TIP3    H142401   3.478   1.712   0.879 -1.0248  1.4543  1.0051
 6970TIP3    H242402   3.617   1.682   0.933 -1.1360  0.0704  0.5727
 6971TIP3   OH242403   2.521   6.569  14.839  0.1490  0.1364  0.0004
 6971TIP3    H142404   2.534   6.662  14.861 -1.7772 -0.0621  2.4830
 6971TIP3    H242405   2.425   6.560  14.834  0.3453 -1.4123 -1.9018
 6972TIP3   OH242406   3.605   4.571  11.077  0.1540  0.1991  0.0480
 6972TIP3    H142407   3.547   4.571  11.000  1.8720 -0.0289 -1.2933
 6972TIP3    H242408   3.658   4.650  11.067 -0.3675  0.7910  1.6467
 6973TIP3   OH242409   2.333   2.099  13.256  0.0075 -0.6168  0.2826
 6973TIP3    H142410   2.406   2.073  13.200  0.5311 -1.3310  1.2711
 6973TIP3    H242411   2.329   2.194  13.249 -0.9076 -0.7678 -2.1457
 6974TIP3   OH242412   0.164   1.746   1.648 -0.7853  0.0614  0.6844
 6974TIP3    H142413   0.106   1.743   1.723 -1.0834 -1.1505  0.4280
 6974TIP3    H242414   0.166   1.838   1.622 -1.9724  0.2327  1.1699
 6975TIP3   OH242415   3.518   3.952  11.881  0.4188 -0.3094 -0.8328
 6975TIP3    H142416   3.560   3.872  11.912 -1.1692 -0.9729 -0.2777
 6975TIP3    H242417   3.501   3.936  11.788  0.4003 -0.4812 -0.7996
 6976TIP3   OH242418   1.004   6.305  14.355 -0.1326 -0.3713 -0.4474
 6976TIP3    H142419   0.946   6.296  14.430 -0.3882  0.6366 -0.5135
 6976TIP3    H242420   1.075   6.243  14.372  0.3993  0.6086  1.1745
 6977TIP3   OH242421   6.312   2.980  15.780 -0.1982  0.6278 -0.4898
 6977TIP3    H142422   6.370   3.023  15.843 -0.7060  1.2343 -0.4271
 6977TIP3    H242423   6.224   3.000  15.812 -0.4537 -0.6009 -0.3634
 6978TIP3   OH242424   0.879   2.809   0.503  0.5237 -0.1226 -0.1248
 6978TIP3    H142425   0.865   2.844   0.415  1.7391  0.0166 -0.2682
 6978TIP3    H242426   0.935   2.733   0.490  0.5767 -0.1994  0.5228
 6979TIP3   OH242427   0.212   0.760  15.159  0.9849 -0.0747 -0.4652
 6979TIP3    H142428   0.235   0.811  15.237 -0.6342 -0.3613  0.2519
 6979TIP3    H242429   0.294   0.718  15.133  2.2819  2.4985 -0.8342
 6980TIP3   OH242430   4.910   5.929  10.901  0.1599  0.3147  0.6187
 6980TIP3    H142431   4.818   5.937  10.877  0.2531  1.0509  0.5027
 6980TIP3    H242432   4.915   5.846  10.949  0.0243 -1.3998 -2.1127
 6981TIP3   OH242433   3.593   4.693   3.358  0.0453 -0.2988 -0.2631
 6981TIP3    H142434   3.577   4.669   3.449 -0.9681 -2.3454 -0.9271
 6981TIP3    H242435   3.507   4.718   3.325  0.2490 -0.4072 -0.8847
 6982TIP3   OH242436   6.088   6.703  16.925 -0.2065  0.1068 -0.0267
 6982TIP3    H142437   6.045   6.713  16.840  0.7685  1.4531 -0.3966
 6982TIP3    H242438   6.169   6.656  16.904  0.7734  1.7769 -0.1168
 6983TIP3   OH242439   6.327   6.647  11.535 -0.1099 -0.3569  0.1370
 6983TIP3    H142440   6.262   6.701  11.581 -1.1072 -1.4996  0.1095
 6983TIP3    H242441   6.410   6.689  11.555 -0.7739  0.6997  0.8167
 6984TIP3   OH242442   5.208   4.097   2.788 -0.3184  0.5025 -0.0405
 6984TIP3    H142443   5.303   4.095   2.778  0.1567  3.0551  2.3851
 6984TIP3    H242444   5.184   4.008   2.813  1.6132  0.0573  0.3768
 6985TIP3   OH242445   2.194   1.203   0.162  0.3934  0.4122 -0.2203
 6985TIP3    H142446   2.240   1.119   0.153 -0.2091  0.1033 -0.4746
 6985TIP3    H242447   2.233   1.258   0.094  0.3938  0.1525 -0.4328
 6986TIP3   OH242448   5.623   0.628   5.998  0.1221  0.2258  0.5224
 6986TIP3    H142449   5.557   0.611   5.931  0.5032  0.6274  0.0285
 6986TIP3    H242450   5.574   0.659   6.074 -0.3234 -0.3046  0.4560
 6987TIP3   OH242451   6.183   6.655   1.003  0.4656  0.4364 -0.3938
 6987TIP3    H142452   6.125   6.655   0.927  1.0598  2.8611 -0.9122
 6987TIP3    H242453   6.269   6.677   0.968  0.9702  0.5322  0.8427
 6988TIP3   OH242454   0.700   0.947  14.800  0.0550  0.2827 -0.2312
 6988TIP3    H142455   0.743   1.033  14.797  0.7651  0.1125  2.5873
 6988TIP3    H242456   0.608   0.968  14.819 -0.1092  0.4428 -1.1388
 6989TIP3   OH242457   2.978   4.217   1.811 -0.6155  0.1040 -0.2126
 6989TIP3    H142458   3.069   4.226   1.781 -0.4463  0.3456  0.3539
 6989TIP3    H242459   2.935   4.297   1.781 -0.9594 -0.5513 -1.5412
 6990TIP3   OH242460   0.944   4.295   5.062  1.1191  0.2634  0.0927
 6990TIP3    H142461   0.948   4.199   5.062 -0.5985  0.1678  0.9000
 6990TIP3    H242462   0.948   4.318   4.969 -0.1845 -0.7060 -0.2376
 6991TIP3   OH242463   5.385   5.452   6.367  0.2670  0.1338 -0.0769
 6991TIP3    H142464   5.435   5.524   6.405  0.1064 -0.0928  0.5752
 6991TIP3    H242465   5.335   5.492   6.296  1.0663  0.4372 -0.4813
 6992TIP3   OH242466   3.878   5.055  14.486 -0.2934 -0.0328  0.1546
 6992TIP3    H142467   3.814   5.119  14.452  0.0929 -0.3883 -1.3114
 6992TIP3    H242468   3.958   5.072  14.436 -0.0248 -1.3252  0.1165
 6993TIP3   OH242469   2.708   2.354   1.755 -0.1361  0.7332 -0.0208
 6993TIP3    H142470   2.615   2.345   1.777 -0.3597 -2.9661 -1.6310
 6993TIP3    H242471   2.708   2.397   1.669 -0.6513 -1.1198 -1.0254
 6994TIP3   OH242472   0.167   4.680   6.210  0.3181  0.3228  0.3666
 6994TIP3    H142473   0.224   4.741   6.257  1.3975 -0.6699  0.3865
 6994TIP3    H242474   0.135   4.731   6.135 -0.0335  1.3722  1.1896
 6995TIP3   OH242475   5.418   6.053  13.673 -0.3026 -0.0151  0.2422
 6995TIP3    H142476   5.483   6.014  13.614 -1.5215 -1.3637 -0.2468
 6995TIP3    H242477   5.379   5.979  13.718  0.1604  0.9522  2.3269
 6996TIP3   OH242478   4.338   6.353  13.869 -0.1590  0.2302  0.7139
 6996TIP3    H142479   4.296   6.370  13.953  0.1102  0.3360  0.8297
 6996TIP3    H242480   4.403   6.423  13.860 -1.5628  1.4492 -0.5311
 6997TIP3   OH242481   0.285   2.077  14.060  0.5214 -0.1745 -0.2213
 6997TIP3    H142482   0.257   2.158  14.103  2.0244  0.3686 -0.2143
 6997TIP3    H242483   0.262   2.090  13.968  0.7039  0.2502 -0.2109
 6998TIP3   OH242484   4.566   0.067   5.564 -0.4613 -0.0421  0.5150
 6998TIP3    H142485   4.583   0.038   5.474  1.4053  1.8137  0.1996
 6998TIP3    H242486   4.471   0.064   5.572 -0.5454 -2.7645 -0.6026
 6999TIP3   OH242487   5.088   1.318   0.526  0.2123 -0.6158  0.0365
 6999TIP3    H142488   4.993   1.327   0.519  0.3207 -0.6511 -2.0943
 6999TIP3    H242489   5.106   1.324   0.620 -1.7496  0.7328  0.3848
 7000TIP3   OH242490   5.319   0.932   1.296  0.4778 -0.1681  0.1543
 7000TIP3    H142491   5.404   0.892   1.279  0.8293  0.4799  0.3446
 7000TIP3    H242492   5.257   0.860   1.292  1.3958 -1.2452  3.1512
 7001TIP3   OH242493   1.859   3.594   3.200  0.4715  0.5502 -0.2932
 7001TIP3    H142494   1.856   3.614   3.293  0.2719 -0.0676 -0.1616
 7001TIP3    H242495   1.942   3.631   3.170 -0.2130  2.2242 -0.2334
 7002TIP3   OH242496   6.724   2.990  10.488  0.0286  0.0066  0.0898
 7002TIP3    H142497   6.786   2.929  10.528  1.1125  0.7076 -0.4839
 7002TIP3    H242498   6.773   3.032  10.418 -1.1679  0.4285 -0.5201
 7003TIP3   OH242499   4.535   5.999   1.471  0.2052 -0.4361 -0.0105
 7003TIP3    H142500   4.544   6.075   1.529 -2.4092  0.1019 -0.1940
 7003TIP3    H242501   4.582   5.929   1.516 -0.3810  0.3808  1.9731
 7004TIP3   OH242502   6.817   2.754  15.580 -0.5815  0.0116 -0.5368
 7004TIP3    H142503   6.823   2.833  15.525 -3.5205 -0.2501 -1.3862
 7004TIP3    H242504   6.789   2.787  15.665 -1.3484 -0.0466 -0.7596
 7005TIP3   OH242505   2.626   6.751   0.167 -0.2098 -0.6043 -0.0247
 7005TIP3    H142506   2.626   6.775   0.075 -2.2905 -0.4012 -0.0050
 7005TIP3    H242507   2.650   6.832   0.213  0.4308 -0.6062 -0.3318
 7006TIP3   OH242508   4.743   1.830  15.722  0.1467 -0.5715 -0.3549
 7006TIP3    H142509   4.772   1.921  15.717 -0.4682 -0.4203 -1.3916
 7006TIP3    H242510   4.648   1.833  15.710 -0.2111 -1.1680  1.8814
 7007TIP3   OH242511   4.391   4.001  15.742  0.1638  0.4855  0.3202
 7007TIP3    H142512   4.486   3.997  15.748  0.2108 -0.3052 -0.6178
 7007TIP3    H242513   4.372   3.990  15.649 -0.8593  0.0565  0.5621
 7008TIP3   OH242514   0.601   5.521   4.254 -0.3105 -0.0518  0.4363
 7008TIP3    H142515   0.596   5.534   4.159  0.5710 -0.7226  0.2928
 7008TIP3    H242516   0.622   5.608   4.288 -0.0626  0.0771 -0.0319
 7009TIP3   OH242517   4.764   5.324   0.230  0.0011  0.4068  0.0500
 7009TIP3    H142518   4.705   5.340   0.157  0.2902  2.0131  0.1340
 7009TIP3    H242519   4.750   5.397   0.289  2.3538  1.1103 -0.1448
 7010TIP3   OH242520   5.174   5.617   2.847 -0.4448 -0.6782 -0.4402
 7010TIP3    H142521   5.140   5.693   2.894 -0.1941 -0.4438 -0.6341
 7010TIP3    H242522   5.217   5.565   2.914 -1.4467 -1.1389 -0.1313
 7011TIP3   OH242523   4.870   2.709   5.364  0.3429 -0.3142 -0.4311
 7011TIP3    H142524   4.798   2.661   5.405 -0.6636  0.3762 -1.3298
 7011TIP3    H242525   4.855   2.700   5.270 -0.2121  2.1678 -0.6548
 7012TIP3   OH242526   4.534   0.366  13.592 -0.0102  0.5483  0.9642
 7012TIP3    H142527   4.448   0.333  13.618 -0.4556 -0.1672 -1.2113
 7012TIP3    H242528   4.596   0.301  13.625 -0.5018 -0.0911  0.6501
 7013TIP3   OH242529   5.536   6.253   2.424 -0.6153 -0.2961 -0.1238
 7013TIP3    H142530   5.529   6.256   2.519 -0.7887 -0.2567 -0.1370
 7013TIP3    H242531   5.621   6.293   2.405  0.0177 -1.5106  0.0845
 7014TIP3   OH242532   2.008   5.322  16.418  0.6149  0.3357 -0.1026
 7014TIP3    H142533   2.037   5.404  16.380  2.3094 -0.5138 -0.7294
 7014TIP3    H242534   1.953   5.348  16.492  1.6798  2.0261  0.1478
 7015TIP3   OH242535   0.984   5.061   6.381 -0.4934  0.3704 -0.4068
 7015TIP3    H142536   1.073   5.044   6.350 -1.2544  0.1118 -2.6196
 7015TIP3    H242537   0.933   5.075   6.301 -2.8796 -1.6535  0.6300
 7016TIP3   OH242538   4.142   2.784   6.181 -0.1214  0.4758  0.2108
 7016TIP3    H142539   4.137   2.840   6.258  0.9167  1.5061 -0.4344
 7016TIP3    H242540   4.183   2.839   6.114 -1.2059 -0.3044 -1.1602
 7017TIP3   OH242541   5.024   5.497  15.053 -0.5778 -0.0619  0.5320
 7017TIP3    H142542   4.947   5.486  14.998 -0.6333 -0.2214  0.6432
 7017TIP3    H242543   5.017   5.587  15.086  0.5069  0.7498 -1.3289
 7018TIP3   OH242544   4.949   6.154  12.920 -0.1955  0.5298  0.3755
 7018TIP3    H142545   4.907   6.222  12.974  0.1556  1.2195 -0.1970
 7018TIP3    H242546   4.975   6.087  12.982  0.8637  1.6421  1.1838
 7019TIP3   OH242547   0.963   5.472  16.351  0.7948 -0.2697  0.0478
 7019TIP3    H142548   0.948   5.475  16.256 -2.3542 -0.0105  0.4302
 7019TIP3    H242549   0.943   5.560  16.381  1.9780 -0.2919  0.9466
 7020TIP3   OH242550   5.412   6.154  10.661  0.3227 -0.0563  0.5170
 7020TIP3    H142551   5.349   6.214  10.620  0.2403 -0.3778  0.1721
 7020TIP3    H242552   5.401   6.071  10.615  1.1471 -0.0639  0.3122
 7021TIP3   OH242553   5.552   6.525  10.703  0.2072  0.0236  0.5555
 7021TIP3    H142554   5.580   6.597  10.646 -0.7784  0.2998  0.3891
 7021TIP3    H242555   5.623   6.460  10.697  0.6172  0.5196 -0.1374
 7022TIP3   OH242556   2.117   3.804   1.963 -0.5711 -0.2246  0.2565
 7022TIP3    H142557   2.074   3.769   2.041 -1.9550  0.6056 -0.0783
 7022TIP3    H242558   2.132   3.896   1.984  0.9023 -0.4506  0.2743
 7023TIP3   OH242559   1.015   2.308  15.323 -0.5653 -0.4711  0.4359
 7023TIP3    H142560   1.087   2.369  15.312 -0.3195 -0.4811  1.7377
 7023TIP3    H242561   0.945   2.342  15.268 -0.3743  0.8973  0.9989
 7024TIP3   OH242562   0.721   2.734   2.225 -0.1647 -0.1565  0.0064
 7024TIP3    H142563   0.790   2.787   2.266  2.4297 -3.8766  0.9924
 7024TIP3    H242564   0.655   2.723   2.293 -0.0961  0.6311  0.2151
 7025TIP3   OH242565   4.955   4.672  15.633  0.4118 -0.2122 -0.0340
 7025TIP3    H142566   4.926   4.757  15.666  0.2250 -0.1817 -0.2678
 7025TIP3    H242567   5.040   4.658  15.674 -0.7379 -1.1773  2.1581
 7026TIP3   OH242568   3.346   1.627  15.093  0.4794 -0.1004  0.3102
 7026TIP3    H142569   3.368   1.566  15.164 -1.0548 -1.4300 -0.2987
 7026TIP3    H242570   3.295   1.696  15.136 -1.6124 -1.5938  0.3709
 7027TIP3   OH242571   3.401   3.068  16.945 -0.2188  0.4393 -0.0171
 7027TIP3    H142572   3.380   3.043  16.855 -1.6274 -2.0907  0.9118
 7027TIP3    H242573   3.361   3.000  16.999  1.0904  1.5396  2.5279
 7028TIP3   OH242574   5.114   2.423  11.569  0.9570 -0.2516  0.9435
 7028TIP3    H142575   5.020   2.424  11.587  0.8000 -1.2948  0.2624
 7028TIP3    H242576   5.129   2.503  11.517  0.4581 -0.0653  1.0775
 7029TIP3   OH242577   0.953   6.489  16.826  0.2719  0.0887  0.4147
 7029TIP3    H142578   0.952   6.465  16.733 -0.2196  0.7946  0.2300
 7029TIP3    H242579   0.874   6.449  16.862  0.4156 -0.1098  0.5084
 7030TIP3   OH242580   0.091   2.099  15.555 -0.0511  0.0553 -0.0369
 7030TIP3    H142581   0.146   2.043  15.609 -0.0515  2.0587  2.2084
 7030TIP3    H242582   0.144   2.116  15.477  1.6174  0.0850  1.0408
 7031TIP3   OH242583   1.066   5.970   0.952 -0.2037 -0.2521 -0.7231
 7031TIP3    H142584   1.097   6.035   1.016 -0.4143  0.1433 -1.0150
 7031TIP3    H242585   0.978   5.948   0.980 -0.1396 -0.3935 -0.6356
 7032TIP3   OH242586   0.906   6.532   4.539 -0.0846  0.1841  0.2633
 7032TIP3    H142587   0.908   6.569   4.451  1.6081 -0.2671  0.0850
 7032TIP3    H242588   0.840   6.584   4.585  1.1473  2.4874 -0.3836
 7033TIP3   OH242589   2.502   3.589   3.360  0.3464  0.2336  0.2396
 7033TIP3    H142590   2.537   3.602   3.448  0.9945  1.2848 -0.1456
 7033TIP3    H242591   2.507   3.676   3.320 -0.4297 -0.1223 -0.6588
 7034TIP3   OH242592   1.594   4.742  16.646 -0.1236  0.1504  0.4680
 7034TIP3    H142593   1.622   4.764  16.557  1.7999 -1.5585  0.5736
 7034TIP3    H242594   1.501   4.719  16.637 -0.1822  0.8223 -0.9241
 7035TIP3   OH242595   3.569   2.981  12.099 -0.1908 -0.3601  0.1415
 7035TIP3    H142596   3.580   3.002  12.007 -1.0123 -0.7680 -0.0603
 7035TIP3    H242597   3.526   2.896  12.099 -0.5113 -0.2067  0.8940
 7036TIP3   OH242598   5.250   4.065   5.423 -0.6824  0.8674  0.5814
 7036TIP3    H142599   5.238   4.129   5.353  0.3392 -0.1703 -0.5787
 7036TIP3    H242600   5.298   4.114   5.491  1.3374  1.0306 -0.8607
 7037TIP3   OH242601   0.638   6.545  16.239 -0.2334  0.0345  0.5723
 7037TIP3    H142602   0.680   6.616  16.287 -0.7063 -1.4414  3.3945
 7037TIP3    H242603   0.685   6.467  16.266 -2.0952 -1.1644  0.5465
 7038TIP3   OH242604   3.779   4.408  14.514 -0.1257  0.5958  0.5649
 7038TIP3    H142605   3.827   4.344  14.566 -0.3597  0.4703  0.6286
 7038TIP3    H242606   3.713   4.443  14.574  0.7962  1.8077  0.9083
 7039TIP3   OH242607   5.657   4.556  14.066  0.0522  0.4780  0.1294
 7039TIP3    H142608   5.737   4.515  14.035  0.3637  1.0909  0.1190
 7039TIP3    H242609   5.629   4.501  14.139  0.0655 -0.1718 -0.3489
 7040TIP3   OH242610   0.070   5.687  12.542  0.3587  0.3913 -0.0328
 7040TIP3    H142611   0.037   5.763  12.493  1.8456  0.7939 -0.4609
 7040TIP3    H242612   0.001   5.668  12.605 -0.6950  1.1725 -0.9061
 7041TIP3   OH242613   5.943   3.965   3.778  0.2298  0.2880 -0.5496
 7041TIP3    H142614   5.994   4.013   3.714 -0.9492  0.4405 -1.4212
 7041TIP3    H242615   5.900   3.896   3.727  0.6856 -0.7337  0.4056
 7042TIP3   OH242616   1.669   3.418  14.401  0.2075 -0.1765 -0.4593
 7042TIP3    H142617   1.703   3.495  14.446 -0.6901  1.0904 -1.8450
 7042TIP3    H242618   1.608   3.379  14.463 -1.1570  1.6379 -0.5477
 7043TIP3   OH242619   0.550   2.197  11.714 -0.4393 -0.0374  0.3375
 7043TIP3    H142620   0.640   2.171  11.730 -0.4458  0.3410  1.0412
 7043TIP3    H242621   0.504   2.174  11.795 -0.4886  1.9395  0.9195
 7044TIP3   OH242622   4.432   5.384  12.546  0.2906 -0.0335 -0.5047
 7044TIP3    H142623   4.407   5.296  12.520  1.3479 -0.4217 -0.2580
 7044TIP3    H242624   4.353   5.420  12.588 -0.3410 -0.6249 -1.1582
 7045TIP3   OH242625   0.085   3.729   1.104 -0.0222  0.1009  0.1888
 7045TIP3    H142626   0.094   3.821   1.078 -1.1632 -0.2519 -1.7071
 7045TIP3    H242627   0.000   3.702   1.067  0.1264 -1.6236  0.9962
 7046TIP3   OH242628   5.588   2.326   5.068 -0.6300 -0.0984  0.1834
 7046TIP3    H142629   5.636   2.390   5.120  0.1137 -0.5353  0.0486
 7046TIP3    H242630   5.623   2.335   4.980 -1.8332  0.5860 -0.2506
 7047TIP3   OH242631   6.560   0.434  16.538 -0.7886  0.6669  0.0411
 7047TIP3    H142632   6.564   0.370  16.609  1.3799  0.4335 -0.2219
 7047TIP3    H242633   6.554   0.381  16.458 -0.9774  0.8554 -0.0710
 7048TIP3   OH242634   1.696   3.620   4.614  1.0896  0.3627 -0.0666
 7048TIP3    H142635   1.623   3.682   4.619  0.5402 -0.2929  0.2212
 7048TIP3    H242636   1.674   3.564   4.540  0.9058 -0.3303  0.5092
 7049TIP3   OH242637   3.261   4.288   0.835 -0.3771  0.3458 -0.7301
 7049TIP3    H142638   3.323   4.355   0.805  0.0978 -0.0836 -0.7360
 7049TIP3    H242639   3.194   4.284   0.767  1.1632 -1.2701 -2.2865
 7050TIP3   OH242640   5.409   3.903   5.268 -0.0124 -0.2073 -0.5933
 7050TIP3    H142641   5.353   3.950   5.330  0.3825  0.5724 -0.8196
 7050TIP3    H242642   5.401   3.811   5.294 -0.0194  0.0819  0.4814
 7051TIP3   OH242643   5.104   0.560   3.488  0.0999  0.2456 -0.4833
 7051TIP3    H142644   5.092   0.499   3.416 -1.1628  0.6215 -0.6231
 7051TIP3    H242645   5.198   0.564   3.502  0.3210 -0.2425 -1.7518
 7052TIP3   OH242646   3.972   0.822  10.954 -0.1652  0.2560  0.4348
 7052TIP3    H142647   3.994   0.839  10.862 -0.6998  0.3499  0.3252
 7052TIP3    H242648   4.051   0.847  11.002  0.0373  0.4196  0.0247
 7053TIP3   OH242649   5.237   5.212   6.518 -0.0228  0.1705 -0.1092
 7053TIP3    H142650   5.223   5.264   6.597 -0.1591 -0.5753  0.3661
 7053TIP3    H242651   5.155   5.220   6.469 -0.2740 -0.0959  0.2597
 7054TIP3   OH242652   2.858   1.951   0.037  0.1816 -0.9210  0.4444
 7054TIP3    H142653   2.837   1.927  -0.053 -0.1758  2.5730 -0.5552
 7054TIP3    H242654   2.953   1.961   0.039  0.3539 -2.4554  0.9187
 7055TIP3   OH242655   0.590   1.720  12.439  0.3454 -0.3166  0.3777
 7055TIP3    H142656   0.549   1.641  12.403  0.6543 -0.4279  0.2728
 7055TIP3    H242657   0.591   1.705  12.534  0.8896 -0.6749  0.3189
 7056TIP3   OH242658   1.988   4.909   3.152  0.1701  0.1549 -0.0389
 7056TIP3    H142659   2.007   4.974   3.220 -0.0109  1.0969 -0.8684
 7056TIP3    H242660   2.071   4.865   3.136  0.2912  0.1625  0.5347
 7057TIP3   OH242661   2.146   6.648  13.175  0.3978  0.3224  0.5376
 7057TIP3    H142662   2.184   6.712  13.115 -0.5455 -0.3266 -0.8060
 7057TIP3    H242663   2.219   6.591  13.199  0.9462  1.0443  0.6031
 7058TIP3   OH242664   6.091   5.915   0.631  0.4008  0.1706  0.7646
 7058TIP3    H142665   6.120   5.991   0.681 -0.1014  0.8777  0.0071
 7058TIP3    H242666   5.998   5.907   0.652  0.7596 -1.1319  1.9698
 7059TIP3   OH242667   1.332   1.775   2.607 -0.4843  0.0598 -0.4241
 7059TIP3    H142668   1.335   1.693   2.558 -2.2327 -0.1369 -0.2443
 7059TIP3    H242669   1.245   1.811   2.589 -0.2681  1.1766  0.6309
 7060TIP3   OH242670   1.167   4.557  15.169 -0.3105 -0.1391  0.7427
 7060TIP3    H142671   1.079   4.540  15.135 -0.2019  0.5417  0.0959
 7060TIP3    H242672   1.225   4.507  15.112 -0.3035 -1.2237  1.6410
 7061TIP3   OH242673   6.408   2.804  11.369 -0.1688 -0.0030  0.4676
 7061TIP3    H142674   6.452   2.885  11.394 -0.0586 -0.0221  0.3436
 7061TIP3    H242675   6.369   2.771  11.449 -0.6735  0.4529  0.4111
 7062TIP3   OH242676   6.223   3.309   0.681  1.0908 -0.0927 -0.0488
 7062TIP3    H142677   6.220   3.400   0.652 -0.5968  0.1336  0.6915
 7062TIP3    H242678   6.179   3.260   0.611  1.1844 -0.2041 -0.0298
 7063TIP3   OH242679   3.252   1.993  11.444 -0.2424 -0.4273 -0.5687
 7063TIP3    H142680   3.217   1.922  11.498  0.8639 -0.1350  0.5849
 7063TIP3    H242681   3.196   2.068  11.464 -0.1314 -0.4471 -0.1654
 7064TIP3   OH242682   2.501   2.622  11.186 -0.3129 -0.1016  0.4695
 7064TIP3    H142683   2.428   2.681  11.167  1.0010  1.5391  0.2217
 7064TIP3    H242684   2.554   2.622  11.106  0.0600 -1.1314  0.6927
 7065TIP3   OH242685   0.236   2.443  13.420  0.7904 -0.0942 -0.4384
 7065TIP3    H142686   0.234   2.499  13.343 -0.7180 -1.9352 -1.8215
 7065TIP3    H242687   0.210   2.500  13.492 -1.0386  0.9583 -1.8440
 7066TIP3   OH242688   4.737   6.325   4.323  0.3498 -0.1405  0.5942
 7066TIP3    H142689   4.807   6.276   4.280  1.5242  1.1003  1.0350
 7066TIP3    H242690   4.693   6.371   4.252  1.7550  1.2343  0.5461
 7067TIP3   OH242691   5.133   3.761  16.146 -0.3423  0.3499 -0.1010
 7067TIP3    H142692   5.060   3.704  16.121  1.6623 -3.3332  1.6646
 7067TIP3    H242693   5.129   3.763  16.241  2.3534 -0.8609  0.1159
 7068TIP3   OH242694   3.606   3.679  15.332  0.0977  0.4882  0.1609
 7068TIP3    H142695   3.544   3.728  15.387  0.2057  1.4339 -0.5248
 7068TIP3    H242696   3.683   3.736  15.326  0.6310 -0.2225  0.1636
 7069TIP3   OH242697   0.399   5.311   6.211 -0.5142  0.2207  0.2335
 7069TIP3    H142698   0.494   5.309   6.226 -0.4405  1.0454 -0.0712
 7069TIP3    H242699   0.377   5.221   6.186  0.5562  0.4743 -1.8869
 7070TIP3   OH242700   1.967   0.644   1.313 -0.2807  0.5673 -0.1818
 7070TIP3    H142701   1.908   0.645   1.238 -0.6795  2.1568  0.1228
 7070TIP3    H242702   2.022   0.566   1.299 -1.3923 -0.0525 -1.2762
 7071TIP3   OH242703   4.505   1.192   3.985 -0.1121  0.2304 -0.7937
 7071TIP3    H142704   4.428   1.190   4.041  1.4095  0.3196  1.4313
 7071TIP3    H242705   4.471   1.178   3.897 -2.6016 -0.0995  0.1415
 7072TIP3   OH242706   1.597   4.677  11.293 -0.4701 -0.4555  0.4427
 7072TIP3    H142707   1.627   4.738  11.361 -1.8043 -0.6578  1.2454
 7072TIP3    H242708   1.517   4.715  11.259 -1.6160 -1.9714  1.3232
 7073TIP3   OH242709   6.696   0.412   1.538 -0.3031 -0.5304 -0.8246
 7073TIP3    H142710   6.601   0.408   1.552 -0.6864  0.1956 -2.8570
 7073TIP3    H242711   6.725   0.487   1.590 -0.7032 -1.1718  0.3573
 7074TIP3   OH242712   0.387   6.686  15.204 -0.3937 -0.2293 -0.2869
 7074TIP3    H142713   0.373   6.645  15.289 -1.3866 -0.9248 -0.7559
 7074TIP3    H242714   0.453   6.753  15.220  1.5844 -2.2226  0.4478
 7075TIP3   OH242715   4.502   0.610   0.587 -0.0037 -0.1619 -0.0169
 7075TIP3    H142716   4.539   0.522   0.587 -0.8047 -0.5408  1.7994
 7075TIP3    H242717   4.445   0.612   0.510  0.6460 -0.9403 -0.5298
 7076TIP3   OH242718   3.010   4.094  15.660  0.0506  0.2468 -0.7385
 7076TIP3    H142719   3.018   4.188  15.676  0.3067  0.2629 -0.9594
 7076TIP3    H242720   2.916   4.078  15.662 -0.1172  0.8437 -2.5434
 7077TIP3   OH242721   5.646   5.673   3.913 -0.2065  0.6288  0.5636
 7077TIP3    H142722   5.605   5.724   3.983  0.9525  0.0216  1.7409
 7077TIP3    H242723   5.728   5.720   3.895 -0.2200  0.4520  0.0324
 7078TIP3   OH242724   2.404   2.781  17.259 -0.0072 -0.0276  0.1580
 7078TIP3    H142725   2.343   2.811  17.326 -1.2861  0.0566 -0.9812
 7078TIP3    H242726   2.443   2.861  17.224 -0.2332  0.0128 -0.0026
 7079TIP3   OH242727   4.007   5.235   2.651 -0.0951 -0.0182 -0.2718
 7079TIP3    H142728   4.033   5.252   2.742 -0.0388  0.6730 -0.4107
 7079TIP3    H242729   3.947   5.161   2.657 -2.4239  1.7882  0.7092
 7080TIP3   OH242730   0.547   6.374   2.097 -0.6252 -0.0332 -0.0544
 7080TIP3    H142731   0.601   6.441   2.055  0.4437 -0.8763 -0.0579
 7080TIP3    H242732   0.521   6.315   2.026 -1.0276 -0.0001  0.0579
 7081TIP3   OH242733   1.344   5.694  13.697  0.5087  0.4025 -0.4300
 7081TIP3    H142734   1.334   5.785  13.667 -1.1503  0.0723 -0.9402
 7081TIP3    H242735   1.405   5.701  13.771  0.7153  1.8832 -0.6965
 7082TIP3   OH242736   3.210   1.055  10.514 -0.2941  0.3998 -0.0580
 7082TIP3    H142737   3.294   1.094  10.491 -0.1217  0.2468  0.3107
 7082TIP3    H242738   3.198   0.984  10.452 -0.1512  0.4221 -0.1099
 7083TIP3   OH242739   0.857   3.125   0.157  0.4969 -0.0663  0.1869
 7083TIP3    H142740   0.924   3.116   0.089  1.7589  1.4796  1.1569
 7083TIP3    H242741   0.883   3.203   0.206 -1.7530  0.2808  0.9241
 7084TIP3   OH242742   6.692   6.770  13.490  0.1250 -0.5018  0.1814
 7084TIP3    H142743   6.728   6.773  13.579 -0.6191  0.6615  0.4625
 7084TIP3    H242744   6.603   6.736  13.501 -0.1250  0.0607 -0.0550
 7085TIP3   OH242745   3.716   3.999   6.691 -0.0382  0.0114  0.7223
 7085TIP3    H142746   3.795   4.009   6.744 -0.7772 -1.5224  2.2408
 7085TIP3    H242747   3.654   4.061   6.728  0.5021  1.4356 -0.6680
 7086TIP3   OH242748   0.748   5.112  16.810  0.2222 -0.3889  0.3305
 7086TIP3    H142749   0.778   5.102  16.900  0.2953 -0.2952  0.3173
 7086TIP3    H242750   0.708   5.199  16.808 -1.3589 -1.0630  0.7221
 7087TIP3   OH242751   3.804   4.791   1.629  0.5926 -0.4179  0.1322
 7087TIP3    H142752   3.894   4.820   1.612 -0.0136  1.8195  0.4534
 7087TIP3    H242753   3.750   4.868   1.611 -1.0471 -0.9479  2.3317
 7088TIP3   OH242754   1.566   1.030  13.954 -0.3208 -0.0614 -0.2178
 7088TIP3    H142755   1.629   0.959  13.964 -0.3123  0.0064  0.2346
 7088TIP3    H242756   1.618   1.107  13.932 -0.2983 -0.1191 -0.3689
 7089TIP3   OH242757   3.559   4.397  10.743 -0.8367  0.1085 -0.0512
 7089TIP3    H142758   3.637   4.348  10.768 -0.7050  0.1594 -0.3655
 7089TIP3    H242759   3.592   4.481  10.710 -0.9962 -0.0449 -0.6118
 7090TIP3   OH242760   4.276   3.232  11.573 -0.1086 -0.2925  0.1491
 7090TIP3    H142761   4.278   3.327  11.556  0.2288 -0.4814 -0.9667
 7090TIP3    H242762   4.276   3.225  11.669  0.6091  0.8285  0.2526
 7091TIP3   OH242763   4.524   2.225   0.692 -0.3122  0.0856  0.2409
 7091TIP3    H142764   4.612   2.188   0.701 -0.5999 -0.9950 -0.9644
 7091TIP3    H242765   4.486   2.176   0.619 -2.3845 -0.3851  1.5663
 7092TIP3   OH242766   4.366   1.671   4.262 -0.4518  0.3057 -0.3403
 7092TIP3    H142767   4.352   1.719   4.343  1.4421  0.6884 -0.2029
 7092TIP3    H242768   4.352   1.735   4.193  0.6070  0.6954 -0.2062
 7093TIP3   OH242769   2.939   6.353   5.749 -0.7525 -0.0598 -0.0116
 7093TIP3    H142770   2.858   6.345   5.799 -0.2680  0.0805  0.8065
 7093TIP3    H242771   2.932   6.286   5.681 -0.6535 -1.4711  1.3237
 7094TIP3   OH242772   1.511   6.625   3.543  0.1471 -0.0340  0.3732
 7094TIP3    H142773   1.492   6.612   3.450  0.6681  0.4471  0.1959
 7094TIP3    H242774   1.574   6.556   3.564  0.1319 -0.0601  0.3336
 7095TIP3   OH242775   1.131   6.594   5.279  0.2109 -0.4039  0.0356
 7095TIP3    H142776   1.106   6.687   5.277 -0.1001 -0.4521  0.9930
 7095TIP3    H242777   1.134   6.572   5.372  0.2668 -1.3619 -0.1789
 7096TIP3   OH242778   1.349   2.785   0.297 -0.4673 -0.7865 -0.0457
 7096TIP3    H142779   1.284   2.724   0.262 -1.0810  0.0596 -0.4172
 7096TIP3    H242780   1.427   2.771   0.244 -1.0502 -0.2796 -1.0612
 7097TIP3   OH242781   6.165   0.668   1.147 -0.3326  0.4812  0.0270
 7097TIP3    H142782   6.192   0.610   1.077 -0.3847 -0.2049  0.5663
 7097TIP3    H242783   6.075   0.642   1.167  0.3013 -0.6458  1.6351
 7098TIP3   OH242784   1.944   3.651  11.912  0.2929 -1.0198  0.1030
 7098TIP3    H142785   2.027   3.692  11.936 -0.2560 -0.8164  1.8080
 7098TIP3    H242786   1.933   3.581  11.977 -0.4355 -1.6312 -0.6633
 7099TIP3   OH242787   2.886   0.444   1.249  0.1787  0.2844  0.4853
 7099TIP3    H142788   2.982   0.443   1.252  0.1709 -1.6080  1.2386
 7099TIP3    H242789   2.860   0.354   1.266 -1.7406  0.6043 -0.4321
 7100TIP3   OH242790   3.106   4.312   0.611  0.4450  0.0436 -0.5026
 7100TIP3    H142791   3.086   4.256   0.536  1.6759  0.9303 -1.5239
 7100TIP3    H242792   3.139   4.393   0.573 -1.0571  1.4177  0.9491
 7101TIP3   OH242793   3.740   3.676   2.516 -0.3960  0.0544 -0.1374
 7101TIP3    H142794   3.673   3.693   2.582 -0.8660 -0.4651 -0.4712
 7101TIP3    H242795   3.812   3.635   2.565 -0.4370  0.3517  0.1733
 7102TIP3   OH242796   1.835   6.023   2.776  0.5444 -0.7231  0.0760
 7102TIP3    H142797   1.911   6.081   2.777 -0.2268  0.3500  1.8308
 7102TIP3    H242798   1.852   5.962   2.705  2.1986  0.5948 -0.7256
 7103TIP3   OH242799   3.273   4.364  12.659 -0.0504  0.2126 -0.2465
 7103TIP3    H142800   3.281   4.364  12.564 -0.1440  1.5214 -0.2729
 7103TIP3    H242801   3.304   4.277  12.686  2.1704  0.6117 -1.2906
 7104TIP3   OH242802   2.897   6.556  17.236 -0.2516 -0.4722 -0.1754
 7104TIP3    H142803   2.911   6.563  17.331  2.9951 -1.8990 -0.3822
 7104TIP3    H242804   2.969   6.607  17.198 -1.2744 -0.2440 -1.8899
 7105TIP3   OH242805   4.923   2.903  12.512 -0.3304  0.3274 -0.1323
 7105TIP3    H142806   4.942   2.990  12.547  1.1465 -0.0325  0.0538
 7105TIP3    H242807   4.957   2.905  12.423 -0.7086  0.0783 -0.2858
 7106TIP3   OH242808   6.090   6.105   0.078  0.2588 -0.6440  0.4230
 7106TIP3    H142809   6.081   6.165   0.151  0.0492 -0.6607  0.4117
 7106TIP3    H242810   6.073   6.158   0.000  2.2816 -0.1785  0.2283
 7107TIP3   OH242811   2.633   6.424  15.533  0.2417  0.0967 -0.4706
 7107TIP3    H142812   2.620   6.418  15.439 -0.0967  0.5883 -0.4641
 7107TIP3    H242813   2.724   6.450  15.544  0.1165  0.6441 -0.6924
 7108TIP3   OH242814   4.849   1.060  12.121 -0.1548 -0.6890  0.1279
 7108TIP3    H142815   4.824   1.152  12.137  2.0945 -0.0542  0.2794
 7108TIP3    H242816   4.906   1.064  12.045 -0.8920 -2.1517 -0.5404
 7109TIP3   OH242817   4.815   2.914   2.526 -0.1828  0.2951 -0.1667
 7109TIP3    H142818   4.877   2.846   2.501 -1.4167 -1.0541  0.3126
 7109TIP3    H242819   4.787   2.890   2.614 -0.8660  1.2632 -0.1023
 7110TIP3   OH242820   1.249   5.417  16.153 -0.5435  0.0218  0.2260
 7110TIP3    H142821   1.172   5.471  16.133 -1.1361 -1.2792 -1.2541
 7110TIP3    H242822   1.213   5.334  16.184  0.3216 -0.0651  1.0417
 7111TIP3   OH242823   5.146   1.033   4.976 -0.0873 -0.6703 -0.2043
 7111TIP3    H142824   5.158   1.081   4.894 -0.9616 -1.7029 -0.9715
 7111TIP3    H242825   5.108   1.097   5.036  0.9298  0.2033 -0.4696
 7112TIP3   OH242826   1.342   2.679  13.340  0.1630 -0.1010  0.7045
 7112TIP3    H142827   1.261   2.687  13.390 -0.4666 -1.2310 -0.0981
 7112TIP3    H242828   1.336   2.747  13.273  0.8027  1.1143  1.8291
 7113TIP3   OH242829   5.061   0.065   3.753  0.3772 -0.7421  0.2148
 7113TIP3    H142830   5.119   0.140   3.740 -0.9393  0.1526 -0.9630
 7113TIP3    H242831   5.059   0.021   3.668  0.1035 -1.3247  0.5169
 7114TIP3   OH242832   2.945   4.547  11.011  0.5717 -0.7434  0.3171
 7114TIP3    H142833   2.855   4.543  11.043  0.7913 -0.4456  0.9740
 7114TIP3    H242834   2.941   4.607  10.937  1.0639  3.4295  3.3404
 7115TIP3   OH242835   1.887   0.818  12.221 -0.3085 -0.6467 -0.1188
 7115TIP3    H142836   1.836   0.740  12.241 -2.2518 -0.0713 -2.3430
 7115TIP3    H242837   1.821   0.887  12.210  1.2160  0.8865 -0.0020
 7116TIP3   OH242838   5.886   3.065  16.220 -0.7747 -0.4138 -0.4837
 7116TIP3    H142839   5.961   3.018  16.256 -0.7612 -1.0282 -1.2778
 7116TIP3    H242840   5.907   3.157  16.233 -0.3585 -0.6038  0.2299
 7117TIP3   OH242841   1.404   3.087  17.254  0.4737 -0.2573  0.2208
 7117TIP3    H142842   1.446   3.020  17.199  0.4694 -0.1163  0.0444
 7117TIP3    H242843   1.475   3.147  17.278 -0.0119  1.3570 -2.0809
 7118TIP3   OH242844   3.416   0.963  15.235  0.1324 -0.4700 -0.4876
 7118TIP3    H142845   3.399   0.916  15.317  2.1891 -0.4238  0.0409
 7118TIP3    H242846   3.483   0.910  15.191  0.1662  0.3156 -1.4017
 7119TIP3   OH242847   0.814   2.283  12.222 -0.3505 -0.0640  0.1346
 7119TIP3    H142848   0.795   2.368  12.180 -0.5585  0.5339  1.3951
 7119TIP3    H242849   0.860   2.233  12.155 -0.9716  0.7339 -0.9272
 7120TIP3   OH242850   4.034   3.331   1.959  0.0400  0.9985  0.7608
 7120TIP3    H142851   3.965   3.384   1.998 -0.5697  1.3098 -0.6662
 7120TIP3    H242852   4.103   3.393   1.936  0.5693  0.7646  1.6545
 7121TIP3   OH242853   3.666   1.972  13.513  1.0068 -0.5578 -0.0116
 7121TIP3    H142854   3.611   1.926  13.451 -1.3986  1.0025  0.8231
 7121TIP3    H242855   3.626   1.955  13.598  1.4158  1.1164  0.5577
 7122TIP3   OH242856   3.180   0.169   2.464  0.4377  0.2034  0.7416
 7122TIP3    H142857   3.106   0.160   2.524  0.5804 -3.2746  0.6069
 7122TIP3    H242858   3.146   0.221   2.392 -1.5272 -0.2922  1.2329
 7123TIP3   OH242859   0.952   5.571  11.574 -0.1924  0.5159  0.1296
 7123TIP3    H142860   0.887   5.507  11.603  0.2786  0.3364  0.8164
 7123TIP3    H242861   0.964   5.553  11.481  0.5020 -0.9049  0.4721
 7124TIP3   OH242862   1.046   5.611   3.921 -0.9977  0.3292 -0.1378
 7124TIP3    H142863   0.990   5.677   3.962  0.4275  0.9776  0.8259
 7124TIP3    H242864   1.118   5.660   3.883 -0.3856 -0.6035 -0.2121
 7125TIP3   OH242865   1.456   5.808  12.320 -0.1051  0.0343  0.0270
 7125TIP3    H142866   1.405   5.867  12.375 -0.8355 -1.3578  0.9213
 7125TIP3    H242867   1.465   5.854  12.236 -0.5172  1.4421  0.7320
 7126TIP3   OH242868   2.904   3.324   2.379 -0.3269 -0.3341  0.2085
 7126TIP3    H142869   2.874   3.372   2.457  2.4488 -0.4054  1.4326
 7126TIP3    H242870   2.894   3.385   2.307 -3.9808 -0.6158  0.3069
 7127TIP3   OH242871   2.909   0.750  15.629  0.2514 -0.3270 -0.3396
 7127TIP3    H142872   2.948   0.668  15.660 -1.9573 -0.8585  1.3598
 7127TIP3    H242873   2.887   0.733  15.538  1.1224 -1.1189 -0.4126
 7128TIP3   OH242874   0.564   6.351  15.038 -0.1252  0.4040 -0.1593
 7128TIP3    H142875   0.615   6.318  14.965  0.6423  0.0254  0.5249
 7128TIP3    H242876   0.474   6.326  15.018  0.2638 -1.0126 -0.2823
 7129TIP3   OH242877   1.785   3.464  12.962  0.1354  0.0415 -0.3615
 7129TIP3    H142878   1.697   3.431  12.943 -0.8721  1.9146  0.7094
 7129TIP3    H242879   1.824   3.398  13.019 -0.2460 -1.2030 -1.4865
 7130TIP3   OH242880   1.687   5.784   4.436 -0.3212 -0.6364  0.8798
 7130TIP3    H142881   1.680   5.783   4.532  0.7972 -0.8178  0.9755
 7130TIP3    H242882   1.601   5.815   4.406 -0.7510 -0.7648  1.9295
 7131TIP3   OH242883   4.540   1.978  14.445 -0.0552  0.3363 -0.4740
 7131TIP3    H142884   4.477   1.999  14.377 -0.7451  1.3103  0.4171
 7131TIP3    H242885   4.619   1.951  14.398 -0.6517  0.5525 -1.6325
 7132TIP3   OH242886   5.428   2.042  15.180  0.1364  0.3242 -0.6757
 7132TIP3    H142887   5.423   2.006  15.092 -1.7927 -3.6580  0.7940
 7132TIP3    H242888   5.512   2.010  15.214  0.4895  1.1374 -0.7554
 7133TIP3   OH242889   5.275   2.625   1.016  0.3948  0.0068  0.2723
 7133TIP3    H142890   5.308   2.543   0.980  0.8105  0.5367 -0.5715
 7133TIP3    H242891   5.292   2.618   1.110  3.2056  0.3503 -0.1204
 7134TIP3   OH242892   4.677   5.949  12.489 -0.3521  0.3118  0.0847
 7134TIP3    H142893   4.726   5.972  12.569  0.7588 -1.1087 -0.1510
 7134TIP3    H242894   4.618   6.024  12.475 -0.5168  0.6417  2.1796
 7135TIP3   OH242895   5.851   3.922  12.403 -0.1858  0.2990 -0.5680
 7135TIP3    H142896   5.807   3.837  12.399 -1.9286  1.1848 -1.4739
 7135TIP3    H242897   5.940   3.902  12.432 -0.8947 -1.6984  0.4284
 7136TIP3   OH242898   4.526   5.218  14.999  0.1481  0.1839  0.1326
 7136TIP3    H142899   4.567   5.144  14.954  0.6890 -0.4189  1.5529
 7136TIP3    H242900   4.460   5.250  14.937  0.6971 -0.7410 -0.9801
 7137TIP3   OH242901   5.953   0.850  13.799  0.0031  0.0422  0.0319
 7137TIP3    H142902   6.005   0.894  13.865 -0.5347  2.3901 -1.0265
 7137TIP3    H242903   5.880   0.810  13.847  0.5857  0.1670  1.0289
 7138TIP3   OH242904   5.531   5.202   0.685  0.4762  0.7234 -0.3305
 7138TIP3    H142905   5.467   5.272   0.673 -1.3654 -0.9505 -0.7794
 7138TIP3    H242906   5.532   5.156   0.601 -0.6914 -1.6272  0.8589
 7139TIP3   OH242907   5.908   2.607  16.688 -0.2307  0.3823 -0.0148
 7139TIP3    H142908   5.893   2.609  16.593 -0.3694 -0.1078 -0.0076
 7139TIP3    H242909   5.844   2.668  16.723  1.2343  2.2318 -0.3982
 7140TIP3   OH242910   2.241   1.500  11.194  0.3524  0.0553  0.0243
 7140TIP3    H142911   2.289   1.520  11.275  0.2827  0.3850 -0.0168
 7140TIP3    H242912   2.213   1.585  11.161 -0.5660 -0.1611  0.2322
 7141TIP3   OH242913   5.185   5.936   2.087 -0.1947  0.5324 -0.2102
 7141TIP3    H142914   5.092   5.942   2.109 -0.2732 -0.5762 -0.1934
 7141TIP3    H242915   5.229   5.990   2.153 -0.7538  0.2881  0.3736
 7142TIP3   OH242916   2.813   3.243   3.468  0.1966  0.5199  0.0192
 7142TIP3    H142917   2.737   3.218   3.521 -1.5219 -2.3973 -3.3662
 7142TIP3    H242918   2.811   3.339   3.467 -0.7197  0.6827  3.5110
 7143TIP3   OH242919   4.459   4.222  17.177  0.1030  0.1853 -0.7714
 7143TIP3    H142920   4.540   4.245  17.222 -0.8098 -1.4976  1.9860
 7143TIP3    H242921   4.485   4.158  17.111  0.9684 -1.2052  0.8418
 7144TIP3   OH242922   1.497   2.599   2.999 -0.0516  0.4796  1.0391
 7144TIP3    H142923   1.582   2.643   3.010 -1.5874  4.0112  0.1410
 7144TIP3    H242924   1.432   2.667   3.016 -2.6658 -0.4828 -3.4985
 7145TIP3   OH242925   6.312   0.657   5.107 -0.1149  0.4500  0.5605
 7145TIP3    H142926   6.306   0.592   5.178  0.4349 -0.0722  0.1404
 7145TIP3    H242927   6.255   0.728   5.135 -0.4780 -0.0734  1.1895
 7146TIP3   OH242928   6.491   4.482  15.300  0.3015  0.1098 -0.3648
 7146TIP3    H142929   6.541   4.536  15.362 -1.7521  1.4745  0.2100
 7146TIP3    H242930   6.452   4.414  15.355 -0.1758  0.3285 -0.4273
 7147TIP3   OH242931   2.913   1.795  14.291  0.1074  0.5022 -0.1451
 7147TIP3    H142932   2.971   1.822  14.362  0.1264  2.0950 -0.7050
 7147TIP3    H242933   2.910   1.872  14.233 -0.1386 -0.6446 -1.7120
 7148TIP3   OH242934   6.150   3.620  12.612 -0.5539 -0.2777 -0.6071
 7148TIP3    H142935   6.210   3.660  12.674 -0.9052 -0.0911 -0.3840
 7148TIP3    H242936   6.206   3.572  12.551 -0.0615  1.2530 -1.4084
 7149TIP3   OH242937   1.273   0.650   3.447  0.4086  0.1736  0.2428
 7149TIP3    H142938   1.338   0.636   3.378 -1.3901 -0.2094 -1.4621
 7149TIP3    H242939   1.265   0.745   3.452 -0.2497  0.1899 -0.8951
 7150TIP3   OH242940   5.637   2.125   4.676  0.1215  0.3412  0.6608
 7150TIP3    H142941   5.580   2.064   4.722  1.0746 -0.8336  0.3474
 7150TIP3    H242942   5.591   2.145   4.595  1.4443 -3.1890 -1.1836
 7151TIP3   OH242943   3.417   6.584   0.329 -0.1897  0.9701 -0.2183
 7151TIP3    H142944   3.336   6.593   0.280 -0.7728  0.9906  0.7110
 7151TIP3    H242945   3.394   6.526   0.403  0.1629  2.3552  1.0275
 7152TIP3   OH242946   2.907   0.527  11.908  0.3891  0.2000 -0.3179
 7152TIP3    H142947   2.949   0.491  11.830 -0.8003 -1.2040 -0.3563
 7152TIP3    H242948   2.969   0.593  11.941  1.1964  0.3815 -2.0722
 7153TIP3   OH242949   3.840   2.483   1.657  0.2870 -0.2067 -0.5065
 7153TIP3    H142950   3.807   2.394   1.650 -1.0137  0.2922 -1.0855
 7153TIP3    H242951   3.935   2.475   1.650  0.1430 -1.4728 -1.2155
 7154TIP3   OH242952   6.679   5.666   1.706  0.0863 -0.0746  0.5543
 7154TIP3    H142953   6.750   5.711   1.660 -0.8745  0.9053 -0.0230
 7154TIP3    H242954   6.712   5.654   1.795  1.1984 -0.1853  0.1432
 7155TIP3   OH242955   3.442   5.785  15.256  0.0887 -0.0906  0.2377
 7155TIP3    H142956   3.460   5.692  15.268  1.6452 -0.3768 -3.1973
 7155TIP3    H242957   3.380   5.788  15.183 -0.4378  1.5696  0.7063
 7156TIP3   OH242958   6.181   6.815  11.313 -0.3501  0.6722  0.1550
 7156TIP3    H142959   6.226   6.732  11.298 -1.7399 -0.2996  1.1087
 7156TIP3    H242960   6.150   6.842  11.226 -2.3414 -1.3144  0.1594
 7157TIP3   OH242961   0.383   5.186  16.662 -0.3008 -0.1423 -0.2524
 7157TIP3    H142962   0.374   5.092  16.653 -0.2199 -0.5008  2.5689
 7157TIP3    H242963   0.469   5.199  16.701  0.4238  1.2818 -2.1453
 7158TIP3   OH242964   4.228   1.251  11.666  0.6289 -0.3529 -0.6848
 7158TIP3    H142965   4.216   1.170  11.616 -2.2191 -0.9941  0.7668
 7158TIP3    H242966   4.242   1.221  11.756  1.1867  0.7603 -0.3922
 7159TIP3   OH242967   2.102   3.126  12.133 -0.4799 -0.1918  0.0134
 7159TIP3    H142968   2.019   3.153  12.094 -0.6748 -0.4858  0.2117
 7159TIP3    H242969   2.091   3.144  12.227 -0.2994 -0.1834  0.0339
 7160TIP3   OH242970   4.306   0.578   1.008  0.4289 -0.1938 -0.0459
 7160TIP3    H142971   4.234   0.575   0.945  1.0241 -1.2738 -0.7010
 7160TIP3    H242972   4.371   0.636   0.967  1.5521 -2.2224 -1.2892
 7161TIP3   OH242973   5.696   4.284  12.829 -0.4746  0.3511  0.1266
 7161TIP3    H142974   5.673   4.192  12.814 -0.1486  0.0862  1.2076
 7161TIP3    H242975   5.671   4.328  12.747  1.0738 -0.9945 -1.1358
 7162TIP3   OH242976   4.328   2.907  16.982  0.1483 -0.1491  0.3347
 7162TIP3    H142977   4.422   2.913  17.000  0.5019 -2.3887 -0.5130
 7162TIP3    H242978   4.290   2.876  17.063  0.0746  0.9511  0.7430
 7163TIP3   OH242979   1.433   5.669  14.782  0.3151 -0.5223  0.1227
 7163TIP3    H142980   1.409   5.605  14.850 -1.8223  0.4440  0.3610
 7163TIP3    H242981   1.390   5.636  14.703  2.0078 -1.1255 -0.6006
 7164TIP3   OH242982   5.231   2.894   0.986 -0.8876 -0.2951  0.5374
 7164TIP3    H142983   5.307   2.947   1.012 -1.1097  1.2183 -1.6024
 7164TIP3    H242984   5.258   2.804   1.004  2.0680  0.0344 -1.4346
 7165TIP3   OH242985   1.352   3.626  12.253  0.3928  0.1073  0.1853
 7165TIP3    H142986   1.395   3.573  12.320  1.0119 -0.0141 -0.3015
 7165TIP3    H242987   1.405   3.613  12.174 -0.5678 -0.0767 -0.4366
 7166TIP3   OH242988   6.294   6.307   3.267 -0.7173  0.1022  0.5294
 7166TIP3    H142989   6.345   6.263   3.198 -0.2106 -0.8964  1.5025
 7166TIP3    H242990   6.242   6.372   3.220 -0.4238 -0.5740 -0.8085
 7167TIP3   OH242991   0.811   4.799  16.345 -0.2238 -0.5684  0.3897
 7167TIP3    H142992   0.737   4.798  16.285 -0.8860  0.8464  1.1183
 7167TIP3    H242993   0.804   4.884  16.389  2.2221 -0.1203  0.0162
 7168TIP3   OH242994   4.536   5.939   3.275  0.4795  0.1216  1.1783
 7168TIP3    H142995   4.550   5.859   3.326 -0.9775 -0.3323  0.9137
 7168TIP3    H242996   4.441   5.952   3.277  0.1747 -0.5499 -2.3209
 7169TIP3   OH242997   5.687   1.027  13.983  0.0543  0.7585  0.1088
 7169TIP3    H142998   5.702   0.936  13.955  0.4432  0.8598 -0.0143
 7169TIP3    H242999   5.703   1.026  14.077  0.9740  0.8923 -0.0415
 7170TIP3   OH243000   4.100   2.761  13.562  0.6131 -0.4643  0.3339
 7170TIP3    H143001   4.140   2.732  13.644  1.8651  0.7496  0.1941
 7170TIP3    H243002   4.141   2.846  13.544  1.9207 -1.5886 -2.6004
 7171TIP3   OH243003   1.120   2.528   2.533 -0.5706 -0.3587 -0.2276
 7171TIP3    H143004   1.089   2.603   2.585  1.6665  0.4423  0.0358
 7171TIP3    H243005   1.050   2.463   2.543 -1.8484  1.0802  0.8571
 7172TIP3   OH243006   3.657   4.845   5.973  0.2275  0.3883  0.1466
 7172TIP3    H143007   3.730   4.906   5.972 -0.3596  1.1074 -1.0061
 7172TIP3    H243008   3.660   4.802   5.887  0.8747 -1.5456  1.0685
 7173TIP3   OH243009   5.862   1.473   3.436  0.2739 -0.4862  0.6294
 7173TIP3    H143010   5.814   1.556   3.431  0.9547 -0.0064  1.7780
 7173TIP3    H243011   5.802   1.414   3.482 -0.3521 -0.7535 -0.4969
 7174TIP3   OH243012   6.526   0.567   3.474 -0.5020  0.5837  0.7264
 7174TIP3    H143013   6.540   0.483   3.431  0.8756  0.2302  1.7969
 7174TIP3    H243014   6.589   0.568   3.546 -2.7664  1.0652  2.8433
 7175TIP3   OH243015   2.170   5.641   0.163  0.6740 -0.0726 -0.2379
 7175TIP3    H143016   2.203   5.625   0.251 -0.8782  1.3390  0.6826
 7175TIP3    H243017   2.192   5.733   0.146  1.8583 -0.6050 -1.7794
 7176TIP3   OH243018   5.833   0.775   4.366 -0.1924  0.1154  0.0445
 7176TIP3    H143019   5.860   0.741   4.451  1.6152  1.4233  0.0594
 7176TIP3    H243020   5.807   0.866   4.384 -1.3086 -0.0621 -0.5725
 7177TIP3   OH243021   1.424   0.804  11.214 -0.4166 -0.6280 -0.1405
 7177TIP3    H143022   1.369   0.876  11.245  1.8626  0.5964  1.3203
 7177TIP3    H243023   1.483   0.845  11.151  0.6577 -1.2744  0.4139
 7178TIP3   OH243024   5.720   1.414  12.116  0.0271  0.0337 -0.2660
 7178TIP3    H143025   5.654   1.445  12.177 -0.9069 -3.2471  0.5796
 7178TIP3    H243026   5.671   1.395  12.035  0.6596  1.1480 -0.9373
 7179TIP3   OH243027   6.641   6.357   1.361 -0.3954 -0.8689 -0.7703
 7179TIP3    H143028   6.567   6.334   1.417  0.0353 -1.8790 -0.6131
 7179TIP3    H243029   6.636   6.295   1.288  1.1270 -1.9006 -0.0340
 7180TIP3   OH243030   2.889   3.192  12.224 -0.3960 -0.3674  0.6935
 7180TIP3    H143031   2.807   3.145  12.243  0.2813 -0.6362  3.3939
 7180TIP3    H243032   2.957   3.141  12.269  1.1448  0.3514 -0.7316
 7181TIP3   OH243033   2.829   6.159   2.088  0.7349 -0.6969 -0.1275
 7181TIP3    H143034   2.843   6.222   2.158  1.8740  3.2350 -3.5059
 7181TIP3    H243035   2.737   6.169   2.063  1.3483  1.3369 -1.9149
 7182TIP3   OH243036   3.012   6.521  10.626 -0.2442  0.0558  0.1702
 7182TIP3    H143037   3.082   6.546  10.566  0.1381 -0.0289  0.5760
 7182TIP3    H243038   3.008   6.425  10.621 -3.5359  0.1410 -3.4630
 7183TIP3   OH243039   1.814   1.270   6.159  0.8042 -0.7557  0.6293
 7183TIP3    H143040   1.835   1.348   6.210  0.5497 -0.2384 -0.0405
 7183TIP3    H243041   1.899   1.232   6.137  0.9456 -0.4346  0.6088
 7184TIP3   OH243042   0.805   3.379   1.308 -0.4205  0.2775 -0.2720
 7184TIP3    H143043   0.730   3.371   1.367 -0.9099  2.9560 -0.4180
 7184TIP3    H243044   0.790   3.313   1.240 -2.1082  0.0891  0.2512
 7185TIP3   OH243045   2.508   1.157  12.073  0.2522 -0.1322  0.2667
 7185TIP3    H143046   2.522   1.081  12.129 -2.1068  0.7768  2.2812
 7185TIP3    H243047   2.589   1.207  12.079  1.0681 -1.4396  0.5649
 7186TIP3   OH243048   1.555   4.411  17.268  0.3930  0.0447 -0.1512
 7186TIP3    H143049   1.582   4.320  17.279 -0.9098 -0.3497  0.0147
 7186TIP3    H243050   1.607   4.460  17.332  1.2978 -0.5263 -0.4280
 7187TIP3   OH243051   4.708   6.225   2.248 -0.2270 -0.0391 -0.4233
 7187TIP3    H143052   4.760   6.197   2.172 -1.6516  1.9015 -2.2537
 7187TIP3    H243053   4.770   6.225   2.321  1.8742  0.3741 -2.1010
 7188TIP3   OH243054   3.631   2.766   0.725 -0.2729  0.1439  0.3815
 7188TIP3    H143055   3.719   2.745   0.755  0.0745  2.4342  1.1755
 7188TIP3    H243056   3.595   2.822   0.793 -1.8667  0.2845 -0.5256
 7189TIP3   OH243057   3.112   2.666   6.041 -0.5243 -0.0195  0.3063
 7189TIP3    H143058   3.058   2.587   6.034 -1.9611  1.0267 -1.5772
 7189TIP3    H243059   3.084   2.720   5.967  1.5175  1.6003  0.6241
 7190TIP3   OH243060   1.261   4.226   4.922  0.6585 -0.1734 -0.0616
 7190TIP3    H143061   1.169   4.244   4.906  0.3609 -0.1434  1.5205
 7190TIP3    H243062   1.292   4.186   4.841 -1.0920 -1.4844 -0.1410
 7191TIP3   OH243063   0.652   2.599   0.903 -0.1777 -0.0816 -0.4140
 7191TIP3    H143064   0.728   2.546   0.879  0.4756  0.6243  0.0761
 7191TIP3    H243065   0.685   2.688   0.908 -0.3078 -0.0971  2.7389
 7192TIP3   OH243066   0.044   4.306  14.674 -0.4314  0.5284 -0.4036
 7192TIP3    H143067  -0.009   4.367  14.727 -1.5677 -0.3414 -0.4932
 7192TIP3    H243068   0.089   4.252  14.739 -2.5762 -1.1821 -0.2389
 7193TIP3   OH243069   1.620   3.996  10.876  0.1970  0.2325  0.9642
 7193TIP3    H143070   1.600   4.064  10.811  0.1677  0.9461  1.7112
 7193TIP3    H243071   1.716   3.995  10.880  0.3034 -1.4042 -0.7363
 7194TIP3   OH243072   6.132   1.635  12.879 -0.2350  0.1928  0.4957
 7194TIP3    H143073   6.126   1.653  12.785 -1.0027  0.0848  0.5197
 7194TIP3    H243074   6.181   1.552  12.884  3.2871  2.0608  0.3823
 7195TIP3   OH243075   5.256   4.741  15.488 -0.1798  0.0178 -0.3624
 7195TIP3    H143076   5.230   4.649  15.487 -0.7704  0.1761 -1.3961
 7195TIP3    H243077   5.346   4.740  15.453  0.5031 -0.3235  1.3093
 7196TIP3   OH243078   2.725   5.923   3.775 -0.0379 -0.3870  0.4445
 7196TIP3    H143079   2.774   5.866   3.715 -1.1229 -1.7830  0.8283
 7196TIP3    H243080   2.718   6.006   3.728 -1.0844 -1.5022 -1.5386
 7197TIP3   OH243081   4.393   4.854  15.158  0.1402  0.2440 -0.3541
 7197TIP3    H143082   4.421   4.774  15.115  0.2317  1.0517 -1.8648
 7197TIP3    H243083   4.326   4.891  15.100  0.1497  1.2994  0.2684
 7198TIP3   OH243084   0.102   4.340  13.818  0.2918  0.6549 -0.0964
 7198TIP3    H143085   0.128   4.344  13.910  0.4704 -2.3415  0.1130
 7198TIP3    H243086   0.017   4.295  13.820  0.3528  0.4479 -1.3696
 7199TIP3   OH243087   6.700   4.633   4.720 -0.1619  0.5544  0.2658
 7199TIP3    H143088   6.764   4.682   4.772  0.0321  1.3904 -0.7429
 7199TIP3    H243089   6.735   4.633   4.631 -0.1368 -1.4733  0.2297
 7200TIP3   OH243090   0.729   6.584   2.047 -0.3758 -0.3883 -0.3254
 7200TIP3    H143091   0.818   6.548   2.041 -0.3130 -0.3991  0.5204
 7200TIP3    H243092   0.718   6.635   1.967  0.2216 -0.7678 -0.6573
 7201TIP3   OH243093   4.920   4.918  14.905  0.2179 -0.7823 -0.3650
 7201TIP3    H143094   4.894   4.986  14.843 -0.4966  0.5539  1.2841
 7201TIP3    H243095   4.997   4.877  14.866  3.0202  3.4559  0.1064
 7202TIP3   OH243096   3.723   0.599  15.670 -0.0198 -0.5910 -0.1809
 7202TIP3    H143097   3.801   0.559  15.632 -0.5934  0.5302 -2.7609
 7202TIP3    H243098   3.664   0.526  15.686  0.6184 -1.2130 -0.5793
 7203TIP3   OH243099   0.669   3.290  13.420  0.0942  0.4204 -0.4831
 7203TIP3    H143100   0.649   3.348  13.347 -0.6673  1.5536  0.5832
 7203TIP3    H243101   0.746   3.241  13.392 -1.8176 -1.2624 -3.1912
 7204TIP3   OH243102   4.679   6.402   0.105 -0.2947  0.3331 -0.6087
 7204TIP3    H143103   4.628   6.413   0.186  0.5536 -0.8042  0.1217
 7204TIP3    H243104   4.639   6.462   0.043 -0.4007  1.9514  0.9230
 7205TIP3   OH243105   2.560   2.209   3.126  0.1596  0.7956  0.0355
 7205TIP3    H143106   2.485   2.218   3.184 -1.1303  0.8975 -1.5757
 7205TIP3    H243107   2.549   2.123   3.084  1.1711  0.6314  0.0627
 7206TIP3   OH243108   2.723   5.985  12.130  0.0542  0.3132 -0.4924
 7206TIP3    H143109   2.700   5.954  12.217  0.9954  1.9783  0.3927
 7206TIP3    H243110   2.698   5.913  12.071  0.5938 -1.3665  1.2472
 7207TIP3   OH243111   4.302   2.523   0.276 -0.3575 -0.2398  0.0869
 7207TIP3    H143112   4.256   2.597   0.315 -2.1036  0.1250 -2.3875
 7207TIP3    H243113   4.340   2.476   0.350 -1.1342  1.8434  1.9205
 7208TIP3   OH243114   1.054   0.062   4.475  0.2803 -0.4201 -0.4034
 7208TIP3    H143115   1.056   0.008   4.554 -0.8423  0.8072  0.5163
 7208TIP3    H243116   1.118   0.132   4.491  0.5302 -0.5365 -0.8730
 7209TIP3   OH243117   6.327   2.139  10.944  0.2629 -0.3913  0.6432
 7209TIP3    H143118   6.332   2.068  10.881  0.3123 -2.0388  2.3977
 7209TIP3    H243119   6.402   2.195  10.923  0.1642 -0.7951 -0.8435
 7210TIP3   OH243120   5.370   2.134  15.970 -0.2678  0.5259 -0.2158
 7210TIP3    H143121   5.410   2.212  16.008 -0.4517  1.7135 -2.2598
 7210TIP3    H243122   5.291   2.167  15.926 -1.4494 -1.1575  0.5337
 7211TIP3   OH243123   6.163   1.197  17.071 -0.3165  0.1646 -0.3863
 7211TIP3    H143124   6.087   1.175  17.017 -0.7303  1.5139 -0.3892
 7211TIP3    H243125   6.133   1.266  17.129  0.8559  0.5934 -0.2530
 7212TIP3   OH243126   4.610   4.685   5.027 -0.4820  0.2301 -0.5309
 7212TIP3    H143127   4.607   4.769   4.980 -1.1626  0.1903 -0.5635
 7212TIP3    H243128   4.671   4.700   5.099  0.6483  0.2749 -1.4677
 7213TIP3   OH243129   5.990   2.383  15.419 -0.1653 -0.3912 -0.0509
 7213TIP3    H143130   5.924   2.316  15.434 -2.3801  1.7379  0.2890
 7213TIP3    H243131   6.074   2.336  15.423 -1.3581 -2.6289  3.4101
 7214TIP3   OH243132   4.433   6.016  16.163 -0.8578  0.4370  0.1843
 7214TIP3    H143133   4.484   6.033  16.084  1.1079  0.8915  1.4682
 7214TIP3    H243134   4.410   6.103  16.196 -2.1991  0.2385 -0.1921
 7215TIP3   OH243135   3.960   4.969   0.515 -0.4607 -0.2777  0.0905
 7215TIP3    H143136   4.000   4.972   0.601 -2.3099  0.6677  0.9833
 7215TIP3    H243137   3.934   4.877   0.504 -1.2669 -0.1865  1.0805
 7216TIP3   OH243138   4.911   4.944   4.104 -0.1548  0.0055 -0.4664
 7216TIP3    H143139   4.891   4.877   4.039  0.9691 -3.1786  2.2130
 7216TIP3    H243140   4.873   4.911   4.185 -0.2003  3.0538  0.9003
 7217TIP3   OH243141   2.159   5.817   5.577 -0.1644 -0.4677 -0.3012
 7217TIP3    H143142   2.184   5.814   5.670  1.3908 -0.3975 -0.6812
 7217TIP3    H243143   2.169   5.727   5.546  0.4093 -0.2900 -0.6493
 7218TIP3   OH243144   3.745   1.262  13.408 -0.1415  0.2606  0.0347
 7218TIP3    H143145   3.737   1.168  13.393 -0.8051 -0.1098  2.2797
 7218TIP3    H243146   3.764   1.270  13.501 -1.0858  2.3757  0.1173
 7219TIP3   OH243147   2.636   4.593  16.238  0.1332 -0.1910 -0.3637
 7219TIP3    H143148   2.601   4.676  16.207  0.0706  0.0475  0.3342
 7219TIP3    H243149   2.726   4.590  16.204 -0.6331 -0.9969 -2.5326
 7220TIP3   OH243150   2.478   1.640  12.245  0.1723 -0.9256 -0.3793
 7220TIP3    H143151   2.395   1.685  12.228  0.2766 -1.3089 -1.9957
 7220TIP3    H243152   2.524   1.642  12.162  0.4713 -3.4277 -0.3415
 7221TIP3   OH243153   0.840   0.630  16.881 -0.1062  0.0933  0.2668
 7221TIP3    H143154   0.930   0.623  16.913 -0.3028 -2.3712  0.4739
 7221TIP3    H243155   0.835   0.567  16.809 -1.0961  1.8078 -1.2565
 7222TIP3   OH243156   0.921   0.239   2.990 -0.4374  0.2576 -0.0836
 7222TIP3    H143157   0.908   0.287   2.908  0.8724 -1.2035 -1.2262
 7222TIP3    H243158   0.845   0.261   3.043 -0.5045  2.5664 -1.0058
 7223TIP3   OH243159   1.757   5.062   2.113  0.1653  0.3244 -0.1991
 7223TIP3    H143160   1.835   5.117   2.102 -0.0013  0.2930 -1.8156
 7223TIP3    H243161   1.791   4.973   2.118  0.2804  0.3702 -0.1635
 7224TIP3   OH243162   3.626   2.001   3.895 -0.2047  0.0629  0.3192
 7224TIP3    H143163   3.594   2.085   3.863  1.9769  1.4658  1.5791
 7224TIP3    H243164   3.720   2.014   3.909  0.8586 -3.4600 -2.1147
 7225TIP3   OH243165   3.929   2.264   1.860  0.1121  0.5046 -0.4396
 7225TIP3    H143166   3.861   2.247   1.794 -0.6485  1.9351 -0.0589
 7225TIP3    H243167   3.886   2.320   1.924  0.9657 -0.5203  1.0782
 7226TIP3   OH243168   6.663   2.634   6.701 -0.2245 -0.3797 -0.4020
 7226TIP3    H143169   6.724   2.695   6.743 -0.1867  0.4910 -1.6638
 7226TIP3    H243170   6.577   2.672   6.716 -0.1659  0.2994 -1.6133
 7227TIP3   OH243171   2.069   5.686   6.571 -0.3681  0.1123  0.1167
 7227TIP3    H143172   2.152   5.646   6.543 -0.0117  0.3521  0.7924
 7227TIP3    H243173   2.063   5.665   6.664 -0.6956  0.7380  0.2413
 7228TIP3   OH243174   2.372   0.865  11.668 -0.0236  0.3689 -0.3434
 7228TIP3    H143175   2.427   0.787  11.660  0.4112  0.7870 -1.6130
 7228TIP3    H243176   2.293   0.843  11.618 -0.5584  0.1954  0.5479
 7229TIP3   OH243177   6.792   3.082   1.843 -0.5099 -0.7755  0.3459
 7229TIP3    H143178   6.761   3.161   1.888 -0.9423 -0.7860  0.0679
 7229TIP3    H243179   6.790   3.014   1.911  1.0106 -0.3018  0.9163
 7230TIP3   OH243180   0.509   3.407   1.723 -0.5410  0.5117 -0.0644
 7230TIP3    H143181   0.492   3.414   1.817 -0.7248  0.3145 -0.0812
 7230TIP3    H243182   0.424   3.419   1.683 -0.2520  1.9541 -0.2814
 7231TIP3   OH243183   0.254   2.750   2.135 -0.4386  0.4176  0.2978
 7231TIP3    H143184   0.278   2.827   2.084 -0.2560 -0.5963 -1.2154
 7231TIP3    H243185   0.290   2.766   2.222 -1.2989  2.4841  0.3218
 7232TIP3   OH243186   0.833   2.151   1.600  0.6202 -0.1329 -0.2623
 7232TIP3    H143187   0.815   2.245   1.610  0.8179 -0.1914  0.7894
 7232TIP3    H243188   0.824   2.116   1.689 -2.1096 -1.6092 -1.0056
 7233TIP3   OH243189   6.355   2.658  16.154 -0.5751  0.6025 -0.4134
 7233TIP3    H143190   6.389   2.683  16.067  1.2590 -0.4853 -0.0748
 7233TIP3    H243191   6.331   2.566  16.144  2.5056 -0.4878  0.8975
 7234TIP3   OH243192   4.370   2.843  15.298  0.0497 -0.0919  0.5971
 7234TIP3    H143193   4.342   2.792  15.374 -0.0055 -0.8971  0.0516
 7234TIP3    H243194   4.465   2.848  15.305  0.0364 -0.0956  0.7707
 7235TIP3   OH243195   2.697   1.761   0.394  0.0411  0.0225  0.5553
 7235TIP3    H143196   2.636   1.799   0.456  0.4811  1.2572  0.2513
 7235TIP3    H243197   2.684   1.810   0.313 -0.8981 -1.9013 -0.5420
 7236TIP3   OH243198   1.185   1.560   4.057 -0.9462  0.0727 -0.0866
 7236TIP3    H143199   1.104   1.579   4.104 -1.4097 -0.7091 -0.5378
 7236TIP3    H243200   1.183   1.465   4.045 -0.9469  0.2682 -1.8542
 7237TIP3   OH243201   4.842   2.906   4.486 -0.1222  0.3593  0.1315
 7237TIP3    H143202   4.917   2.935   4.538 -0.7430  0.9862  0.6993
 7237TIP3    H243203   4.849   2.810   4.484  1.3381  0.4583 -0.8187
 7238TIP3   OH243204   2.112   0.566  15.040  0.6340 -0.7088  0.0407
 7238TIP3    H143205   2.091   0.656  15.065  0.7218 -1.5244  3.5681
 7238TIP3    H243206   2.206   0.559  15.054  0.5575 -1.4570  0.2022
 7239TIP3   OH243207   1.310   0.805  15.585  0.0275 -0.3744 -0.0442
 7239TIP3    H143208   1.318   0.743  15.658 -2.2877  0.0312  0.6174
 7239TIP3    H243209   1.325   0.751  15.507  2.2157 -0.8773  0.6343
 7240TIP3   OH243210   5.942   5.427  15.317  0.1847  0.4911 -0.0913
 7240TIP3    H143211   6.021   5.472  15.288  0.8732  0.1290  1.1495
 7240TIP3    H243212   5.880   5.498  15.336  0.5276  0.8215 -0.1889
 7241TIP3   OH243213   3.799   0.747   4.275 -0.0824  0.6672  0.2826
 7241TIP3    H143214   3.863   0.737   4.205  2.2075 -1.4238  2.5028
 7241TIP3    H243215   3.717   0.766   4.229  1.2031 -0.8239 -2.9475
 7242TIP3   OH243216   0.744   5.564   0.813 -0.2790  0.1423 -0.1767
 7242TIP3    H143217   0.654   5.596   0.821 -0.2560 -0.0269  0.8567
 7242TIP3    H243218   0.795   5.643   0.792 -0.2963  0.7489  1.8584
 7243TIP3   OH243219   2.710   2.868  12.499  0.3929  0.4297  0.1125
 7243TIP3    H143220   2.678   2.823  12.578 -0.3222  1.9923  0.7482
 7243TIP3    H243221   2.771   2.805  12.460  0.1763 -0.7022  1.4790
 7244TIP3   OH243222   1.839   4.827   1.629  0.0208 -0.0846 -0.1893
 7244TIP3    H143223   1.862   4.776   1.551 -1.4729 -1.5440  0.2561
 7244TIP3    H243224   1.922   4.843   1.673  0.7956  0.0133 -1.6190
 7245TIP3   OH243225   5.722   4.765  12.176 -0.0157  0.2865  0.0307
 7245TIP3    H143226   5.634   4.745  12.210  0.6960  0.6006  2.2295
 7245TIP3    H243227   5.742   4.851  12.212  0.8863  0.5686 -1.1145
 7246TIP3   OH243228   0.219   3.271   3.621  0.0078  0.3297  0.7305
 7246TIP3    H143229   0.280   3.260   3.694 -1.4143 -1.9104  1.6929
 7246TIP3    H243230   0.176   3.355   3.637  1.5019  1.0657  1.0365
 7247TIP3   OH243231   2.248   6.470   3.730  0.0209 -0.3827 -0.0661
 7247TIP3    H143232   2.258   6.465   3.825  0.1126  0.1298 -0.0418
 7247TIP3    H243233   2.198   6.392   3.706 -0.6182 -0.1569  0.4924
 7248TIP3   OH243234   0.073   6.071  15.869  0.0717  0.0284 -0.5773
 7248TIP3    H143235   0.091   6.164  15.857 -1.2920  0.3713 -0.0780
 7248TIP3    H243236  -0.019   6.061  15.849 -0.6188 -0.6037  2.3596
 7249TIP3   OH243237   5.863   0.315   2.698 -0.1176  0.3538  0.7276
 7249TIP3    H143238   5.898   0.377   2.634 -0.1524 -0.9248 -0.5708
 7249TIP3    H243239   5.804   0.368   2.752  0.6668  1.6660  0.3495
 7250TIP3   OH243240   5.886   4.418  12.982  0.2971  0.2123 -0.0033
 7250TIP3    H143241   5.828   4.344  12.961  0.5305 -0.4765  1.6312
 7250TIP3    H243242   5.951   4.381  13.042  1.2692  1.4359 -0.2712
 7251TIP3   OH243243   3.294   3.676  12.781  0.7772 -0.2106 -0.2118
 7251TIP3    H143244   3.269   3.588  12.754  2.1263 -0.7029  0.0611
 7251TIP3    H243245   3.339   3.713  12.704  3.4505 -1.1321  0.8075
 7252TIP3   OH243246   2.345   2.846   4.415 -0.1870  0.7672 -0.7330
 7252TIP3    H143247   2.358   2.927   4.366 -0.7281  1.7390  0.6804
 7252TIP3    H243248   2.347   2.777   4.348 -1.2804  2.0718 -2.1676
 7253TIP3   OH243249   2.851   3.676   2.288 -0.3129  0.3825  0.3894
 7253TIP3    H143250   2.904   3.665   2.210 -0.6987  0.9165  0.0466
 7253TIP3    H243251   2.762   3.690   2.256 -1.1253 -2.7219  1.0043
 7254TIP3   OH243252   2.734   0.409  11.258  0.1127 -0.0403 -1.0804
 7254TIP3    H143253   2.752   0.456  11.339 -1.0910  0.4883 -1.1023
 7254TIP3    H243254   2.746   0.474  11.189  0.3382 -0.2779 -1.2664
 7255TIP3   OH243255   2.192   0.656  13.730  0.3675 -0.0059  0.1975
 7255TIP3    H143256   2.125   0.619  13.674 -2.1386  1.4803  2.0066
 7255TIP3    H243257   2.178   0.615  13.815  1.1225  1.0275  0.8565
 7256TIP3   OH243258   1.897   2.677   3.607  0.1202  0.1504  0.3238
 7256TIP3    H143259   1.806   2.676   3.637  0.1910 -1.2950  0.5325
 7256TIP3    H243260   1.915   2.588   3.578  1.9764 -0.0622  1.8642
 7257TIP3   OH243261   0.848   4.343  14.469  0.0067  0.2946  0.3756
 7257TIP3    H143262   0.873   4.430  14.501  0.6343 -0.3177  1.6414
 7257TIP3    H243263   0.775   4.359  14.409  0.4443  1.7291  0.1943
 7258TIP3   OH243264   3.120   5.846  14.486  0.5062  0.2738  0.7091
 7258TIP3    H143265   3.175   5.786  14.537  1.4737 -0.5231 -1.1532
 7258TIP3    H243266   3.131   5.816  14.396 -1.6895  1.1820  0.0932
 7259TIP3   OH243267   5.390   3.581   3.772  0.4000  0.0703  0.4238
 7259TIP3    H143268   5.387   3.670   3.807  0.7922 -0.1115  0.9122
 7259TIP3    H243269   5.430   3.528   3.841 -0.7523 -0.6791  0.5485
 7260TIP3   OH243270   1.579   3.734   4.888 -0.1195  0.0662 -0.7051
 7260TIP3    H143271   1.669   3.749   4.857 -0.4387  0.7180 -1.3605
 7260TIP3    H243272   1.590   3.693   4.973  0.8091  0.2060 -0.7410
 7261TIP3   OH243273   1.350   0.208   1.287 -0.1864 -0.2184 -0.0943
 7261TIP3    H143274   1.310   0.200   1.373  1.2762 -1.4381  0.5211
 7261TIP3    H243275   1.296   0.272   1.241 -1.4652 -0.1380  1.4429
 7262TIP3   OH243276   2.142   2.544   4.375  0.1030  0.3850  0.3281
 7262TIP3    H143277   2.106   2.543   4.286 -1.5689 -0.9925  0.9704
 7262TIP3    H243278   2.193   2.464   4.382  0.8848  0.8805  0.3704
 7263TIP3   OH243279   0.961   1.734  13.301 -0.0274 -0.0217 -0.5368
 7263TIP3    H143280   0.937   1.810  13.355  2.0782 -1.0726  2.1345
 7263TIP3    H243281   0.927   1.659  13.349  0.5792 -0.9328 -1.4967
 7264TIP3   OH243282   3.522   6.283   3.045 -0.3643  0.2737 -0.2799
 7264TIP3    H143283   3.469   6.252   2.971 -1.0511  0.2963  0.1966
 7264TIP3    H243284   3.613   6.264   3.019 -0.6314 -0.1553 -0.9216
 7265TIP3   OH243285   4.287   2.673   1.613  0.0482 -0.4323  0.1459
 7265TIP3    H143286   4.218   2.608   1.627 -1.0333  0.9038  1.1957
 7265TIP3    H243287   4.313   2.661   1.522 -2.1923 -0.3829 -0.5427
 7266TIP3   OH243288   0.194   5.469  11.045  0.2203 -0.0382 -0.3359
 7266TIP3    H143289   0.245   5.515  11.112 -2.0685 -0.4514  1.8425
 7266TIP3    H243290   0.259   5.439  10.981  2.5386  0.3899  1.6815
 7267TIP3   OH243291   3.197   1.080  15.106  0.8103  0.2918 -0.2606
 7267TIP3    H143292   3.138   1.004  15.107 -0.8072  1.5121  0.0473
 7267TIP3    H243293   3.276   1.048  15.151 -0.0503 -1.0562  0.3775
 7268TIP3   OH243294   5.950   3.719   4.556  0.1808 -0.8612  0.1619
 7268TIP3    H143295   5.900   3.747   4.633 -0.3078 -1.2688  0.0058
 7268TIP3    H243296   5.941   3.623   4.556  0.7465 -0.9159 -0.0231
 7269TIP3   OH243297   0.831   5.439   4.919  0.0086 -0.0384  0.1101
 7269TIP3    H143298   0.870   5.403   4.839 -0.2482 -0.6773  0.2654
 7269TIP3    H243299   0.838   5.368   4.983 -0.0601  0.3640  0.5752
 7270TIP3   OH243300   3.686   4.991   2.222  0.2347 -0.3250  0.1396
 7270TIP3    H143301   3.701   4.914   2.167  0.1201 -2.1411  2.4992
 7270TIP3    H243302   3.771   5.035   2.225  0.3611 -0.4374 -1.0490
 7271TIP3   OH243303   5.539   5.152   3.740 -0.1254  0.0168  0.1788
 7271TIP3    H143304   5.448   5.180   3.740  0.4010  1.8968  0.8182
 7271TIP3    H243305   5.545   5.088   3.670 -1.6001  1.0546 -0.9613
 7272TIP3   OH243306   2.397   1.596  15.704 -0.2819 -0.4795  0.1135
 7272TIP3    H143307   2.330   1.536  15.737 -0.6871  0.5900  1.3114
 7272TIP3    H243308   2.418   1.562  15.617  0.3711 -3.0510  1.1635
 7273TIP3   OH243309   4.846   2.419   3.032 -0.3207 -0.0229 -0.3601
 7273TIP3    H143310   4.822   2.512   3.031 -0.6777 -0.0772  1.1587
 7273TIP3    H243311   4.861   2.399   3.124  3.0135 -0.6650 -0.9128
 7274TIP3   OH243312   6.516   4.892   4.714 -0.2066  0.1637  0.6657
 7274TIP3    H143313   6.603   4.907   4.677  0.1119 -0.2848  1.2222
 7274TIP3    H243314   6.478   4.824   4.659  0.4516 -0.8478  1.4201
 7275TIP3   OH243315   2.128   6.359   0.055 -0.0099 -0.5961 -0.3356
 7275TIP3    H143316   2.223   6.349   0.067  0.3582  0.8311 -1.7610
 7275TIP3    H243317   2.090   6.290   0.109  1.7587 -0.0285  1.7774
 7276TIP3   OH243318   6.606   3.843   4.627  0.5811  0.1074 -0.0222
 7276TIP3    H143319   6.639   3.831   4.538 -0.0881 -2.2898 -0.0030
 7276TIP3    H243320   6.685   3.855   4.680  1.0213  0.8064 -0.8145
 7277TIP3   OH243321   3.231   6.491  14.061  0.1764 -0.0175  0.3633
 7277TIP3    H143322   3.209   6.414  14.112  0.9007 -0.6118 -0.1958
 7277TIP3    H243323   3.181   6.562  14.102 -1.1259 -0.9115  0.3982
 7278TIP3   OH243324   6.664   4.317  16.489  0.3057  0.4211  0.1529
 7278TIP3    H143325   6.668   4.395  16.434 -1.0999  0.4568  0.0672
 7278TIP3    H243326   6.709   4.342  16.570  1.2886  0.7684 -0.4872
 7279TIP3   OH243327   4.239   5.861   1.210  0.1909  0.7001  0.4127
 7279TIP3    H143328   4.206   5.932   1.265 -0.0961  0.4389  0.5818
 7279TIP3    H243329   4.180   5.860   1.134  0.2777  0.7331  0.3453
 7280TIP3   OH243330   3.954   6.673  10.710  0.0996  0.5095  0.4539
 7280TIP3    H143331   4.027   6.699  10.653  0.0437  1.7716  0.9460
 7280TIP3    H243332   3.922   6.755  10.747 -0.9721 -0.1343  0.9780
 7281TIP3   OH243333   2.678   1.455  14.893 -0.0400  0.4056  0.0800
 7281TIP3    H143334   2.683   1.504  14.811  0.4927 -0.3318 -0.3489
 7281TIP3    H243335   2.756   1.400  14.892 -0.3759 -0.0945  0.7690
 7282TIP3   OH243336   4.853   6.180  13.856 -0.1367 -0.1650  0.0771
 7282TIP3    H143337   4.860   6.088  13.829  0.5981 -0.4156  1.0552
 7282TIP3    H243338   4.927   6.223  13.813 -1.3738  0.3322 -1.6640
 7283TIP3   OH243339   3.127   4.060  12.708 -0.0841  0.0701 -0.6282
 7283TIP3    H143340   3.089   4.023  12.788  1.5787 -0.8904 -0.2257
 7283TIP3    H243341   3.146   3.983  12.654 -0.9807  0.6982 -1.8712
 7284TIP3   OH243342   3.134   1.737  15.244 -0.6409 -0.0397 -0.1014
 7284TIP3    H143343   3.126   1.818  15.294 -1.6584 -1.1177  1.5981
 7284TIP3    H243344   3.057   1.735  15.187  1.0925  1.7405 -2.7117
 7285TIP3   OH243345   4.368   0.226  11.718 -0.2667 -0.2981  0.1125
 7285TIP3    H143346   4.297   0.240  11.780  0.8369  1.2817  1.0806
 7285TIP3    H243347   4.420   0.156  11.757 -0.5646 -0.5687  0.0363
 7286TIP3   OH243348   1.612   3.614  16.451  0.3898  0.4885 -0.1616
 7286TIP3    H143349   1.554   3.552  16.494 -0.0634  0.7242 -0.4241
 7286TIP3    H243350   1.670   3.645  16.521 -0.0201  0.5034  0.1770
 7287TIP3   OH243351   1.315   4.848   4.013 -0.1100 -0.1402  0.9478
 7287TIP3    H143352   1.258   4.771   4.020  0.1796 -0.4520  0.0473
 7287TIP3    H243353   1.404   4.812   4.015  0.1042 -0.3643 -3.6552
 7288TIP3   OH243354   6.446   3.570   5.594 -0.1023  0.1705  0.6142
 7288TIP3    H143355   6.490   3.554   5.678  1.6626 -0.7067 -0.4277
 7288TIP3    H243356   6.443   3.485   5.551 -1.2386  0.5585 -0.1331
 7289TIP3   OH243357   1.062   4.724  11.159 -0.5092 -0.3049 -0.4011
 7289TIP3    H143358   1.054   4.754  11.068  2.6457  0.7178 -0.4859
 7289TIP3    H243359   1.056   4.629  11.153  1.4799 -0.4221 -2.0611
 7290TIP3   OH243360   0.864   6.783  14.498 -0.6901 -0.4953 -0.2404
 7290TIP3    H143361   0.812   6.847  14.450  0.9096 -0.1058 -1.5735
 7290TIP3    H243362   0.924   6.748  14.432 -0.4202 -2.1687  0.8372
 7291TIP3   OH243363   1.161   0.340   1.504 -0.3499 -0.5954 -0.2155
 7291TIP3    H143364   1.209   0.398   1.445  0.0160 -1.0473 -0.3696
 7291TIP3    H243365   1.194   0.361   1.591 -1.6085  0.7855 -0.0220
 7292TIP3   OH243366   1.161   2.282   3.508 -0.0172  0.3669  0.1981
 7292TIP3    H143367   1.191   2.283   3.599  0.2883 -0.5754  0.1164
 7292TIP3    H243368   1.162   2.374   3.481  0.6613  0.5673  0.8918
 7293TIP3   OH243369   5.194   6.439  15.770 -0.8538 -0.1540  0.1823
 7293TIP3    H143370   5.121   6.489  15.735 -0.6656 -0.0227 -0.0222
 7293TIP3    H243371   5.212   6.479  15.855 -0.3681  0.4645 -0.2026
 7294TIP3   OH243372   4.274   1.848   2.849 -0.3729 -0.0252 -0.8615
 7294TIP3    H143373   4.202   1.811   2.799  0.5593 -1.7931 -0.9639
 7294TIP3    H243374   4.353   1.822   2.802  0.4144  0.2794  0.2329
 7295TIP3   OH243375   1.801   2.548   1.836 -0.2792  0.0494 -0.0645
 7295TIP3    H143376   1.882   2.536   1.885  1.0996 -0.0653 -2.2294
 7295TIP3    H243377   1.828   2.541   1.744 -2.7633 -0.0274 -0.8458
 7296TIP3   OH243378   1.607   5.988   3.345 -0.6789 -0.1690  0.2219
 7296TIP3    H143379   1.570   5.901   3.360 -3.0140  0.7693  0.3170
 7296TIP3    H243380   1.647   6.012   3.429  0.5379 -1.3530  0.0155
 7297TIP3   OH243381   0.820   2.319  17.147  0.2745 -0.0315 -0.1887
 7297TIP3    H143382   0.742   2.286  17.103  0.3828  0.0152 -0.4187
 7297TIP3    H243383   0.886   2.325  17.077  0.9079 -1.4175  0.2478
 7298TIP3   OH243384   0.825   0.727  13.792  0.8919 -0.2820 -0.0638
 7298TIP3    H143385   0.874   0.645  13.781  1.8094  0.3891 -1.2004
 7298TIP3    H243386   0.759   0.725  13.722  1.4425  0.3024 -0.6128
 7299TIP3   OH243387   4.338   1.711   5.618  0.0392 -0.5473 -0.1099
 7299TIP3    H143388   4.377   1.790   5.654  1.1430 -0.3481 -1.6499
 7299TIP3    H243389   4.357   1.643   5.683 -0.0302  0.2419  0.7454
 7300TIP3   OH243390   6.014   4.919  16.072  0.2814 -0.0056 -0.1580
 7300TIP3    H143391   6.040   4.830  16.097  0.4632  0.0538 -0.1297
 7300TIP3    H243392   6.008   4.915  15.977  1.5570  0.2716 -0.2747
 7301TIP3   OH243393   1.828   2.996  16.562 -0.8984 -0.7084 -0.4105
 7301TIP3    H143394   1.841   3.036  16.647  1.1904 -1.8757 -0.1239
 7301TIP3    H243395   1.747   3.036  16.529  0.0128  2.2742  0.6315
 7302TIP3   OH243396   1.183   4.746  15.774  0.4116  0.8032  0.0680
 7302TIP3    H143397   1.237   4.679  15.733  2.1788  2.9216 -1.2974
 7302TIP3    H243398   1.219   4.757  15.862 -0.1921 -0.3211  0.4678
 7303TIP3   OH243399   2.382   3.644  14.939  0.5238  0.1174 -0.2860
 7303TIP3    H143400   2.315   3.629  14.872 -0.1294  0.6505  0.2348
 7303TIP3    H243401   2.447   3.576  14.923 -0.0851 -0.3429 -0.8727
 7304TIP3   OH243402   2.079   2.411   5.175 -0.0065 -0.4579 -0.0737
 7304TIP3    H143403   2.127   2.463   5.111  0.8472  0.5901  1.3579
 7304TIP3    H243404   2.000   2.461   5.193 -0.9050 -1.3976 -1.2349
 7305TIP3   OH243405   0.634   1.154   0.756 -0.0693  0.0161  0.3713
 7305TIP3    H143406   0.617   1.239   0.796 -0.0227 -0.4225  1.3509
 7305TIP3    H243407   0.699   1.172   0.687  0.8523  0.5969  1.3643
 7306TIP3   OH243408   5.782   5.007  14.875 -0.2860  0.5685 -0.2538
 7306TIP3    H143409   5.687   5.012  14.880 -0.3004  0.2308 -0.1844
 7306TIP3    H243410   5.813   5.055  14.952 -0.4129  0.1053  0.0894
 7307TIP3   OH243411   3.325   4.506   3.273 -0.1605 -0.5771 -0.5198
 7307TIP3    H143412   3.343   4.517   3.366 -3.1025  0.8384 -0.0085
 7307TIP3    H243413   3.376   4.429   3.247  0.9905 -0.8063  2.1508
 7308TIP3   OH243414   0.749   0.366   4.392 -0.3459 -0.0618  0.3365
 7308TIP3    H143415   0.686   0.410   4.335 -1.2661  0.9166  1.9968
 7308TIP3    H243416   0.782   0.436   4.449  2.1136 -0.5929 -0.3190
 7309TIP3   OH243417   0.456   1.275  14.653 -0.2164  0.7256  0.9257
 7309TIP3    H143418   0.499   1.210  14.597  0.0675  0.3634  1.5506
 7309TIP3    H243419   0.430   1.345  14.593  1.4085  1.0556  0.5474
 7310TIP3   OH243420   1.136   5.583   2.745 -0.6136 -0.2409 -1.1726
 7310TIP3    H143421   1.105   5.622   2.827 -1.8714 -0.5835 -1.4705
 7310TIP3    H243422   1.225   5.618   2.734 -0.9456  0.9053 -0.3857
 7311TIP3   OH243423   4.913   3.908  12.216  0.7899  0.4134 -0.7196
 7311TIP3    H143424   4.904   3.986  12.162  1.8550  1.0894  0.0374
 7311TIP3    H243425   4.933   3.838  12.154 -2.5922  0.1524 -1.7122
 7312TIP3   OH243426   6.364   4.913   3.455 -0.2432 -0.3667 -0.1774
 7312TIP3    H143427   6.444   4.905   3.507  0.5326  1.0727 -1.1048
 7312TIP3    H243428   6.300   4.860   3.503  1.1280 -1.2074  0.8122
 7313TIP3   OH243429   5.902   0.026  15.238 -0.4619 -0.5531  0.0890
 7313TIP3    H143430   5.816   0.010  15.200 -0.5910 -2.5916  1.0965
 7313TIP3    H243431   5.964  -0.010  15.175 -0.2706  1.0967 -0.7336
 7314TIP3   OH243432   6.814   0.733  13.291 -0.2047 -0.1961 -0.1461
 7314TIP3    H143433   6.808   0.822  13.326  1.7872 -0.0956  0.0561
 7314TIP3    H243434   6.738   0.724  13.234 -0.6131  1.5220  0.0790
 7315TIP3   OH243435   3.425   2.482   5.932  0.0766  0.2059  0.0695
 7315TIP3    H143436   3.479   2.405   5.915  0.5282  0.6304 -0.4444
 7315TIP3    H243437   3.369   2.456   6.005  0.0481 -0.6926 -0.2614
 7316TIP3   OH243438   0.354   6.763   0.769  0.2271 -0.5708 -0.3508
 7316TIP3    H143439   0.261   6.738   0.770  0.3335 -0.9633  0.3768
 7316TIP3    H243440   0.390   6.724   0.849  0.8011  0.4177 -0.1097
 7317TIP3   OH243441   0.027   2.430  11.289 -0.6926 -0.0271 -0.0134
 7317TIP3    H143442   0.076   2.367  11.237 -0.1870 -0.2643  0.7423
 7317TIP3    H243443   0.043   2.514  11.246 -0.0341 -0.1758 -0.0674
 7318TIP3   OH243444   5.201   6.672   6.112 -0.8143 -1.0795  0.2036
 7318TIP3    H143445   5.134   6.710   6.169 -0.4686 -1.0198  0.5691
 7318TIP3    H243446   5.236   6.746   6.062 -0.9947 -1.1061  0.0341
 7319TIP3   OH243447   5.417   3.044  12.971  0.1830  0.0792 -0.0684
 7319TIP3    H143448   5.351   3.066  12.905 -0.5898 -1.1803  0.2616
 7319TIP3    H243449   5.427   2.949  12.964  2.6009  0.3164 -0.6832
 7320TIP3   OH243450   1.831   0.285  16.992  0.2766 -0.1920  0.1095
 7320TIP3    H143451   1.822   0.321  16.904 -1.4905 -0.6316  0.0912
 7320TIP3    H243452   1.748   0.241  17.010  1.0802 -1.2362  1.5012
 7321TIP3   OH243453   6.513   2.268   0.199  0.5679 -0.0779 -0.2316
 7321TIP3    H143454   6.434   2.216   0.185 -0.5190  1.5844 -0.6236
 7321TIP3    H243455   6.554   2.272   0.113  0.9892 -0.7638 -0.0724
 7322TIP3   OH243456   3.375   6.787   2.252  0.1278  0.0991  0.2224
 7322TIP3    H143457   3.374   6.834   2.336 -1.0600 -0.2363  0.4114
 7322TIP3    H243458   3.462   6.747   2.249  1.4472  2.7726 -0.2355
 7323TIP3   OH243459   4.183   5.632  16.599  0.4417  0.6320  0.2595
 7323TIP3    H143460   4.177   5.712  16.548 -0.4372  0.8724  0.7189
 7323TIP3    H243461   4.093   5.599  16.604  0.7302 -0.1683  0.4138
 7324TIP3   OH243462   3.008   5.590   3.723  0.4699  0.1675 -0.3347
 7324TIP3    H143463   2.939   5.559   3.782 -0.1266 -0.4221 -1.3111
 7324TIP3    H243464   3.084   5.603   3.779  0.1713 -1.2366  0.4401
 7325TIP3   OH243465   6.782   0.140   3.257  0.0565  0.2102 -0.2731
 7325TIP3    H143466   6.821   0.179   3.178  0.5093 -0.1778 -0.2464
 7325TIP3    H243467   6.726   0.070   3.223  1.9899 -1.4819 -0.1868
 7326TIP3   OH243468   2.235   2.143   3.757 -0.3584  0.2625 -0.8198
 7326TIP3    H143469   2.313   2.109   3.713 -0.4163  0.0745 -0.7778
 7326TIP3    H243470   2.210   2.220   3.706 -0.2742  0.1937 -0.9639
 7327TIP3   OH243471   5.469   4.659   3.704  0.6646  0.1849 -0.0609
 7327TIP3    H143472   5.381   4.680   3.735  0.0244 -0.2913 -1.4714
 7327TIP3    H243473   5.525   4.673   3.780 -0.6519  0.3120  0.9242
 7328TIP3   OH243474   2.891   3.748  15.582  0.1507  0.3881  0.4905
 7328TIP3    H143475   2.815   3.788  15.625 -1.0730  0.2305 -1.4249
 7328TIP3    H243476   2.887   3.778  15.491  1.1939 -1.2880 -0.1695
 7329TIP3   OH243477   0.193   1.738  12.761  0.5339 -1.0027  0.1446
 7329TIP3    H143478   0.207   1.737  12.666  0.1897 -1.1966  0.0940
 7329TIP3    H243479   0.256   1.802  12.794 -1.1773  1.1207 -0.5022
 7330TIP3   OH243480   0.006   4.567   3.059  0.1909 -0.1986  0.3876
 7330TIP3    H143481  -0.006   4.521   2.976  0.1239 -1.2319  0.9619
 7330TIP3    H243482  -0.075   4.618   3.070 -0.3119 -0.9848  0.3882
 7331TIP3   OH243483   6.371   6.132  10.778 -0.8761 -0.4681 -0.1790
 7331TIP3    H143484   6.332   6.195  10.838 -0.1254 -0.5562  0.4033
 7331TIP3    H243485   6.310   6.057  10.780 -0.5298 -0.7312  0.9635
 7332TIP3   OH243486   4.238   4.782  11.537 -0.1602 -0.4306  0.1103
 7332TIP3    H143487   4.207   4.719  11.602 -0.9179 -0.4015 -0.2160
 7332TIP3    H243488   4.279   4.728  11.469  4.3825 -0.3256  2.4400
 7333TIP3   OH243489   4.607   5.539   1.797 -0.0463  0.2540  0.2578
 7333TIP3    H143490   4.609   5.446   1.773  0.6014  0.4219 -0.3612
 7333TIP3    H243491   4.528   5.572   1.754  0.2152  0.1855 -0.2911
 7334TIP3   OH243492   3.138   3.504  15.562 -0.1651  0.5861 -0.0001
 7334TIP3    H143493   3.128   3.563  15.637 -2.0571  0.2114  0.0815
 7334TIP3    H243494   3.177   3.425  15.599 -1.9997  0.0273  0.8141
 7335TIP3   OH243495   4.959   3.630   3.442 -0.2874 -0.0417 -0.1886
 7335TIP3    H143496   4.896   3.570   3.402  0.3815 -0.4276 -0.6860
 7335TIP3    H243497   4.914   3.664   3.520 -0.8006 -0.9388 -0.0802
 7336TIP3   OH243498   1.116   2.411  16.547 -0.1304 -0.1392  0.3070
 7336TIP3    H143499   1.150   2.486  16.499 -0.8590  0.2929  0.4479
 7336TIP3    H243500   1.118   2.438  16.639 -0.6965 -0.1604  0.3302
 7337TIP3   OH243501   4.965   0.415   3.136  0.0328  0.3645  0.1240
 7337TIP3    H143502   4.965   0.365   3.218 -1.2584 -1.5736 -0.9672
 7337TIP3    H243503   4.877   0.452   3.131  0.3058  0.9972 -0.1091
 7338TIP3   OH243504   0.095   1.826   5.707 -0.9214  0.5583  0.0489
 7338TIP3    H143505   0.094   1.909   5.754  1.1535 -0.1641  1.5039
 7338TIP3    H243506   0.045   1.767   5.764  0.5744 -0.0147  0.8270
 7339TIP3   OH243507   1.522   2.265  14.396 -0.4156  0.8657  0.3141
 7339TIP3    H143508   1.488   2.325  14.330 -1.0828  1.1428  0.8873
 7339TIP3    H243509   1.447   2.248  14.454 -0.5249 -1.3563 -0.4088
 7340TIP3   OH243510   0.825   3.380   2.385 -0.4376 -1.0787  0.1971
 7340TIP3    H143511   0.852   3.371   2.477 -1.5839  1.7520  0.9090
 7340TIP3    H243512   0.907   3.390   2.337  0.1210 -1.3077  1.0828
 7341TIP3   OH243513   3.398   3.227   1.263 -0.3673  0.0020 -0.1711
 7341TIP3    H143514   3.340   3.298   1.236 -0.8934 -0.3901 -0.0895
 7341TIP3    H243515   3.346   3.147   1.249  0.6743 -0.4831 -1.5323
 7342TIP3   OH243516   2.258   3.799  16.430  0.0026  0.9441 -0.2724
 7342TIP3    H143517   2.202   3.851  16.373 -2.9986  0.4634  1.9684
 7342TIP3    H243518   2.197   3.741  16.477  2.6266 -1.0056  0.9933
 7343TIP3   OH243519   2.429   4.608  14.634 -0.1226  0.2319 -0.1146
 7343TIP3    H143520   2.495   4.635  14.698  0.0168 -1.0183  0.3040
 7343TIP3    H243521   2.421   4.682  14.575  1.6410  0.4435 -0.1440
 7344TIP3   OH243522   5.501   5.853   4.068  0.3466  0.4762  0.1982
 7344TIP3    H143523   5.474   5.926   4.012  3.4805  0.6382 -1.2956
 7344TIP3    H243524   5.591   5.874   4.093  1.2107 -2.6561  0.0704
 7345TIP3   OH243525   2.473   3.059   3.450  0.2986 -0.2636  0.2975
 7345TIP3    H143526   2.522   3.095   3.525  1.2150 -0.7379 -0.0557
 7345TIP3    H243527   2.473   3.129   3.386 -1.8465  0.7346  1.2823
 7346TIP3   OH243528   5.419   5.362   6.686  0.0846 -0.4559 -0.2957
 7346TIP3    H143529   5.477   5.405   6.749 -0.2395  1.3642 -1.1740
 7346TIP3    H243530   5.330   5.383   6.716 -0.1738  3.2154 -2.9213
 7347TIP3   OH243531   2.206   6.094  11.646 -0.4022  0.0139 -0.5073
 7347TIP3    H143532   2.207   6.128  11.736  1.5368 -0.1391 -0.4302
 7347TIP3    H243533   2.292   6.118  11.611 -0.9451 -0.3686 -2.1708
 7348TIP3   OH243534   1.338   2.437  11.865  0.2989 -0.0075  0.3539
 7348TIP3    H143535   1.362   2.474  11.780 -0.3443  0.5282  0.3997
 7348TIP3    H243536   1.349   2.509  11.926 -0.3137 -0.0804  0.5497
 7349TIP3   OH243537   6.399   5.612  17.077 -0.2721  0.7072 -0.2729
 7349TIP3    H143538   6.398   5.636  17.170  0.8969 -1.0368  0.2303
 7349TIP3    H243539   6.307   5.591  17.057 -0.6692  1.8418  0.2475
 7350TIP3   OH243540   6.587   1.170  17.269 -0.3700 -0.1416 -0.1548
 7350TIP3    H143541   6.597   1.082  17.305  1.6690  0.0566 -0.1696
 7350TIP3    H243542   6.640   1.226  17.325 -0.0085  0.7526 -1.3485
 7351TIP3   OH243543   3.536   2.950  12.862 -0.5725  0.3169  0.2248
 7351TIP3    H143544   3.536   2.938  12.957  1.8637 -0.9557  0.1311
 7351TIP3    H243545   3.588   3.029  12.848  0.0313 -0.1255 -0.0768
 7352TIP3   OH243546   5.703   4.976   4.736 -0.1624 -0.1389  0.0985
 7352TIP3    H143547   5.665   5.056   4.700 -1.1974  0.1759  1.7674
 7352TIP3    H243548   5.697   4.912   4.665  0.2011  1.1027 -1.0888
 7353TIP3   OH243549   2.687   4.484   1.953  0.3559 -0.5214 -0.1823
 7353TIP3    H143550   2.757   4.499   1.890  0.5389  1.9103  0.4632
 7353TIP3    H243551   2.721   4.417   2.012  1.8472  0.0333 -0.3549
 7354TIP3   OH243552   5.846   4.874   0.865  0.0960 -0.0214  0.3443
 7354TIP3    H143553   5.857   4.794   0.915  1.3864  0.1277  0.3153
 7354TIP3    H243554   5.812   4.937   0.928  2.8692  0.5261  1.4246
 7355TIP3   OH243555   2.321   1.817  12.588  0.3562  0.4316 -0.0158
 7355TIP3    H143556   2.348   1.905  12.613 -1.0586  0.6370  0.8663
 7355TIP3    H243557   2.230   1.810  12.616  0.5305 -1.4313  0.2305
 7356TIP3   OH243558   0.662   5.093  14.760  0.2165  0.2715 -0.8690
 7356TIP3    H143559   0.630   5.013  14.802 -1.6793 -0.5807 -3.6256
 7356TIP3    H243560   0.613   5.163  14.802 -0.5817 -0.3885 -0.6639
 7357TIP3   OH243561   2.107   3.047   4.335  0.1407  0.4336 -0.3064
 7357TIP3    H143562   2.105   3.047   4.239  1.0980  1.6301 -0.3538
 7357TIP3    H243563   2.200   3.048   4.356  0.1417 -3.5111  0.7322
 7358TIP3   OH243564   2.219   0.172   3.800 -0.7651  0.7406 -0.2040
 7358TIP3    H143565   2.270   0.101   3.839  0.0231  1.9821  1.1348
 7358TIP3    H243566   2.173   0.132   3.727  2.5417 -0.3963 -1.8570
 7359TIP3   OH243567   5.437   5.965  14.294  1.2148  0.2148  0.5335
 7359TIP3    H143568   5.473   5.951  14.207 -0.2782 -1.3108  0.1162
 7359TIP3    H243569   5.342   5.969  14.281  1.0232  1.2207  1.9429
 7360TIP3   OH243570   4.888   1.904   0.534  0.6115 -0.2319  0.1546
 7360TIP3    H143571   4.909   1.815   0.506  1.4500  0.1819 -0.5422
 7360TIP3    H243572   4.917   1.907   0.626  0.4805 -0.7001  0.2155
 7361TIP3   OH243573   1.871   2.896  16.947 -0.6998  0.8194 -0.1857
 7361TIP3    H143574   1.919   2.972  16.979  0.9970 -2.3180  6.2427
 7361TIP3    H243575   1.937   2.843  16.903 -0.2300  0.2436  1.1776
 7362TIP3   OH243576   0.030   6.245   0.148  0.4046 -0.3204  0.0967
 7362TIP3    H143577   0.086   6.186   0.199  0.1695  0.8033  1.7688
 7362TIP3    H243578   0.062   6.332   0.171  0.5257  0.2332 -2.0451
 7363TIP3   OH243579   3.629   4.902  13.996 -0.1513  0.1229  0.4701
 7363TIP3    H143580   3.617   4.853  14.077  1.0687 -1.0381 -0.0207
 7363TIP3    H243581   3.641   4.993  14.024 -2.7874  0.2884  1.3840
 7364TIP3   OH243582   4.981   0.500   0.830  0.6441  0.3989 -0.1469
 7364TIP3    H143583   4.994   0.413   0.791 -1.0673  0.1652 -0.2369
 7364TIP3    H243584   4.986   0.484   0.924 -0.2462  0.0967 -0.1462
 7365TIP3   OH243585   2.840   5.085   1.761 -0.9615  0.0942 -0.1148
 7365TIP3    H143586   2.910   5.150   1.770  0.0300 -0.8942 -0.5107
 7365TIP3    H243587   2.767   5.122   1.811 -1.4617  2.8775 -2.6199
 7366TIP3   OH243588   2.035   5.988  12.521 -0.3207  0.1908  0.0836
 7366TIP3    H143589   1.956   6.028  12.486  0.3232  0.4050 -1.1513
 7366TIP3    H243590   2.107   6.042  12.488  0.5018 -1.3700 -0.7934
 7367TIP3   OH243591   4.973   6.289  15.328 -0.1765  0.1824  0.4621
 7367TIP3    H143592   4.886   6.318  15.357 -0.0102  1.5028 -0.2703
 7367TIP3    H243593   4.968   6.292  15.233  0.1374 -1.4787  0.3653
 7368TIP3   OH243594   1.420   2.101   2.367 -0.0427 -0.1406 -0.4163
 7368TIP3    H143595   1.336   2.082   2.408  0.2305 -0.1152  0.1590
 7368TIP3    H243596   1.462   2.164   2.426 -0.4979  1.4995 -1.7365
 7369TIP3   OH243597   3.584   5.033  16.622  0.9676  0.7696  0.1336
 7369TIP3    H143598   3.637   5.040  16.702  2.2732 -0.4683 -0.5696
 7369TIP3    H243599   3.506   4.984  16.649  1.6674 -0.1454  0.5717
 7370TIP3   OH243600   2.945   0.231   5.418  0.3124  0.0163 -0.4313
 7370TIP3    H143601   2.939   0.327   5.417  1.4156  0.0915 -1.2125
 7370TIP3    H243602   2.910   0.204   5.333  0.2202 -0.2665 -0.3041
 7371TIP3   OH243603   1.488   3.321  14.563 -0.0046 -0.5465  0.1927
 7371TIP3    H143604   1.498   3.287  14.652 -2.5264  0.5519  1.0143
 7371TIP3    H243605   1.421   3.389  14.572 -2.2651 -2.1052 -2.9432
 7372TIP3   OH243606   4.543   5.887   2.773  0.2248  0.2846  0.3855
 7372TIP3    H143607   4.541   5.856   2.682  1.6836  1.3476 -0.0583
 7372TIP3    H243608   4.585   5.816   2.822  4.3260  1.6403 -0.7561
 7373TIP3   OH243609   2.031   5.291  11.672 -0.0060 -0.2713 -0.2715
 7373TIP3    H143610   2.085   5.314  11.748 -1.2883  1.3548  0.2095
 7373TIP3    H243611   1.995   5.206  11.694 -1.8039  0.9247  1.8794
 7374TIP3   OH243612   6.575   0.831   0.373 -0.2380  1.0816 -0.4315
 7374TIP3    H143613   6.494   0.784   0.353 -0.6264  1.2448  0.6528
 7374TIP3    H243614   6.546   0.915   0.409  0.4150  1.2876 -0.3758
 7375TIP3   OH243615   4.290   6.640   0.453  0.2861  0.1000  0.1260
 7375TIP3    H143616   4.309   6.709   0.516  1.0356  2.1339 -2.1631
 7375TIP3    H243617   4.326   6.561   0.492 -0.0224  1.0841  2.5791
 7376TIP3   OH243618   5.014   2.827   6.160 -0.1316  0.4973  0.4164
 7376TIP3    H143619   5.027   2.744   6.204  2.3113 -0.0555 -1.1908
 7376TIP3    H243620   5.100   2.868   6.159 -0.9889  2.4219 -0.1137
 7377TIP3   OH243621   3.935   1.987  16.891  0.5504 -0.0558  0.6738
 7377TIP3    H143622   3.876   2.036  16.834  2.0372 -0.1740 -1.0961
 7377TIP3    H243623   3.928   1.896  16.860  0.4804 -0.3442  1.5155
 7378TIP3   OH243624   3.118   4.438   5.117 -0.2663 -0.2953 -0.0416
 7378TIP3    H143625   3.059   4.512   5.133  0.5106  0.1588  0.8192
 7378TIP3    H243626   3.203   4.479   5.100 -0.2094 -0.9294 -1.4495
 7379TIP3   OH243627   4.023   3.933  11.578 -0.6350 -0.2673 -0.0226
 7379TIP3    H143628   4.036   3.863  11.641  0.5124  1.4119  1.7212
 7379TIP3    H243629   3.935   3.966  11.595 -0.3597  0.1271  0.7106
 7380TIP3   OH243630   0.419   1.427   1.410 -0.1290 -0.4362 -0.0915
 7380TIP3    H143631   0.411   1.336   1.439  0.7764  0.0679  1.9163
 7380TIP3    H243632   0.477   1.423   1.334  0.6664 -1.4583  0.5400
 7381TIP3   OH243633   4.741   1.599   0.763  0.5553 -0.2208  0.4982
 7381TIP3    H143634   4.807   1.658   0.727  0.7600  0.4180  1.8522
 7381TIP3    H243635   4.775   1.511   0.747  1.5068  0.0886  0.7378
 7382TIP3   OH243636   2.929   3.200  13.804 -0.2189  0.3469 -0.4587
 7382TIP3    H143637   3.014   3.235  13.777 -0.5952  0.3144 -1.7425
 7382TIP3    H243638   2.869   3.229  13.736 -1.2433  0.3550  0.4288
 7383TIP3   OH243639   3.930   4.788  14.434 -0.4726  0.0853 -0.3711
 7383TIP3    H143640   3.884   4.791  14.350 -0.3345 -0.0894 -0.4520
 7383TIP3    H243641   3.930   4.879  14.464 -0.0635  0.2351 -0.8073
 7384TIP3   OH243642   2.443   1.909   3.621  0.7526  0.2333  0.6209
 7384TIP3    H143643   2.403   1.915   3.534 -0.3483  1.3928  1.1739
 7384TIP3    H243644   2.396   1.838   3.664  1.1243 -0.1737  0.3564
 7385TIP3   OH243645   0.264   5.998   5.019 -0.0572 -0.0493  0.2383
 7385TIP3    H143646   0.238   6.028   5.106  1.5586 -0.5554  0.9458
 7385TIP3    H243647   0.274   6.078   4.968  0.3425  0.3610  0.9440
 7386TIP3   OH243648   1.391   1.964  12.360 -0.2278  0.1369  0.4862
 7386TIP3    H143649   1.476   1.957  12.403 -0.1843 -0.6186  0.2888
 7386TIP3    H243650   1.330   1.985  12.431  0.0173 -0.0044  0.7399
 7387TIP3   OH243651   3.271   5.632  14.626 -0.0710  0.4222  0.0517
 7387TIP3    H143652   3.310   5.579  14.556 -0.8087  0.4689 -0.3969
 7387TIP3    H243653   3.209   5.574  14.669  0.1833  0.4782  0.5041
 7388TIP3   OH243654   5.640   4.432   1.009 -0.1480 -0.0425  0.5571
 7388TIP3    H143655   5.645   4.340   1.034 -2.0439 -0.4016 -0.1440
 7388TIP3    H243656   5.555   4.461   1.043 -0.0828  1.1145 -0.2168
 7389TIP3   OH243657   3.696   5.988   4.130 -0.0713 -0.4674  0.3506
 7389TIP3    H143658   3.624   5.934   4.097 -0.3698  0.2733 -0.2376
 7389TIP3    H243659   3.710   6.053   4.061 -0.5296  0.9500  1.5453
 7390TIP3   OH243660   2.700   4.809   5.730  0.1283  0.3219  0.2447
 7390TIP3    H143661   2.615   4.831   5.767 -0.2703  1.8814 -1.4694
 7390TIP3    H243662   2.764   4.853   5.786 -0.1389 -0.9261  1.5862
 7391TIP3   OH243663   6.291   4.198   0.656  0.0560 -0.0406  0.8599
 7391TIP3    H143664   6.218   4.141   0.679 -1.7663  1.7814 -0.1053
 7391TIP3    H243665   6.281   4.274   0.714  2.0198 -0.3408  1.6530
 7392TIP3   OH243666   6.256   5.143   1.788 -0.0821 -0.1420  0.1724
 7392TIP3    H143667   6.341   5.166   1.749  0.3013 -0.2441  0.9247
 7392TIP3    H243668   6.218   5.081   1.726  0.4754 -0.2384 -0.0874
 7393TIP3   OH243669   3.900   1.351  11.920 -0.3249  0.7867 -0.5049
 7393TIP3    H143670   3.889   1.420  11.854  1.0587  0.8303 -0.7246
 7393TIP3    H243671   3.964   1.386  11.981  0.3490 -0.2566 -0.5809
 7394TIP3   OH243672   2.232   4.378  13.269 -0.1803 -0.2514  0.5391
 7394TIP3    H143673   2.173   4.386  13.345 -1.7580  1.5478 -0.7932
 7394TIP3    H243674   2.190   4.312  13.213  0.8899 -1.4442  1.0929
 7395TIP3   OH243675   6.715   6.060   2.727 -0.1393 -0.3266 -0.2246
 7395TIP3    H143676   6.697   5.966   2.737  1.6769 -0.7240 -0.3752
 7395TIP3    H243677   6.692   6.079   2.637  1.0447 -1.0347 -0.6988
 7396TIP3   OH243678   5.677   3.052   2.918 -0.0468  0.5616 -0.1519
 7396TIP3    H143679   5.705   3.143   2.931  0.7438  0.2929  0.1267
 7396TIP3    H243680   5.632   3.029   2.999 -0.7002  0.8599 -0.4257
 7397TIP3   OH243681   0.466   1.779  11.817 -0.0286 -0.2289 -0.2937
 7397TIP3    H143682   0.524   1.736  11.880 -1.1588  0.0133  0.9719
 7397TIP3    H243683   0.378   1.747  11.841 -0.4763 -0.2145 -1.8334
 7398TIP3   OH243684   0.482   6.402   3.976 -0.0992  0.2082 -0.1390
 7398TIP3    H143685   0.544   6.355   3.919  1.3353  1.9552 -0.1078
 7398TIP3    H243686   0.465   6.341   4.048  1.2718 -0.4920 -0.3694
 7399TIP3   OH243687   4.939   2.427  15.605  0.9399 -0.6440  0.0133
 7399TIP3    H143688   4.941   2.373  15.684 -2.4219  0.1983  0.7998
 7399TIP3    H243689   4.941   2.365  15.533  1.2125 -1.5794  0.8095
 7400TIP3   OH243690   3.391   2.940   1.750 -0.2198 -0.6788  0.2008
 7400TIP3    H143691   3.458   2.968   1.688 -0.4951 -0.6867 -0.1047
 7400TIP3    H243692   3.322   3.005   1.742  0.3431  0.1336  1.5468
 7401TIP3   OH243693   3.425   1.550   0.541 -0.1057  0.6544  0.0751
 7401TIP3    H143694   3.409   1.466   0.584 -3.1024  1.2284  0.2996
 7401TIP3    H243695   3.428   1.614   0.611 -1.0907  1.1099 -0.2795
 7402TIP3   OH243696   6.636   3.023  16.190  0.7158 -0.6148  0.1547
 7402TIP3    H143697   6.564   3.005  16.251 -0.9398  0.8469 -1.2359
 7402TIP3    H243698   6.690   2.945  16.194 -0.8106 -1.6876  1.4739
 7403TIP3   OH243699   0.456   5.200   4.810  0.1737  0.1216  0.0987
 7403TIP3    H143700   0.545   5.234   4.797 -0.0008  0.6330  0.2210
 7403TIP3    H243701   0.401   5.279   4.815 -0.1013 -0.1379  1.4078
 7404TIP3   OH243702   2.834   0.481   3.062 -0.3660  0.4978  0.6288
 7404TIP3    H143703   2.841   0.555   3.001 -0.6719  1.3052  1.5559
 7404TIP3    H243704   2.862   0.406   3.010 -0.1900  1.2313 -0.3846
 7405TIP3   OH243705   1.600   3.568  17.008  0.4466  0.0686  0.2525
 7405TIP3    H143706   1.523   3.624  17.000  0.3402 -0.0333  0.5377
 7405TIP3    H243707   1.671   3.627  17.033  0.3493  0.0858  0.4869
 7406TIP3   OH243708   0.984   2.292   2.669  0.3683  0.2919  0.1262
 7406TIP3    H143709   1.021   2.367   2.716  0.2590 -0.3352  1.2360
 7406TIP3    H243710   1.041   2.219   2.693 -0.6908 -0.3799  0.6299
 7407TIP3   OH243711   0.970   4.470  16.483 -0.2203  0.2945  1.1003
 7407TIP3    H143712   0.908   4.442  16.415 -0.1250  0.2920  1.0140
 7407TIP3    H243713   0.939   4.557  16.509 -0.4210  0.1776  1.2533
 7408TIP3   OH243714   0.459   5.698  15.670  0.6280 -0.1595  0.2193
 7408TIP3    H143715   0.554   5.705  15.670  0.6341  1.0152  2.9452
 7408TIP3    H243716   0.431   5.748  15.593  2.1810  0.9798  0.3428
 7409TIP3   OH243717   3.342   4.411  12.363  0.3362 -0.0035  0.4151
 7409TIP3    H143718   3.404   4.473  12.324 -0.6226  0.5572 -0.2491
 7409TIP3    H243719   3.264   4.418  12.309  0.3310 -2.0869  0.0779
 7410TIP3   OH243720   2.951   3.817   4.478  0.2155  0.2707  0.3071
 7410TIP3    H143721   2.936   3.911   4.487  0.0068  0.5045 -1.9362
 7410TIP3    H243722   2.866   3.780   4.456  0.3316 -0.4352  0.9910
 7411TIP3   OH243723   1.588   2.787  12.815 -0.0694  0.3219 -0.3813
 7411TIP3    H143724   1.566   2.696  12.833  0.1079 -0.0725 -2.0231
 7411TIP3    H243725   1.505   2.834  12.826 -0.0682  0.0692  0.9148
 7412TIP3   OH243726   4.817   1.181   0.790  0.2589  0.1251 -0.1868
 7412TIP3    H143727   4.808   1.107   0.731 -0.0136  1.1467 -1.4644
 7412TIP3    H243728   4.861   1.145   0.867 -1.7049 -1.8165  0.1348
 7413TIP3   OH243729   2.019   3.034  13.520  0.6396  0.2938 -0.1584
 7413TIP3    H143730   1.993   2.955  13.472 -2.0517  1.1730 -0.3442
 7413TIP3    H243731   2.029   3.101  13.453  1.6684  0.4193  0.1110
 7414TIP3   OH243732   0.779   2.838  13.885  0.5821  0.2254  0.9582
 7414TIP3    H143733   0.872   2.857  13.894  0.4146  1.1337  0.8314
 7414TIP3    H243734   0.774   2.743  13.893  1.4774  0.1928  1.3276
 7415TIP3   OH243735   6.578   0.865   4.084 -0.1160  0.5621 -0.0668
 7415TIP3    H143736   6.658   0.817   4.103  1.0343  1.8699 -1.3481
 7415TIP3    H243737   6.539   0.819   4.009  0.3418  0.9096 -0.5217
 7416TIP3   OH243738   2.818   1.769   1.715  0.0141  0.7911  0.1085
 7416TIP3    H143739   2.882   1.795   1.781 -1.1728 -0.5766  1.9001
 7416TIP3    H243740   2.772   1.850   1.693  3.2159  2.1863 -2.4279
 7417TIP3   OH243741   5.991   2.419  14.546  0.2464 -1.0993  0.7021
 7417TIP3    H143742   6.009   2.495  14.490  1.1997 -0.4049  1.9038
 7417TIP3    H243743   6.015   2.343  14.493  0.6066 -0.4847 -0.0223
 7418TIP3   OH243744   4.513   2.840  14.749  0.4095  0.3668 -0.5131
 7418TIP3    H143745   4.565   2.915  14.777 -0.5180  0.0129  2.4445
 7418TIP3    H243746   4.577   2.768  14.743  0.7949  0.6760 -0.1888
 7419TIP3   OH243747   5.917   2.142  11.659  0.0315 -0.1650 -0.3346
 7419TIP3    H143748   5.850   2.138  11.728  0.9463 -1.1927  0.5500
 7419TIP3    H243749   5.875   2.188  11.587 -0.7212  1.6585  1.1816
 7420TIP3   OH243750   2.387   5.161   4.321 -0.2893  0.2016  0.1971
 7420TIP3    H143751   2.447   5.206   4.262 -1.5579  0.5064 -0.9226
 7420TIP3    H243752   2.419   5.180   4.408  0.1405  1.9334 -0.3069
 7421TIP3   OH243753   1.223   5.825   3.856  0.4425  0.1856 -0.1766
 7421TIP3    H143754   1.173   5.885   3.910 -1.5046 -0.6694 -0.9278
 7421TIP3    H243755   1.313   5.831   3.889 -0.0509  2.1052  0.9397
 7422TIP3   OH243756   1.320   2.216  13.930  0.3664 -0.2484 -0.2443
 7422TIP3    H143757   1.349   2.283  13.992  0.8819 -1.3443  0.7395
 7422TIP3    H243758   1.333   2.133  13.977  0.0211 -1.0554 -1.5332
 7423TIP3   OH243759   2.630   6.578   5.130  0.6834  0.2736 -0.2376
 7423TIP3    H143760   2.535   6.570   5.132  0.5695  1.4599 -0.1440
 7423TIP3    H243761   2.654   6.592   5.222  0.8762  0.6655 -0.3471
 7424TIP3   OH243762   2.569   0.401   3.159 -0.0852 -0.4849  0.1316
 7424TIP3    H143763   2.664   0.389   3.156 -0.1430 -0.8960 -2.2223
 7424TIP3    H243764   2.557   0.494   3.176  0.7475 -0.4213  0.4032
 7425TIP3   OH243765   0.010   5.835  13.594  0.3985 -0.4890  0.0125
 7425TIP3    H143766   0.100   5.804  13.587  0.0497 -1.2619 -2.0339
 7425TIP3    H243767  -0.028   5.784  13.665  1.3075 -0.8664  0.2374
 7426TIP3   OH243768   5.459   4.686  16.916 -0.0867  0.4782 -0.0972
 7426TIP3    H143769   5.515   4.671  16.992 -1.1288 -0.2667  0.5470
 7426TIP3    H243770   5.484   4.772  16.884 -0.3752  1.2987  1.7668
 7427TIP3   OH243771   1.070   1.019  12.269  0.0673 -0.0445 -0.2077
 7427TIP3    H143772   1.076   0.968  12.350  0.8865  1.0055  0.4239
 7427TIP3    H243773   1.082   1.110  12.298 -0.6598  0.4377 -1.3862
 7428TIP3   OH243774   0.351   2.920   3.340  0.3918  0.0168  0.3614
 7428TIP3    H143775   0.268   2.966   3.345 -0.8927 -2.0264 -0.8133
 7428TIP3    H243776   0.368   2.890   3.429 -0.1813  0.3849  0.5960
 7429TIP3   OH243777   6.526   2.021   4.699  0.5406  0.5741  0.2804
 7429TIP3    H143778   6.458   2.041   4.763  1.1102 -0.0611  1.0888
 7429TIP3    H243779   6.514   1.928   4.678  0.4135  0.7497 -0.4848
 7430TIP3   OH243780   0.132   4.469   0.671  0.4017 -0.2154 -0.6911
 7430TIP3    H143781   0.067   4.402   0.650 -1.2399  0.8624  0.6806
 7430TIP3    H243782   0.166   4.443   0.757 -0.1085  0.5769 -0.2400
 7431TIP3   OH243783   3.492   6.132   4.321 -0.2913  0.4073 -0.3237
 7431TIP3    H143784   3.553   6.205   4.322  2.1847 -1.5250 -0.1493
 7431TIP3    H243785   3.509   6.088   4.238 -0.4889 -0.9133  0.3084
 7432TIP3   OH243786   6.029   0.070  12.557  1.1495 -0.6035 -0.5960
 7432TIP3    H143787   5.946   0.023  12.555  1.1970 -0.7313  0.2279
 7432TIP3    H243788   6.007   0.156  12.592  1.5975 -1.1585  1.1395
 7433TIP3   OH243789   2.164   4.549   4.246  0.2888 -0.0890  0.0950
 7433TIP3    H143790   2.144   4.457   4.228  1.5710 -0.2937 -0.4133
 7433TIP3    H243791   2.251   4.547   4.287  0.5013  0.9195 -0.2671
 7434TIP3   OH243792   5.039   5.263  14.548 -0.1862 -0.3654  0.1886
 7434TIP3    H143793   4.983   5.310  14.486 -0.4304 -0.9909 -0.0764
 7434TIP3    H243794   5.114   5.320  14.560  0.1831 -0.5129 -1.2000
 7435TIP3   OH243795   3.125   1.571  14.215 -0.0630 -0.3051  0.5112
 7435TIP3    H143796   3.126   1.661  14.184  0.0843 -0.6684 -0.5946
 7435TIP3    H243797   3.132   1.578  14.310  2.7735  0.8049  0.3146
 7436TIP3   OH243798   2.490   4.386  16.123 -0.1814  0.1012  0.1082
 7436TIP3    H143799   2.525   4.458  16.176 -2.5691  1.9199 -0.5816
 7436TIP3    H243800   2.395   4.400  16.124 -0.4473 -0.4962 -3.5678
 7437TIP3   OH243801   2.816   3.515  15.439 -0.2775  0.2987  0.4012
 7437TIP3    H143802   2.839   3.423  15.432  0.8186  0.3982  2.1574
 7437TIP3    H243803   2.858   3.545  15.520  3.2613  3.4157 -2.1639
 7438TIP3   OH243804   3.106   4.572   5.702 -0.1040  0.1535  0.0936
 7438TIP3    H143805   3.097   4.533   5.789  1.3307  0.6954  0.5229
 7438TIP3    H243806   3.121   4.497   5.644  0.9667 -0.0945  0.6511
 7439TIP3   OH243807   5.769   6.803   6.155 -0.2919 -0.1055 -0.2941
 7439TIP3    H143808   5.765   6.892   6.188  1.1436 -0.1924  0.2000
 7439TIP3    H243809   5.780   6.749   6.234  1.7706 -0.4313 -0.7315
 7440TIP3   OH243810   4.543   0.457   4.768 -0.5076 -0.4070 -0.4762
 7440TIP3    H143811   4.476   0.491   4.827 -1.7592 -1.3500 -1.2937
 7440TIP3    H243812   4.595   0.397   4.822  0.7511  1.5478  0.5776
 7441TIP3   OH243813   5.778   3.623   1.698 -0.2738  0.5516  0.2489
 7441TIP3    H143814   5.833   3.684   1.650  1.0545 -0.7465  0.0483
 7441TIP3    H243815   5.690   3.636   1.662  0.4656  0.4655 -1.6748
 7442TIP3   OH243816   5.410   3.584  12.962 -0.1035  0.3068  0.5241
 7442TIP3    H143817   5.431   3.493  12.985 -0.5330 -0.0823 -0.5644
 7442TIP3    H243818   5.315   3.585  12.952 -0.1601  1.0114  1.0349
 7443TIP3   OH243819   4.817   0.082  11.978 -0.2781  0.2184 -0.5178
 7443TIP3    H143820   4.733   0.041  11.994  0.1768 -0.6044 -0.1780
 7443TIP3    H243821   4.824   0.150  12.046 -0.2008 -0.4387  0.1412
 7444TIP3   OH243822   5.505   4.863   1.057  0.2698 -0.0258  0.2808
 7444TIP3    H143823   5.452   4.892   0.983  0.6994  0.4422  0.1563
 7444TIP3    H243824   5.582   4.919   1.055  0.9735 -0.9716  0.2125
 7445TIP3   OH243825   0.959   3.828   2.784 -0.0931  0.2126 -0.2123
 7445TIP3    H143826   0.886   3.769   2.766 -0.0363 -0.0741  0.4725
 7445TIP3    H243827   0.951   3.849   2.877  1.7795 -1.3312  0.3592
 7446TIP3   OH243828   6.347   5.118  13.462  0.0121  0.3379 -0.1146
 7446TIP3    H143829   6.432   5.154  13.439  0.5614 -1.4064 -0.9637
 7446TIP3    H243830   6.298   5.116  13.380 -0.7127  0.9699  0.2951
 7447TIP3   OH243831   2.685   2.537   5.325 -0.3212  0.2889  0.3740
 7447TIP3    H143832   2.648   2.479   5.258 -1.7990  0.5001  0.9684
 7447TIP3    H243833   2.667   2.625   5.292 -0.4646  0.3907  0.7197
 7448TIP3   OH243834   4.884   6.307   1.678 -0.4518 -0.2232 -0.0402
 7448TIP3    H143835   4.885   6.255   1.597 -0.5463  0.7912 -0.7104
 7448TIP3    H243836   4.972   6.296   1.715 -0.6838 -1.4133  0.2118
 7449TIP3   OH243837   3.584   4.637   2.535 -0.1236  0.9168 -0.0383
 7449TIP3    H143838   3.608   4.631   2.627  0.4091 -1.9766 -0.2745
 7449TIP3    H243839   3.491   4.617   2.532  0.3607 -1.7264 -0.2508
 7450TIP3   OH243840   2.637   0.890   1.775  0.1490 -0.3027 -0.3774
 7450TIP3    H143841   2.623   0.909   1.867  0.9397 -4.0471  0.6824
 7450TIP3    H243842   2.729   0.863   1.770  0.4352  0.8397 -2.5077
 7451TIP3   OH243843   2.189   4.295   5.267  0.0439  0.2619 -0.4933
 7451TIP3    H143844   2.214   4.320   5.178 -1.4530  0.9532 -0.7481
 7451TIP3    H243845   2.099   4.262   5.259 -1.0073  2.4763  1.0533
 7452TIP3   OH243846   4.187   5.093   4.211  0.0914  0.0812 -0.2868
 7452TIP3    H143847   4.136   5.131   4.139 -0.3963  0.2657  0.1515
 7452TIP3    H243848   4.203   5.166   4.270  0.8121  0.0065 -0.3837
 7453TIP3   OH243849   6.465   1.131  11.248  0.1664  0.5856 -0.1811
 7453TIP3    H143850   6.445   1.223  11.264  1.8086  1.4103 -2.4042
 7453TIP3    H243851   6.561   1.128  11.245  0.1405 -1.2377 -0.0009
 7454TIP3   OH243852   4.809   1.646  14.381  0.4536 -0.1276 -0.3316
 7454TIP3    H143853   4.890   1.690  14.403  0.4432  0.1351 -0.7997
 7454TIP3    H243854   4.829   1.553  14.389  0.3450 -0.0494  1.1186
 7455TIP3   OH243855   3.627   1.259   1.691  0.5704  0.3141 -0.1274
 7455TIP3    H143856   3.673   1.208   1.624  0.2213 -0.2350  0.0375
 7455TIP3    H243857   3.581   1.327   1.642 -0.0628 -0.3675 -0.5125
 7456TIP3   OH243858   4.418   2.867   4.682 -0.2951  0.0735  0.4016
 7456TIP3    H143859   4.330   2.904   4.673 -0.0321  0.4666 -0.6615
 7456TIP3    H243860   4.476   2.941   4.666  0.2754  0.2795  2.9612
 7457TIP3   OH243861   4.219   1.346   6.124  0.4009  0.3257  0.3975
 7457TIP3    H143862   4.185   1.259   6.105 -1.7908  1.6418 -2.5046
 7457TIP3    H243863   4.309   1.344   6.091  0.1442 -0.6450 -0.2882
 7458TIP3   OH243864   3.078   5.318   4.459  0.5619 -0.2918  0.2585
 7458TIP3    H143865   3.161   5.344   4.420  1.3667 -1.0151  1.4073
 7458TIP3    H243866   3.037   5.261   4.394  1.5755 -0.9760  0.2067
 7459TIP3   OH243867   0.987   5.556  11.309  0.4109  0.2907  0.1992
 7459TIP3    H143868   1.046   5.523  11.242 -0.1081 -1.2032  0.4313
 7459TIP3    H243869   0.910   5.586  11.261  0.2190 -0.3717  0.0853
 7460TIP3   OH243870   2.119   1.289   4.951  0.2491  0.1166 -0.1830
 7460TIP3    H143871   2.167   1.286   5.034 -0.0019  0.9154  0.0009
 7460TIP3    H243872   2.124   1.381   4.924 -0.7563  0.1073 -0.4137
 7461TIP3   OH243873   2.085   6.405   4.306 -0.5149 -0.0577 -0.4041
 7461TIP3    H143874   2.083   6.311   4.289  0.0783 -0.2906  0.6900
 7461TIP3    H243875   2.084   6.446   4.219 -0.8986 -1.0657 -0.8811
 7462TIP3   OH243876   3.466   3.957   5.553  0.5654  0.6472  0.5904
 7462TIP3    H143877   3.396   3.979   5.491  0.5859 -2.1982 -0.6213
 7462TIP3    H243878   3.546   3.962   5.501  0.7022 -0.6905  0.6362
 7463TIP3   OH243879   6.256   3.617  14.555  0.3388 -0.9002 -0.0088
 7463TIP3    H143880   6.271   3.678  14.627 -1.9145 -0.2805  0.0238
 7463TIP3    H243881   6.329   3.631  14.495  0.8061  0.5564  0.8683
 7464TIP3   OH243882   3.418   1.600  14.493  0.5365 -0.2998  0.1345
 7464TIP3    H143883   3.333   1.566  14.467  0.4125 -1.3060  1.7335
 7464TIP3    H243884   3.481   1.552  14.439  0.1693 -0.5444 -0.0777
 7465TIP3   OH243885   0.280   0.524  14.811  0.0159  0.4640  0.3630
 7465TIP3    H143886   0.331   0.601  14.835  0.5238  1.3863 -3.1168
 7465TIP3    H243887   0.190   0.546  14.835  0.2349  1.9787 -0.1284
 7466TIP3   OH243888   2.540   3.488   2.692  0.3090 -0.2643  0.1367
 7466TIP3    H143889   2.452   3.457   2.708 -0.1093  0.4824 -0.6210
 7466TIP3    H243890   2.570   3.522   2.777 -0.1765 -0.4120  0.3664
 7467TIP3   OH243891   2.326   4.480   5.423  0.7415  0.1714 -0.2173
 7467TIP3    H143892   2.336   4.554   5.363  0.9768  0.7144  0.4673
 7467TIP3    H243893   2.286   4.411   5.370 -0.4897  1.1476 -0.6154
 7468TIP3   OH243894   0.898   2.372   1.968  1.2641  0.2603  0.2113
 7468TIP3    H143895   0.804   2.387   1.961  1.4677  1.5142 -0.1391
 7468TIP3    H243896   0.931   2.384   1.878  1.8849  0.8542  0.5098
 7469TIP3   OH243897   6.373   3.261  12.832  0.3001 -0.1881  0.1263
 7469TIP3    H143898   6.320   3.193  12.791  0.8495  0.4915 -1.8431
 7469TIP3    H243899   6.313   3.306  12.891 -1.3919  0.5353 -1.9988
 7470TIP3   OH243900   1.222   0.263   4.534  0.1079 -0.3289  0.2079
 7470TIP3    H143901   1.204   0.349   4.495  0.5401 -0.1162  0.4725
 7470TIP3    H243902   1.212   0.277   4.629 -0.5101 -0.7382  0.2072
 7471TIP3   OH243903   1.559   5.074  11.544  0.4614 -0.0105 -0.9593
 7471TIP3    H143904   1.518   5.059  11.629  3.6456 -0.3492  0.6625
 7471TIP3    H243905   1.499   5.133  11.499 -1.2021  0.4621  1.6227
 7472TIP3   OH243906   4.409   6.815  12.277 -0.0223  0.3549  0.4032
 7472TIP3    H143907   4.473   6.794  12.345  0.9965  0.4057 -0.5248
 7472TIP3    H243908   4.325   6.789  12.315  0.6947 -1.0528  1.0862
 7473TIP3   OH243909   1.951   2.751   0.637  0.5272  0.0152  0.3481
 7473TIP3    H143910   1.973   2.791   0.722  1.8468  0.1511 -0.0325
 7473TIP3    H243911   1.925   2.825   0.582 -0.0985 -0.0451  0.5535
 7474TIP3   OH243912   3.124   1.649   0.677  0.1216 -0.0078 -0.2539
 7474TIP3    H143913   3.055   1.665   0.613 -0.5477 -1.4646  0.0698
 7474TIP3    H243914   3.173   1.575   0.642 -0.2328 -0.8006  0.8816
 7475TIP3   OH243915   1.434   6.426   4.976  0.1436 -0.8923  0.2573
 7475TIP3    H143916   1.521   6.423   5.015  0.2497 -0.8182  0.0258
 7475TIP3    H243917   1.449   6.411   4.883 -0.0731 -0.6795  0.1878
 7476TIP3   OH243918   4.951   4.649   2.579 -0.4905 -0.2987  0.0317
 7476TIP3    H143919   4.980   4.677   2.492  0.8591  1.9033  1.0929
 7476TIP3    H243920   5.028   4.609   2.617  0.0463  1.8333  1.3756
 7477TIP3   OH243921   2.012   1.921  15.557  0.0146 -0.9469  0.0696
 7477TIP3    H143922   2.054   1.956  15.636  1.0078  0.7802 -1.1519
 7477TIP3    H243923   1.923   1.898  15.585  0.8126 -1.8504  2.0185
 7478TIP3   OH243924   5.413   3.478  12.249 -0.0362 -0.0998 -0.1285
 7478TIP3    H143925   5.434   3.411  12.184  1.9181  0.3342  0.0135
 7478TIP3    H243926   5.478   3.466  12.319 -0.0800  1.4997  0.2207
 7479TIP3   OH243927   4.705   1.922  11.145  0.3546 -0.7629 -0.5160
 7479TIP3    H143928   4.632   1.924  11.207  0.6711 -1.3826 -0.1057
 7479TIP3    H243929   4.729   2.014  11.133  0.0533 -0.6136 -0.0019
 7480TIP3   OH243930   0.028   5.595  16.207 -0.0217  0.1754  0.0315
 7480TIP3    H143931   0.118   5.582  16.176 -0.5113  1.1135 -1.9369
 7480TIP3    H243932   0.027   5.684  16.242 -0.4885  0.7097 -1.2735
 7481TIP3   OH243933   6.169   0.832  13.328 -0.0754  0.1639 -0.2986
 7481TIP3    H143934   6.091   0.781  13.348  0.4826 -0.8300 -0.5760
 7481TIP3    H243935   6.188   0.881  13.408  0.2893 -1.3008  0.5521
 7482TIP3   OH243936   6.460   5.492  12.373 -0.1279  0.1318 -0.1872
 7482TIP3    H143937   6.428   5.563  12.318  1.1976  0.1153 -1.0115
 7482TIP3    H243938   6.494   5.535  12.452 -1.4941  0.1979  0.3989
 7483TIP3   OH243939   6.257   1.214   0.496 -0.3926 -0.6550 -0.3489
 7483TIP3    H143940   6.328   1.262   0.538 -1.6119 -1.0722  2.3803
 7483TIP3    H243941   6.185   1.277   0.491 -0.7055 -1.0248 -0.5576
 7484TIP3   OH243942   0.023   0.807   4.070 -0.1624  1.0627  0.1085
 7484TIP3    H143943   0.062   0.796   4.157 -1.4353 -1.0945  0.5011
 7484TIP3    H243944   0.097   0.806   4.009  0.6388  1.0315  1.0599
 7485TIP3   OH243945   2.105   3.879   4.065  0.1191 -0.0637  0.7606
 7485TIP3    H143946   2.144   3.857   3.980  0.0770 -3.2438  1.4178
 7485TIP3    H243947   2.174   3.925   4.112  0.5826  0.6190 -0.5276
 7486TIP3   OH243948   2.355   1.980   0.749 -0.2525 -0.4693 -0.2181
 7486TIP3    H143949   2.292   2.049   0.768  0.9365  0.4984  0.3510
 7486TIP3    H243950   2.333   1.910   0.811 -1.8044 -0.8690 -1.1636
 7487TIP3   OH243951   1.878   1.768  14.772 -0.6624 -0.0193 -0.4298
 7487TIP3    H143952   1.865   1.799  14.862 -2.0587 -3.2705  0.6586
 7487TIP3    H243953   1.971   1.746  14.767 -0.5165  0.4593  0.1378
 7488TIP3   OH243954   2.841   1.111   0.481  0.7543 -0.1048 -0.0634
 7488TIP3    H143955   2.756   1.076   0.453  0.6724  0.3966 -0.4488
 7488TIP3    H243956   2.906   1.056   0.437  0.6273  0.4811 -0.9939
 7489TIP3   OH243957   2.020   5.890  15.452  0.0814  0.2112  0.0597
 7489TIP3    H143958   2.068   5.936  15.383  0.2293  0.2464  0.1857
 7489TIP3    H243959   2.082   5.827  15.487 -0.5532 -1.0897 -1.0796
 7490TIP3   OH243960   2.105   6.793  10.809  1.2213  0.0399 -0.3170
 7490TIP3    H143961   2.021   6.832  10.783  1.7743  1.2438 -0.3264
 7490TIP3    H243962   2.135   6.847  10.882  0.8752 -1.8236  1.2975
 7491TIP3   OH243963   4.414   6.191  13.526  0.0097 -0.0630 -0.4470
 7491TIP3    H143964   4.479   6.204  13.456  1.3732 -3.8853 -0.1457
 7491TIP3    H243965   4.462   6.208  13.607 -0.1429 -0.3389 -0.2980
 7492TIP3   OH243966   2.432   3.791   6.263  0.6034 -0.1791  0.2864
 7492TIP3    H143967   2.433   3.701   6.295  2.0618 -0.6894 -1.0666
 7492TIP3    H243968   2.415   3.783   6.169 -2.0513  1.1710  0.5487
 7493TIP3   OH243969   0.376   0.487   4.613 -0.3205 -0.3576  0.1905
 7493TIP3    H143970   0.402   0.397   4.635 -0.6464 -0.4524  0.1861
 7493TIP3    H243971   0.356   0.484   4.520 -1.1657 -0.4772  0.3709
 7494TIP3   OH243972   3.298   6.593  16.803  0.1082  0.6598 -0.1601
 7494TIP3    H143973   3.385   6.615  16.769  0.8834 -2.7137 -0.6904
 7494TIP3    H243974   3.313   6.569  16.895 -0.4342  0.9469  0.0100
 7495TIP3   OH243975   4.000   2.053   3.912 -0.5654 -0.5598  0.1781
 7495TIP3    H143976   4.030   2.140   3.941 -2.4640  0.5252 -0.9207
 7495TIP3    H243977   3.974   2.008   3.993  2.1645 -0.8889  0.9777
 7496TIP3   OH243978   3.335   4.075   1.472 -0.4693 -0.0827  0.1430
 7496TIP3    H143979   3.418   4.077   1.520 -0.4551  1.7650  0.1108
 7496TIP3    H243980   3.326   4.163   1.436 -2.0274 -0.5110 -0.6034
 7497TIP3   OH243981   2.080   0.103  15.922 -0.4197  0.0498 -0.2792
 7497TIP3    H143982   2.025   0.129  15.996 -0.8922  1.1788 -1.0120
 7497TIP3    H243983   2.045   0.017  15.896 -0.9167  0.1121  0.1601
 7498TIP3   OH243984   2.475   4.233   4.114 -0.0677  0.1274 -0.6667
 7498TIP3    H143985   2.505   4.312   4.070 -0.2483 -0.6030 -2.1442
 7498TIP3    H243986   2.553   4.200   4.159  0.0886  0.9451 -0.3251
 7499TIP3   OH243987   1.245   1.252  14.067 -0.1395 -0.3454  0.2533
 7499TIP3    H143988   1.321   1.260  14.009 -1.3020  2.4275 -1.0443
 7499TIP3    H243989   1.282   1.259  14.155  1.1272  1.3660 -0.3654
 7500TIP3   OH243990   5.038   6.204  10.352 -0.0659  0.3125 -0.1632
 7500TIP3    H143991   4.980   6.273  10.318  0.9518  1.1843 -0.1957
 7500TIP3    H243992   4.990   6.167  10.426 -0.7837  0.8048 -0.3643
 7501TIP3   OH243993   3.584   5.286   5.524  0.4848 -0.4620 -0.0797
 7501TIP3    H143994   3.525   5.214   5.542 -0.0214  0.0914  0.5577
 7501TIP3    H243995   3.535   5.364   5.550  1.2854  0.0504 -0.0663
 7502TIP3   OH243996   0.217   4.308   3.670 -0.1980 -0.0991 -0.3975
 7502TIP3    H143997   0.134   4.331   3.627  0.9416  1.0136 -2.0897
 7502TIP3    H243998   0.190   4.282   3.758 -2.4022 -0.2767 -1.0440
 7503TIP3   OH243999   6.263   5.869   5.675 -0.0986 -0.4928 -0.3845
 7503TIP3    H144000   6.216   5.919   5.741 -0.8510 -0.0931 -1.1949
 7503TIP3    H244001   6.197   5.811   5.637  0.3882 -0.9334 -0.5762
 7504TIP3   OH244002   5.509   6.156  11.400  0.1341  0.0024 -0.1244
 7504TIP3    H144003   5.533   6.076  11.447 -1.2453  0.1936  0.9921
 7504TIP3    H244004   5.552   6.149  11.315  1.7159 -0.9506  0.7142
 7505TIP3   OH244005   1.763   2.189   6.291 -0.7858 -0.1222  0.0351
 7505TIP3    H144006   1.793   2.103   6.320 -2.4735  0.0878  2.6577
 7505TIP3    H244007   1.726   2.230   6.369  1.1989  3.5979 -0.7482
 7506TIP3   OH244008   3.052   3.985  12.048 -0.3307 -0.4044  0.2956
 7506TIP3    H144009   3.043   4.079  12.066  1.9689  0.2615 -1.5703
 7506TIP3    H244010   2.970   3.947  12.080 -1.4049  2.2430  0.9831
 7507TIP3   OH244011   3.434   5.169   3.910  0.5516 -0.5884 -0.1336
 7507TIP3    H144012   3.436   5.151   4.004  0.2284  1.2121  0.2680
 7507TIP3    H244013   3.523   5.197   3.889  0.2901  0.3722 -0.0299
 7508TIP3   OH244014   2.367   0.103  14.629  0.3615  0.0744  0.1854
 7508TIP3    H144015   2.302   0.114  14.699  0.2684  1.7972 -0.1066
 7508TIP3    H244016   2.328   0.149  14.554  1.4291  0.1716 -0.3239
 7509TIP3   OH244017   6.005   0.459   0.172  0.3807 -0.4400  0.0785
 7509TIP3    H144018   5.957   0.377   0.186  0.8529 -1.0967 -1.7962
 7509TIP3    H244019   5.953   0.506   0.107  1.5329 -0.5673 -0.9800
 7510TIP3   OH244020   4.271   1.706  16.575 -0.2334  0.1980 -0.4311
 7510TIP3    H144021   4.236   1.788  16.540 -2.4404 -0.4702  0.0448
 7510TIP3    H244022   4.196   1.647  16.578  0.5150 -0.7804  2.4071
 7511TIP3   OH244023   3.022   2.921   0.147 -0.3153  0.5718  0.2726
 7511TIP3    H144024   3.101   2.925   0.201 -0.2669  0.0743  0.2463
 7511TIP3    H244025   2.958   2.875   0.201 -0.7294  1.3510  0.4583
 7512TIP3   OH244026   1.153   5.041  12.523 -0.1500  0.1666  0.7062
 7512TIP3    H144027   1.111   5.125  12.502  0.1817  0.0410 -0.5908
 7512TIP3    H244028   1.103   4.976  12.473  1.4037 -0.0057 -0.7371
 7513TIP3   OH244029   6.300   5.662   1.109  0.0741  0.2033 -0.0529
 7513TIP3    H144030   6.318   5.692   1.019 -0.2862 -1.6383 -0.7803
 7513TIP3    H244031   6.269   5.572   1.098 -1.9822  0.6042  1.7625
 7514TIP3   OH244032   6.764   4.116   4.327 -0.1275  0.2058 -0.0909
 7514TIP3    H144033   6.740   4.188   4.385  0.5143 -0.1022  0.5800
 7514TIP3    H244034   6.839   4.074   4.371 -0.8102 -1.1869 -0.1895
 7515TIP3   OH244035   4.467   1.803  11.007  0.5464 -0.5628  0.4387
 7515TIP3    H144036   4.515   1.812  11.089  2.0449 -0.7798 -0.3818
 7515TIP3    H244037   4.526   1.753  10.950 -1.1547 -1.9211 -0.2248
 7516TIP3   OH244038   1.617   4.142  14.451  0.3969 -0.4186  0.2431
 7516TIP3    H144039   1.563   4.075  14.409  0.0378 -0.4428  0.7244
 7516TIP3    H244040   1.707   4.114  14.436  0.2481 -1.1808  0.6996
 7517TIP3   OH244041   0.180   2.595   4.916 -0.2211 -0.1195 -1.5272
 7517TIP3    H144042   0.099   2.555   4.947  0.3812 -1.0095 -1.0613
 7517TIP3    H244043   0.236   2.599   4.993  0.6753 -0.7767 -2.1189
 7518TIP3   OH244044   3.041   2.609  12.586  0.3502  0.2894 -0.3754
 7518TIP3    H144045   2.985   2.628  12.510 -1.2875 -1.9266  0.1591
 7518TIP3    H244046   2.979   2.583  12.655  1.9209  0.1939  1.0643
 7519TIP3   OH244047   1.672   2.806  16.283 -0.4056  0.0537  0.0320
 7519TIP3    H144048   1.649   2.833  16.372 -0.0625  3.0051 -0.6729
 7519TIP3    H244049   1.761   2.771  16.291  1.3529  4.0663  0.4336
 7520TIP3   OH244050   3.025   3.146   5.710 -0.1631 -0.0258  0.2187
 7520TIP3    H144051   3.009   3.215   5.775  0.4365  0.1267  0.2104
 7520TIP3    H244052   3.084   3.186   5.646 -0.7745 -0.1643 -0.4466
 7521TIP3   OH244053   2.043   3.517   5.077  0.5288  0.2866  0.5837
 7521TIP3    H144054   2.011   3.458   5.009  0.9443 -0.3161  0.8922
 7521TIP3    H244055   1.972   3.520   5.142  0.2273  0.6799  0.2427
 7522TIP3   OH244056   6.763   4.547  10.981  0.2191 -0.1149  0.7093
 7522TIP3    H144057   6.715   4.495  10.917 -0.0669  1.6241 -0.5595
 7522TIP3    H244058   6.699   4.569  11.048 -0.4724  1.0815 -0.2977
 7523TIP3   OH244059   1.965   4.303   4.906 -0.3332  0.0506  0.1755
 7523TIP3    H144060   1.942   4.227   4.959  0.5667  0.6342  1.4756
 7523TIP3    H244061   1.983   4.268   4.819  0.4067 -1.2873  0.8366
 7524TIP3   OH244062   6.713   4.025  16.527 -0.3689 -0.4154 -0.4192
 7524TIP3    H144063   6.627   3.988  16.549 -0.0124 -1.4746 -0.7582
 7524TIP3    H244064   6.694   4.115  16.503 -1.4658 -0.7720 -0.9950
 7525TIP3   OH244065   1.061   2.618   5.477 -0.0290  0.2864  0.3664
 7525TIP3    H144066   1.134   2.669   5.442  1.3266 -1.4524  0.4901
 7525TIP3    H244067   1.085   2.527   5.458 -2.5379 -0.3305 -0.2674
 7526TIP3   OH244068   3.535   1.709   4.641  0.0346  0.9251 -0.0314
 7526TIP3    H144069   3.579   1.715   4.557 -0.1545 -1.1258 -0.3372
 7526TIP3    H244070   3.587   1.646   4.691 -0.4654  1.2880  0.9757
 7527TIP3   OH244071   4.887   1.634   0.510  0.3674 -0.3511  0.3161
 7527TIP3    H144072   4.943   1.631   0.432  1.0097 -0.6057  0.7767
 7527TIP3    H244073   4.824   1.563   0.497  0.3532 -0.2694 -0.0614
 7528TIP3   OH244074   6.720   2.452   3.818 -0.2403  0.3763  0.0163
 7528TIP3    H144075   6.729   2.458   3.723 -1.1488  0.4913 -0.0759
 7528TIP3    H244076   6.706   2.358   3.834  0.8677  0.2245  0.1383
 7529TIP3   OH244077   6.511   4.398  10.858 -0.0030  0.3646  0.5751
 7529TIP3    H144078   6.452   4.416  10.931 -1.1650 -1.0456  0.0244
 7529TIP3    H244079   6.492   4.467  10.794 -0.2132  0.6022  0.8950
 7530TIP3   OH244080   5.448   4.062  13.688 -0.4537 -0.1872 -0.4496
 7530TIP3    H144081   5.353   4.063  13.679 -0.5270 -1.0430  0.0918
 7530TIP3    H244082   5.467   4.128  13.755 -0.7406 -0.5431 -0.0114
 7531TIP3   OH244083   6.672   4.459  16.802  0.1160 -0.6464  0.2799
 7531TIP3    H144084   6.712   4.520  16.740 -0.4072 -0.2762  0.3040
 7531TIP3    H244085   6.578   4.467  16.788 -0.0466 -0.0659  1.5720
 7532TIP3   OH244086   1.530   0.846   2.026 -0.6026  0.1834  0.1326
 7532TIP3    H144087   1.437   0.868   2.039 -1.4001 -2.3003 -0.8283
 7532TIP3    H244088   1.548   0.871   1.936 -0.0525  1.4367  0.5676
 7533TIP3   OH244089   2.093   1.942   5.457  0.0080 -0.2647  0.5122
 7533TIP3    H144090   2.028   1.873   5.440 -0.9736  0.6728  0.3777
 7533TIP3    H244091   2.056   2.021   5.419  0.9205  0.4469  1.0417
 7534TIP3   OH244092   2.851   2.050   5.004  0.3374  0.3332  0.0513
 7534TIP3    H144093   2.792   2.103   4.950  1.2456 -0.2619 -1.5928
 7534TIP3    H244094   2.812   1.963   5.003  1.3751 -0.1508 -1.3434
 7535TIP3   OH244095   2.006   2.104   1.478 -0.4825  0.0216  0.3810
 7535TIP3    H144096   2.055   2.186   1.472 -1.7947  0.9922  1.9608
 7535TIP3    H244097   2.000   2.073   1.388 -0.0687  1.7316 -0.2724
 7536TIP3   OH244098   6.809   2.224   4.489  0.2446 -0.0640  0.1645
 7536TIP3    H144099   6.716   2.204   4.493  0.3511 -0.7771 -0.6542
 7536TIP3    H244100   6.852   2.138   4.500  0.8152  0.3211  1.0609
 7537TIP3   OH244101   0.439   6.708  16.285 -0.2895 -0.0890 -0.5598
 7537TIP3    H144102   0.518   6.740  16.329 -0.7034 -0.4970  0.5217
 7537TIP3    H244103   0.468   6.631  16.236  0.2365  0.5396 -1.2622
 7538TIP3   OH244104   5.167   6.499   3.985 -0.7064 -0.0023  0.1555
 7538TIP3    H144105   5.092   6.554   4.010 -0.9063 -0.4538  0.5675
 7538TIP3    H244106   5.179   6.516   3.892  0.1876  1.9149  0.5569
 7539TIP3   OH244107   3.614   3.111   2.474 -0.4813 -0.3406 -0.1253
 7539TIP3    H144108   3.680   3.080   2.535 -0.6753  1.8741  1.3023
 7539TIP3    H244109   3.560   3.034   2.456  1.6053 -1.8527 -0.2547
 7540TIP3   OH244110   5.021   3.417  12.767  0.0678 -0.0470  0.1436
 7540TIP3    H144111   4.926   3.427  12.756 -0.4191 -0.6670  2.9816
 7540TIP3    H244112   5.053   3.507  12.778 -0.3920  0.0839  0.4537
 7541TIP3   OH244113   2.193   6.539  13.523  0.3873 -0.0603  0.0196
 7541TIP3    H144114   2.109   6.522  13.479 -0.1052  1.9515  0.0605
 7541TIP3    H244115   2.181   6.505  13.611  0.2215 -1.2762 -0.4574
 7542TIP3   OH244116   6.079   2.767  11.329 -0.1161  0.2911 -0.1742
 7542TIP3    H144117   5.998   2.798  11.369 -0.5139 -0.7886 -0.1311
 7542TIP3    H244118   6.148   2.796  11.389 -0.7102 -1.4032  1.3937
 7543TIP3   OH244119   3.600   3.015   4.132 -0.1389 -0.4854  0.2452
 7543TIP3    H144120   3.587   3.060   4.048 -0.6679 -0.5639  0.2810
 7543TIP3    H244121   3.531   3.050   4.189 -1.0806 -1.9234  0.0341
 7544TIP3   OH244122   1.746   1.246  13.887 -0.0395  0.3956  0.2258
 7544TIP3    H144123   1.751   1.329  13.839 -2.6750  0.1032 -0.7372
 7544TIP3    H244124   1.835   1.211  13.885  0.8493  2.5402 -0.5366
 7545TIP3   OH244125   3.372   4.818   4.030 -0.5474 -0.4251  1.1744
 7545TIP3    H144126   3.444   4.880   4.045 -0.2752  0.0627 -1.6195
 7545TIP3    H244127   3.411   4.732   4.044  0.6329 -0.1639 -0.2394
 7546TIP3   OH244128   4.851   4.046   2.333  0.0327 -0.3256 -0.3813
 7546TIP3    H144129   4.897   4.084   2.408  0.6202 -1.3171 -0.2249
 7546TIP3    H244130   4.911   3.981   2.298 -0.0080  0.4802 -2.0627
 7547TIP3   OH244131   3.600   0.768   1.472 -0.2416  0.1935 -0.3663
 7547TIP3    H144132   3.617   0.854   1.510 -0.6883  0.7649 -1.4074
 7547TIP3    H244133   3.513   0.744   1.504  0.1006 -0.1243  0.3494
 7548TIP3   OH244134   6.744   6.237   1.866  0.2353  0.4649 -0.3032
 7548TIP3    H144135   6.690   6.187   1.805  0.1177 -0.0557  0.2267
 7548TIP3    H244136   6.686   6.307   1.897  0.3150  0.7713 -0.8313
 7549TIP3   OH244137   3.602   4.235  12.555  0.5619  0.1668 -0.0537
 7549TIP3    H144138   3.668   4.247  12.624  1.3965 -1.8598 -0.4099
 7549TIP3    H244139   3.534   4.183  12.598  0.2113  0.4395 -0.2798
 7550TIP3   OH244140   4.098   4.871   2.282  0.0386 -0.2410 -0.0827
 7550TIP3    H144141   4.109   4.963   2.256  0.3098 -0.4442 -0.7136
 7550TIP3    H244142   4.116   4.871   2.376 -1.0862  0.5379  0.1600
 7551TIP3   OH244143   1.129   2.283   0.445  0.1023  0.1724 -0.0385
 7551TIP3    H144144   1.210   2.304   0.399  1.3762 -4.0175 -0.1088
 7551TIP3    H244145   1.155   2.277   0.537 -0.4282  0.0724  0.1072
 7552TIP3   OH244146   2.847   4.983  13.987  0.0860 -0.5596 -0.2639
 7552TIP3    H144147   2.913   4.950  14.047  0.3969 -1.2050 -0.9399
 7552TIP3    H244148   2.763   4.966  14.030  0.3359  2.9361  1.9931
 7553TIP3   OH244149   4.589   3.983  12.856 -0.1341  0.3427  0.1866
 7553TIP3    H144150   4.564   4.064  12.901  0.9696  0.6040  0.3636
 7553TIP3    H244151   4.605   3.921  12.927  0.4228  0.3959  0.1100
 7554TIP3   OH244152   3.846   2.764  16.298  0.0731 -0.1543  0.3609
 7554TIP3    H144153   3.778   2.823  16.266  0.9571  0.3827 -0.5847
 7554TIP3    H244154   3.824   2.679  16.260  0.3247  0.1760 -0.5371
 7555TIP3   OH244155   6.654   3.144  12.535  0.0851  0.4158  0.0753
 7555TIP3    H144156   6.743   3.170  12.509 -0.5843  0.5901 -2.2428
 7555TIP3    H244157   6.663   3.053  12.562  1.0645  0.6176  0.4869
 7556TIP3   OH244158   2.346   1.150   5.144  0.1259 -0.1371 -0.0087
 7556TIP3    H144159   2.433   1.112   5.135 -0.5359 -2.2528  1.5413
 7556TIP3    H244160   2.309   1.107   5.221 -1.3471  2.6388  0.9649
 7557TIP3   OH244161   3.952   5.104  16.493 -0.2005 -0.2750 -0.5813
 7557TIP3    H144162   3.929   5.012  16.504 -2.9027  0.3318 -0.4044
 7557TIP3    H244163   3.903   5.132  16.416  0.3367  1.0783 -0.4518
 7558TIP3   OH244164   2.705   6.335   5.387 -0.5409 -0.5333  0.1074
 7558TIP3    H144165   2.664   6.294   5.463 -0.7606 -0.2895  0.1217
 7558TIP3    H244166   2.634   6.346   5.324 -0.3646 -0.7082 -0.1231
 7559TIP3   OH244167   2.046   2.934  14.477  0.8700 -0.1189  0.3324
 7559TIP3    H144168   1.988   2.977  14.414  1.2048  0.9949  0.7637
 7559TIP3    H244169   1.988   2.877  14.528  0.6920 -1.5856 -1.4042
 7560TIP3   OH244170   2.203   0.461  14.510  0.2375  0.6206  0.0489
 7560TIP3    H144171   2.290   0.498  14.491 -0.7197  2.2264 -1.6362
 7560TIP3    H244172   2.142   0.530  14.483 -1.5672  0.2175  2.7422
 7561TIP3   OH244173   1.076   1.182   3.820  0.3143  0.3541  0.1066
 7561TIP3    H144174   1.138   1.110   3.831 -1.7422 -1.6572 -0.6264
 7561TIP3    H244175   1.102   1.223   3.737  1.7143  0.7458  0.7027
 7562TIP3   OH244176   6.587   6.211   3.400 -0.0863  0.0853 -0.2173
 7562TIP3    H144177   6.512   6.159   3.429 -0.3315  0.0405 -0.9179
 7562TIP3    H244178   6.621   6.251   3.480 -0.1000 -0.8807  0.2875
 7563TIP3   OH244179   5.834   6.242  11.372 -0.4911 -1.2170  0.0805
 7563TIP3    H144180   5.780   6.316  11.400  0.8028 -0.6472  1.2052
 7563TIP3    H244181   5.802   6.220  11.285 -0.7711  0.8160 -0.3704
 7564TIP3   OH244182   0.587   6.310   5.349  0.5403 -0.4978  0.1166
 7564TIP3    H144183   0.604   6.278   5.261 -0.4254 -0.7186  0.0079
 7564TIP3    H244184   0.674   6.313   5.390  1.2513  1.2711 -1.3705
 7565TIP3   OH244185   6.218   1.325  15.106 -0.0505 -0.0599  0.1268
 7565TIP3    H144186   6.267   1.406  15.101 -1.8360  1.2651  2.2642
 7565TIP3    H244187   6.267   1.270  15.167  1.1966 -0.6951 -1.3783
 7566TIP3   OH244188   5.860   0.260  11.270 -0.0384 -0.2242 -0.0343
 7566TIP3    H144189   5.922   0.245  11.342  2.3334  2.5901 -1.2679
 7566TIP3    H244190   5.784   0.301  11.311  0.5007 -0.3323  1.1017
 7567TIP3   OH244191   6.211   2.743  13.275  0.1594 -0.7189 -0.5780
 7567TIP3    H144192   6.283   2.794  13.311 -0.1506 -0.9820  0.4506
 7567TIP3    H244193   6.244   2.653  13.275 -0.4805 -0.9853  0.8132
 7568TIP3   OH244194   4.653   0.484  16.453 -0.3620 -0.0551  0.9230
 7568TIP3    H144195   4.705   0.477  16.533 -0.2886 -0.1015  0.8726
 7568TIP3    H244196   4.570   0.442  16.475 -0.4677  0.2337  1.0793
 7569TIP3   OH244197   5.153   5.490   1.740 -0.5354  0.5609  0.0582
 7569TIP3    H144198   5.216   5.561   1.756 -0.6995  0.9124 -0.8107
 7569TIP3    H244199   5.084   5.531   1.688 -0.6724 -0.2222 -0.3784
 7570TIP3   OH244200   1.794   6.737   1.948  0.3396 -0.0281  0.4726
 7570TIP3    H144201   1.756   6.721   1.862  0.9705  0.0447  0.1783
 7570TIP3    H244202   1.725   6.711   2.009 -0.3393  0.4996 -0.0522
 7571TIP3   OH244203   5.878   5.104  15.514 -0.0021 -0.4723  0.2815
 7571TIP3    H144204   5.945   5.138  15.573 -0.1523 -0.7851  0.6367
 7571TIP3    H244205   5.882   5.009  15.524 -1.5112 -0.4403  1.4496
 7572TIP3   OH244206   1.263   3.310  12.916 -0.1774 -0.1183  0.5433
 7572TIP3    H144207   1.216   3.263  12.848 -0.0236  0.2191  0.2002
 7572TIP3    H244208   1.264   3.249  12.991  0.7852 -1.0212 -0.1747
 7573TIP3   OH244209   4.413   2.079  15.491  0.1812  0.2466  0.2564
 7573TIP3    H144210   4.413   2.011  15.424 -1.2154  0.8872 -0.4397
 7573TIP3    H244211   4.347   2.142  15.461  0.6917  1.3711  1.4140
 7574TIP3   OH244212   0.711   2.753   1.372 -0.1320 -0.1864  0.1862
 7574TIP3    H144213   0.774   2.695   1.414 -0.4589 -0.1932  0.6739
 7574TIP3    H244214   0.676   2.702   1.299 -0.7362 -0.7680  0.8690
 7575TIP3   OH244215   2.925   2.657   3.140  0.0534 -0.2557  0.3714
 7575TIP3    H144216   2.904   2.691   3.227  0.8320  0.2225  0.3817
 7575TIP3    H244217   2.962   2.570   3.158 -1.0373 -0.7306  0.4113
 7576TIP3   OH244218   2.414   4.603  11.658 -0.0455 -0.6005 -0.3449
 7576TIP3    H144219   2.507   4.614  11.677 -0.1010 -0.9093  0.1034
 7576TIP3    H244220   2.413   4.550  11.578  0.1577 -0.9024 -0.1478
 7577TIP3   OH244221   2.096   0.536  16.806  0.1316  0.2363  0.3686
 7577TIP3    H144222   2.151   0.538  16.884  1.8119  1.3942 -0.7777
 7577TIP3    H244223   2.038   0.611  16.816  0.8628  0.8368  0.1644
 7578TIP3   OH244224   2.331   5.892   2.943 -0.8237 -0.0347  0.0229
 7578TIP3    H144225   2.355   5.811   2.899 -0.2923  0.7281 -1.1510
 7578TIP3    H244226   2.269   5.934   2.884  1.2540  1.8549 -0.9643
 7579TIP3   OH244227   2.560   0.107  16.953  1.2754  0.8876  0.0013
 7579TIP3    H144228   2.625   0.177  16.954  0.4638  1.7556 -1.8992
 7579TIP3    H244229   2.591   0.047  16.885  2.3958 -1.1216  2.1531
 7580TIP3   OH244230   1.631   1.614   2.401  0.2193 -0.3101 -0.1595
 7580TIP3    H144231   1.689   1.628   2.326 -1.0648 -1.7930 -1.5103
 7580TIP3    H244232   1.678   1.551   2.456  0.3304 -0.7532 -0.7454
 7581TIP3   OH244233   1.543   4.002  14.829 -0.4329  0.1978  0.1672
 7581TIP3    H144234   1.458   3.964  14.852 -0.6874  1.8658  2.3165
 7581TIP3    H244235   1.521   4.084  14.785 -0.0627  1.4516  2.1598
 7582TIP3   OH244236   5.457   1.248  11.158  0.0246  0.2161 -0.6231
 7582TIP3    H144237   5.402   1.230  11.082 -1.6363 -0.9860  0.7643
 7582TIP3    H244238   5.485   1.339  11.148 -1.7060  0.6647 -1.7259
 7583TIP3   OH244239   3.816   4.530  15.066  0.2529  0.7540  0.5011
 7583TIP3    H144240   3.868   4.542  15.145  0.7173  2.5451 -0.0331
 7583TIP3    H244241   3.873   4.480  15.007 -0.0337 -0.4386  1.1908
 7584TIP3   OH244242   5.569   6.334  15.717 -0.5566  0.3272 -0.0478
 7584TIP3    H144243   5.570   6.276  15.794 -0.0527 -0.7262 -0.8296
 7584TIP3    H244244   5.592   6.277  15.644 -0.0201  1.5323 -0.8367
 7585TIP3   OH244245   0.931   1.038  13.079  0.9423 -0.2450 -0.0564
 7585TIP3    H144246   0.869   1.044  13.007  0.7038 -1.7329 -0.0187
 7585TIP3    H244247   1.015   1.064  13.042  0.5336  0.5267 -0.4472
 7586TIP3   OH244248   2.716   0.219  13.043  0.5878  0.1003 -0.1837
 7586TIP3    H144249   2.675   0.234  13.128  0.5352  0.7953 -0.3285
 7586TIP3    H244250   2.791   0.162  13.062  0.4923  0.1388  0.3097
 7587TIP3   OH244251   4.166   4.768  14.211 -0.1576  0.0055  0.2964
 7587TIP3    H144252   4.140   4.850  14.255 -1.1972  0.7655 -1.6074
 7587TIP3    H244253   4.083   4.726  14.188  0.2929  0.1911 -1.8687
 7588TIP3   OH244254   6.543   6.443   3.948  0.2191  0.1824  0.0432
 7588TIP3    H144255   6.452   6.417   3.965  0.9158 -0.6625  2.9296
 7588TIP3    H244256   6.595   6.371   3.983  2.0515  0.8970 -1.0930
 7589TIP3   OH244257   4.418   5.066   3.397  1.0506  0.2956 -0.2389
 7589TIP3    H144258   4.434   4.974   3.377  0.2637  0.1117 -0.0768
 7589TIP3    H244259   4.504   5.102   3.417  1.5623 -0.0699 -1.6587
 7590TIP3   OH244260   2.520   2.176  15.026  0.2596 -0.4711 -0.0983
 7590TIP3    H144261   2.614   2.184  15.045  0.5628 -1.2898 -1.1568
 7590TIP3    H244262   2.513   2.097  14.973 -0.6846  0.9173 -2.1925
 7591TIP3   OH244263   3.139   1.633  11.427 -0.0809 -0.3496 -0.0082
 7591TIP3    H144264   3.232   1.657  11.431 -0.5246  1.7288 -1.1561
 7591TIP3    H244265   3.111   1.629  11.518  1.2290 -1.4799  0.3726
 7592TIP3   OH244266   0.347   1.412  10.443  0.4817  0.3208  0.1074
 7592TIP3    H144267   0.381   1.334  10.399 -0.4065 -2.0324  3.2971
 7592TIP3    H244268   0.252   1.408  10.430  0.5517  3.3860 -3.2719
 7593TIP3   OH244269   4.227   3.398  11.809  0.3745 -0.4460 -0.2157
 7593TIP3    H144270   4.144   3.444  11.822  0.4663  0.6702 -2.9693
 7593TIP3    H244271   4.293   3.461  11.837  0.3783 -0.2519 -0.6561
 7594TIP3   OH244272   0.787   4.004  13.772  0.4216  0.0259  0.0682
 7594TIP3    H144273   0.710   3.981  13.720 -0.1596 -0.0391  0.9346
 7594TIP3    H244274   0.845   3.928  13.763  0.0140 -0.2954  0.0935
 7595TIP3   OH244275   5.054   4.639   4.461 -0.2040  0.2750 -0.0298
 7595TIP3    H144276   5.043   4.544   4.467  2.8464 -0.1388  0.3261
 7595TIP3    H244277   5.143   4.652   4.429 -0.2227  3.0536  0.7476
 7596TIP3   OH244278   2.152   0.047   0.329 -0.1448  0.0836 -0.8644
 7596TIP3    H144279   2.231   0.029   0.278  0.7102  2.0539 -0.3185
 7596TIP3    H244280   2.086   0.071   0.265  0.9207  2.5493 -1.1557
 7597TIP3   OH244281   1.315   5.915   0.369 -0.2520 -0.5627 -0.2678
 7597TIP3    H144282   1.300   5.999   0.413  2.4159 -0.0742 -0.0930
 7597TIP3    H244283   1.373   5.936   0.296 -0.3805 -2.1128 -0.8608
 7598TIP3   OH244284   4.913   1.750  16.934 -0.2839 -0.2621 -0.0447
 7598TIP3    H144285   4.973   1.719  17.002 -1.5432  0.5339  1.5077
 7598TIP3    H244286   4.908   1.678  16.871  2.3535 -0.2929 -0.3216
 7599TIP3   OH244287   2.726   6.099   4.194  0.3229  0.4494 -0.3182
 7599TIP3    H144288   2.801   6.097   4.134  0.2738 -0.5155 -0.3735
 7599TIP3    H244289   2.659   6.048   4.149 -0.2081  0.9207 -0.0622
 7600TIP3   OH244290   5.109   2.339  14.746 -0.7158 -0.3701  0.4036
 7600TIP3    H144291   5.184   2.332  14.687 -0.0546  1.0412  1.0319
 7600TIP3    H244292   5.123   2.422  14.792 -1.8312 -0.8676  1.6834
 7601TIP3   OH244293   6.262   4.304  16.049 -0.4583 -0.3225  0.2147
 7601TIP3    H144294   6.340   4.257  16.021  0.2557  0.9886 -0.1149
 7601TIP3    H244295   6.277   4.324  16.141  1.1510  2.6668 -0.5562
 7602TIP3   OH244296   1.237   1.996  14.793  0.0429 -0.6874  0.5393
 7602TIP3    H144297   1.158   2.050  14.783  1.0655  0.6893 -0.6266
 7602TIP3    H244298   1.268   2.016  14.882  1.0030  1.6038 -0.2404
 7603TIP3   OH244299   2.299   1.599  11.443 -0.0214 -0.2458  0.5423
 7603TIP3    H144300   2.276   1.540  11.515 -1.6758  0.6224  0.7746
 7603TIP3    H244301   2.268   1.685  11.472  0.4516  0.3552 -0.6772
 7604TIP3   OH244302   1.010   5.433  12.531 -0.5179  0.7191  0.3637
 7604TIP3    H144303   0.920   5.451  12.503 -0.3151  1.2509  0.0315
 7604TIP3    H244304   1.064   5.485  12.472  0.0276  0.1705  0.3700
 7605TIP3   OH244305   2.128   4.258  12.208  0.9681  0.4002  0.4114
 7605TIP3    H144306   2.058   4.216  12.257  1.1009 -0.3734 -0.0265
 7605TIP3    H244307   2.092   4.268  12.120  0.8439  1.4746  0.5797
 7606TIP3   OH244308   6.027   2.513   2.635  0.2787 -0.5756  0.0080
 7606TIP3    H144309   6.030   2.463   2.554  0.7585  2.1146 -1.7447
 7606TIP3    H244310   6.117   2.538   2.653 -0.1445  1.3589 -0.3413
 7607TIP3   OH244311   4.414   5.759   5.557 -0.2545 -0.0894  0.0694
 7607TIP3    H144312   4.508   5.779   5.566 -0.1774 -0.6852  0.6979
 7607TIP3    H244313   4.407   5.667   5.583 -0.5876 -0.9394 -2.7143
 7608TIP3   OH244314   0.086   6.557  12.481 -0.0776  0.1254  0.5783
 7608TIP3    H144315   0.096   6.465  12.457  2.3180  0.4016  0.3044
 7608TIP3    H244316   0.107   6.559  12.575  0.8147  0.4890  0.3834
 7609TIP3   OH244317   2.964   2.620   1.816 -0.0594 -0.1964 -0.2654
 7609TIP3    H144318   3.020   2.623   1.893 -0.4262  0.0997 -0.0050
 7609TIP3    H244319   3.021   2.590   1.746  0.4098  0.0342  0.0107
 7610TIP3   OH244320   6.388   5.565   5.723 -0.3543 -0.3221 -0.1953
 7610TIP3    H144321   6.356   5.639   5.671 -1.3670 -0.5309  0.1068
 7610TIP3    H244322   6.318   5.499   5.716 -0.4736 -0.3912  1.3554
 7611TIP3   OH244323   2.508   6.695   5.730  0.3104 -0.5917 -0.0478
 7611TIP3    H144324   2.471   6.655   5.808  0.0351 -3.8913 -1.7225
 7611TIP3    H244325   2.472   6.645   5.657  1.6779  1.3988 -2.2509
 7612TIP3   OH244326   5.746   4.302   3.096  0.2070 -0.0233  0.3690
 7612TIP3    H144327   5.719   4.210   3.095 -1.1613  0.3600  0.6150
 7612TIP3    H244328   5.676   4.348   3.051  1.5056  0.7660 -0.9558
 7613TIP3   OH244329   3.628   1.476  15.733  0.1502  0.6836  0.1796
 7613TIP3    H144330   3.608   1.382  15.739  0.7717  0.2490 -2.7772
 7613TIP3    H244331   3.697   1.490  15.798  0.9860 -1.2421 -0.2307
 7614TIP3   OH244332   6.729   4.725   2.824 -0.3404  0.0512 -0.3181
 7614TIP3    H144333   6.825   4.725   2.820 -0.3752 -0.9415 -3.4015
 7614TIP3    H244334   6.704   4.815   2.803 -0.0922  0.0179 -0.7611
 7615TIP3   OH244335   0.624   0.017  12.211  0.2434 -0.7533  0.1029
 7615TIP3    H144336   0.699  -0.042  12.200  0.9009  0.4410 -2.5181
 7615TIP3    H244337   0.663   0.104  12.222 -0.7513 -0.5282  2.3729
 7616TIP3   OH244338   1.550   6.475   2.329 -0.4299  0.2855 -0.4949
 7616TIP3    H144339   1.598   6.493   2.248 -1.1803 -1.1009 -1.2784
 7616TIP3    H244340   1.572   6.384   2.349 -1.6529  0.0630 -0.1274
 7617TIP3   OH244341   0.118   2.242  11.616 -0.0434  0.0139 -0.3381
 7617TIP3    H144342   0.071   2.259  11.534 -2.3230  0.2007  0.9170
 7617TIP3    H244343   0.157   2.326  11.640  1.9534 -0.3842 -1.9339
 7618TIP3   OH244344   5.859   2.885  16.816  0.0684 -0.2768 -0.0973
 7618TIP3    H144345   5.804   2.885  16.737 -0.9964 -0.5649  0.6168
 7618TIP3    H244346   5.945   2.857  16.785 -0.3167 -0.3476 -1.1668
 7619TIP3   OH244347   3.205   4.987  12.922 -0.7480 -0.1220  0.1576
 7619TIP3    H144348   3.286   4.936  12.919 -0.5129  0.2018  0.8402
 7619TIP3    H244349   3.212   5.039  13.002 -1.1007  0.7938 -0.3936
 7620TIP3   OH244350   2.483   5.967   4.129  0.6370  0.0635  0.1252
 7620TIP3    H144351   2.497   5.906   4.202 -0.1572  0.3946  0.5712
 7620TIP3    H244352   2.475   5.910   4.052 -1.3186 -0.5244  0.7094
 7621TIP3   OH244353   6.099   4.575  15.337  0.9393 -0.3238 -0.3987
 7621TIP3    H144354   6.071   4.483  15.333  1.0626 -0.3348 -1.1455
 7621TIP3    H244355   6.048   4.618  15.269 -2.0426  1.0011  2.3978
 7622TIP3   OH244356   6.087   5.454  14.320 -0.0132  0.3811  0.5282
 7622TIP3    H144357   6.123   5.427  14.235 -2.2825  0.8236 -0.6516
 7622TIP3    H244358   6.027   5.384  14.343  0.1934  0.5272  1.5246
 7623TIP3   OH244359   6.425   0.498  12.144 -0.1031 -0.2941  0.2793
 7623TIP3    H144360   6.409   0.585  12.107  1.7327  0.0040  0.1194
 7623TIP3    H244361   6.375   0.438  12.087 -1.9945  0.6873  0.8426
 7624TIP3   OH244362   6.125   2.253  11.775  0.5917 -0.6782 -0.1640
 7624TIP3    H144363   6.049   2.210  11.736  0.1632 -1.1426  1.1587
 7624TIP3    H244364   6.198   2.226  11.719  0.1120 -1.9970 -0.1917
 7625TIP3   OH244365   2.908   2.447   2.685 -0.8778  0.7744  0.5771
 7625TIP3    H144366   2.987   2.481   2.728  0.3010  1.0017 -1.6122
 7625TIP3    H244367   2.881   2.518   2.626 -0.7167 -0.5619 -1.1559
 7626TIP3   OH244368   2.563   0.831  13.792  0.0302 -0.2337 -0.4831
 7626TIP3    H144369   2.599   0.743  13.781  1.1041 -0.0013  0.9268
 7626TIP3    H244370   2.494   0.821  13.858  0.6521  0.0807  0.2318
 7627TIP3   OH244371   1.420   5.850   3.612  0.2760  0.4767  0.1047
 7627TIP3    H144372   1.414   5.764   3.569  0.4080  0.9861 -0.9443
 7627TIP3    H244373   1.354   5.846   3.681 -0.9385  0.1311 -1.0287
 7628TIP3   OH244374   6.743   2.005  15.107 -0.4225  0.2042 -0.0849
 7628TIP3    H144375   6.697   1.966  15.032  0.4828 -1.2401  0.0758
 7628TIP3    H244376   6.816   1.946  15.124  0.4178  1.4534  0.8497
 7629TIP3   OH244377   3.088   1.411  15.582  0.2598 -0.1892  0.1990
 7629TIP3    H144378   3.128   1.494  15.558  0.7264  0.2011  2.1492
 7629TIP3    H244379   3.000   1.414  15.545 -0.1859  1.7486  1.2896
 7630TIP3   OH244380   2.572   0.323   2.881 -0.5942 -0.4337  0.9048
 7630TIP3    H144381   2.598   0.381   2.810 -1.3812 -0.5553  0.5090
 7630TIP3    H244382   2.608   0.364   2.960 -0.4647  0.1728  0.5370
 7631TIP3   OH244383   5.415   5.929   3.479  0.2409 -0.0452  0.1306
 7631TIP3    H144384   5.507   5.925   3.504  0.5199 -1.2495 -0.9386
 7631TIP3    H244385   5.412   5.886   3.393 -1.4614 -0.9146  0.5770
 7632TIP3   OH244386   4.157   6.778  10.518 -0.0776  0.1338  0.3441
 7632TIP3    H144387   4.251   6.791  10.525  0.4696 -1.5117 -2.6158
 7632TIP3    H244388   4.122   6.866  10.503  0.8337  0.8600  2.2118
 7633TIP3   OH244389   3.654   3.447  13.141  0.1294 -0.0818 -0.6241
 7633TIP3    H144390   3.575   3.498  13.129  1.0678  1.6254  0.0887
 7633TIP3    H244391   3.708   3.467  13.065  0.4402 -0.1303 -0.4215
 7634TIP3   OH244392   0.767   6.798   3.056 -0.2441  0.0737  0.6451
 7634TIP3    H144393   0.851   6.779   3.098  0.2201  0.2158 -0.1894
 7634TIP3    H244394   0.708   6.818   3.128  0.6964  0.9588  1.1987
 7635TIP3   OH244395   3.766   5.682  15.587  0.3092 -0.7975 -0.4328
 7635TIP3    H144396   3.810   5.668  15.503 -0.6622  1.4261 -1.3827
 7635TIP3    H244397   3.717   5.763  15.576  0.6418 -0.0638  2.5122
 7636TIP3   OH244398   6.444   4.366  11.303 -0.2316  0.1204 -0.0042
 7636TIP3    H144399   6.439   4.439  11.365  1.0470 -1.5695  2.2461
 7636TIP3    H244400   6.529   4.377  11.261  0.4137 -0.5570  1.0691
 7637TIP3   OH244401   5.899   4.290   2.613  0.0796 -0.3440  0.0178
 7637TIP3    H144402   5.941   4.257   2.533 -0.2767  0.9129 -0.7137
 7637TIP3    H244403   5.883   4.382   2.595 -0.6178 -0.1959  1.3045
 7638TIP3   OH244404   3.773   6.034  11.746  0.0562  0.5995 -0.0080
 7638TIP3    H144405   3.720   6.074  11.816 -1.9318 -1.3339 -0.2725
 7638TIP3    H244406   3.709   5.986  11.693  2.0565 -1.8689 -0.4045
 7639TIP3   OH244407   4.905   1.353   1.219 -0.1663 -0.0482 -0.0638
 7639TIP3    H144408   4.847   1.300   1.273  0.0046  0.6702  0.8361
 7639TIP3    H244409   4.880   1.444   1.236  0.9691  0.2627  0.0708
 7640TIP3   OH244410   0.665   4.939   3.428  0.6897 -0.0249  0.2043
 7640TIP3    H144411   0.694   4.885   3.354  1.7248  0.5972  0.1451
 7640TIP3    H244412   0.591   4.890   3.465  0.2387 -0.4241 -1.1378
 7641TIP3   OH244413   6.012   6.759   2.251  0.2780 -0.0798 -0.2194
 7641TIP3    H144414   6.054   6.790   2.171 -2.5393  0.9703 -1.3924
 7641TIP3    H244415   5.922   6.738   2.225 -0.9849  1.0460  2.8044
 7642TIP3   OH244416   6.333   1.339  15.833 -0.4017 -0.6480 -0.5452
 7642TIP3    H144417   6.290   1.314  15.915 -0.4095 -0.9719 -0.6440
 7642TIP3    H244418   6.269   1.315  15.765 -0.5042 -0.1411 -0.6315
 7643TIP3   OH244419   2.097   0.782   2.734 -0.3637  0.3537  0.1122
 7643TIP3    H144420   2.186   0.763   2.705  0.2820  0.3078  2.0352
 7643TIP3    H244421   2.107   0.833   2.814 -2.0362 -0.6143  1.0118
 7644TIP3   OH244422   5.388   2.925   0.689 -0.2435  0.3575  0.5908
 7644TIP3    H144423   5.316   2.926   0.752  1.6116 -0.5517  2.8584
 7644TIP3    H244424   5.432   3.010   0.701 -1.1086  1.1159 -1.1240
 7645TIP3   OH244425   0.510   3.198   2.510  0.8487 -0.2500  1.2038
 7645TIP3    H144426   0.417   3.187   2.489  1.1468 -1.2169  0.2721
 7645TIP3    H244427   0.548   3.111   2.498  1.9058  0.1587  1.4405
 7646TIP3   OH244428   2.187   2.869   5.703 -0.5156 -0.5707  0.0321
 7646TIP3    H144429   2.218   2.885   5.614  0.1901 -0.5087  0.2891
 7646TIP3    H244430   2.099   2.908   5.705 -1.1782 -1.8921 -1.0908
 7647TIP3   OH244431   4.015   0.873   1.131  0.5597  0.2138  1.2383
 7647TIP3    H144432   3.953   0.872   1.205  1.5107 -0.6257  2.0439
 7647TIP3    H244433   3.972   0.928   1.066 -0.6203  0.4202  2.1437
 7648TIP3   OH244434   3.383   3.969   0.295 -0.3563 -0.4802  0.0103
 7648TIP3    H144435   3.328   3.956   0.373  0.4298  3.0421  1.3480
 7648TIP3    H244436   3.321   3.971   0.222 -1.3957 -1.4520  0.8255
 7649TIP3   OH244437   5.389   5.990  15.460 -0.1033 -0.1717 -0.3951
 7649TIP3    H144438   5.302   6.020  15.435  0.1243 -0.1313 -1.1645
 7649TIP3    H244439   5.396   5.902  15.422 -0.6656 -1.1284  1.6009
 7650TIP3   OH244440   2.508   3.122  11.444 -0.0158  0.2555 -0.5208
 7650TIP3    H144441   2.565   3.187  11.485  2.1373 -2.1062  0.4967
 7650TIP3    H244442   2.478   3.068  11.517 -0.0789 -1.0967 -1.5175
 7651TIP3   OH244443   6.217   6.648   1.649  0.2380 -0.5315 -0.2438
 7651TIP3    H144444   6.283   6.583   1.673  0.1966 -0.6115 -0.3429
 7651TIP3    H244445   6.168   6.663   1.729  1.1590  0.4521  0.1494
 7652TIP3   OH244446   1.939   1.267   3.927 -0.1986  0.7061  0.0151
 7652TIP3    H144447   1.987   1.348   3.944 -0.2543  0.9325 -0.8716
 7652TIP3    H244448   1.968   1.208   3.996  0.1994  1.3270  0.3970
 7653TIP3   OH244449   1.534   5.375   4.654  0.3491 -0.1147  0.0668
 7653TIP3    H144450   1.555   5.428   4.732  0.6308 -0.5936  0.3209
 7653TIP3    H244451   1.619   5.357   4.615  0.4365 -1.9608  1.0242
 7654TIP3   OH244452   3.172   4.830  16.195  0.0004  0.2403 -0.7530
 7654TIP3    H144453   3.130   4.893  16.253 -0.1608 -1.2776  0.8797
 7654TIP3    H244454   3.169   4.871  16.109  0.2878  2.6033  0.2961
 7655TIP3   OH244455   4.444   4.571   4.489 -0.3219 -0.2662 -0.1044
 7655TIP3    H144456   4.487   4.547   4.407  0.9903 -0.5962  0.6466
 7655TIP3    H244457   4.421   4.663   4.478 -0.5703 -0.4257 -1.0046
 7656TIP3   OH244458   0.680   3.019   6.892 -0.1156  0.1621 -0.1133
 7656TIP3    H144459   0.694   2.954   6.823 -1.3852  0.9294 -1.1278
 7656TIP3    H244460   0.756   3.008   6.950  0.6279 -0.9784 -1.2386
 7657TIP3   OH244461   3.837   4.247  13.408  0.0559 -0.5978 -0.2172
 7657TIP3    H144462   3.755   4.202  13.431 -0.5562  0.3714 -0.4609
 7657TIP3    H244463   3.811   4.312  13.343  1.2546 -1.1719 -1.2940
 7658TIP3   OH244464   3.303   3.811   0.838  0.0267  0.2021  0.7116
 7658TIP3    H144465   3.234   3.873   0.862  0.0188  0.4003  0.1930
 7658TIP3    H244466   3.385   3.859   0.851  0.2073 -0.6162  3.1171
 7659TIP3   OH244467   3.485   3.712   1.822  0.2532  0.1812  0.7170
 7659TIP3    H144468   3.448   3.799   1.838  0.2000  0.2036  0.4810
 7659TIP3    H244469   3.578   3.728   1.805  0.2131  0.2059  0.5261
 7660TIP3   OH244470   5.798   4.609   3.260 -0.1641 -0.6395  0.1024
 7660TIP3    H144471   5.790   4.533   3.318 -0.7485 -0.5367  0.1578
 7660TIP3    H244472   5.883   4.598   3.217  0.7843 -0.1629  1.7697
 7661TIP3   OH244473   5.782   3.561  15.784 -0.0134 -0.3436 -0.6996
 7661TIP3    H144474   5.768   3.468  15.770 -0.2873 -0.3325 -0.5104
 7661TIP3    H244475   5.864   3.580  15.739  0.1762 -0.7272 -0.5195
 7662TIP3   OH244476   6.566   5.668  11.255  0.2491 -0.1028  0.4254
 7662TIP3    H144477   6.623   5.743  11.238 -0.7204  0.6952  0.5644
 7662TIP3    H244478   6.601   5.598  11.201  0.6314  0.7178 -0.4159
 7663TIP3   OH244479   0.021   2.413   6.649 -0.0754  0.1284 -0.4748
 7663TIP3    H144480  -0.044   2.477   6.679 -1.5674 -1.7450  0.4770
 7663TIP3    H244481   0.064   2.383   6.729  1.3460  0.6491 -1.0115
 7664TIP3   OH244482   5.074   6.741   2.064 -0.2504 -0.2752  0.3343
 7664TIP3    H144483   5.084   6.651   2.096 -0.0200 -0.7309 -0.9585
 7664TIP3    H244484   5.028   6.732   1.981 -3.3157  1.0918  1.7219
 7665TIP3   OH244485   5.827   0.047   0.377 -0.4590 -0.0353 -0.6688
 7665TIP3    H144486   5.779   0.113   0.327 -0.3646 -0.5853 -1.5095
 7665TIP3    H244487   5.912   0.040   0.333 -0.0613  0.0483  0.0643
 7666TIP3   OH244488   0.284   3.545   2.575 -0.1495  0.6209  0.2177
 7666TIP3    H144489   0.256   3.608   2.641 -1.3301  0.4017 -0.0536
 7666TIP3    H244490   0.265   3.460   2.614 -1.7769  0.4991 -0.7574
 7667TIP3   OH244491   5.185   2.719  16.856 -0.6756 -0.1734 -0.3336
 7667TIP3    H144492   5.102   2.697  16.898 -1.3054  1.4531 -0.6440
 7667TIP3    H244493   5.226   2.783  16.914 -0.8933  1.0122 -1.4264
 7668TIP3   OH244494   6.617   6.401  15.608 -0.3372  0.7291  0.1860
 7668TIP3    H144495   6.551   6.349  15.562  0.2515 -0.8597  1.0449
 7668TIP3    H244496   6.676   6.431  15.540 -1.3001  1.2043 -0.4620
 7669TIP3   OH244497   2.021   4.362   0.349  0.1580  0.3216 -0.1978
 7669TIP3    H144498   2.003   4.437   0.407 -1.4678 -0.0278 -0.1868
 7669TIP3    H244499   1.971   4.380   0.270 -1.7811 -1.5333  0.4879
 7670TIP3   OH244500   6.417   4.162   0.003  0.2103  0.3749 -0.4101
 7670TIP3    H144501   6.466   4.081   0.017 -0.6934 -0.3127 -1.0921
 7670TIP3    H244502   6.332   4.133  -0.029 -0.3622  1.5808 -0.0218
 7671TIP3   OH244503   4.741   0.792   3.483 -0.1656 -0.0008  0.4856
 7671TIP3    H144504   4.672   0.763   3.424  0.3622 -0.1639 -0.0571
 7671TIP3    H244505   4.698   0.856   3.540 -0.5662  0.5231 -0.3810
 7672TIP3   OH244506   5.429   2.418   0.928 -0.1419  0.2776 -0.2212
 7672TIP3    H144507   5.432   2.324   0.945  0.1930  0.4752  0.8937
 7672TIP3    H244508   5.494   2.431   0.858  0.1379 -0.2568 -0.0701
 7673TIP3   OH244509   1.802   3.821  12.152 -0.0819 -0.1479  0.1542
 7673TIP3    H144510   1.889   3.848  12.180 -0.3622  0.7338  0.2420
 7673TIP3    H244511   1.766   3.773  12.227 -0.4025  1.2212  0.9168
 7674TIP3   OH244512   6.560   3.829   3.601 -0.2988 -0.2242 -0.1836
 7674TIP3    H144513   6.505   3.887   3.654  0.9448 -0.3011  1.2522
 7674TIP3    H244514   6.499   3.764   3.567 -1.0826 -0.5221  1.6515
 7675TIP3   OH244515   1.341   3.634   5.983 -0.6540  0.0159  0.3209
 7675TIP3    H144516   1.428   3.617   6.020 -0.7629  1.0832  1.1300
 7675TIP3    H244517   1.324   3.559   5.926  0.5576 -0.4859  0.5790
 7676TIP3   OH244518   3.943   3.227   2.398 -0.1124  0.1040 -0.1767
 7676TIP3    H144519   3.933   3.235   2.493 -2.9122  0.6316 -0.4351
 7676TIP3    H244520   4.012   3.162   2.387 -0.5325 -0.8636  2.2276
 7677TIP3   OH244521   0.777   0.315   3.916  0.2198 -0.9236 -0.3278
 7677TIP3    H144522   0.797   0.285   3.827 -0.2599 -0.3653 -0.6307
 7677TIP3    H244523   0.815   0.403   3.920  0.1595 -0.9118 -0.0087
 7678TIP3   OH244524   3.628   1.214   0.866 -0.3612  0.2212 -0.5268
 7678TIP3    H144525   3.612   1.120   0.861  0.1730  0.1583 -1.0512
 7678TIP3    H244526   3.552   1.248   0.913 -0.6871 -0.4357 -0.5670
 7679TIP3   OH244527   6.225   2.225   3.657 -0.3831 -0.2399  0.4921
 7679TIP3    H144528   6.174   2.280   3.598 -0.9635 -2.7757 -1.5127
 7679TIP3    H244529   6.274   2.165   3.600  0.4346 -1.6487  2.5286
 7680TIP3   OH244530   2.924   4.935   1.514 -0.0146  0.3181  0.0165
 7680TIP3    H144531   2.931   4.988   1.594 -2.7714 -1.2383  1.4484
 7680TIP3    H244532   2.859   4.981   1.461  2.4163  1.8198 -1.9241
 7681TIP3   OH244533   5.978   5.828  15.093 -0.1141  0.4985  0.1381
 7681TIP3    H144534   5.885   5.816  15.071  0.3970 -0.8287 -1.5298
 7681TIP3    H244535   5.984   5.919  15.124 -2.1846  0.1854  1.6913
 7682TIP3   OH244536   4.140   0.107   3.039  0.8635  0.9021  0.0200
 7682TIP3    H144537   4.226   0.145   3.055  1.2044 -0.2436  1.1535
 7682TIP3    H244538   4.154   0.012   3.048 -0.4903  0.6922  0.1213
 7683TIP3   OH244539   3.679   2.047  15.250  0.5769  0.3823  0.6441
 7683TIP3    H144540   3.641   1.969  15.211  2.7964 -0.3729 -0.1694
 7683TIP3    H244541   3.678   2.029  15.344  0.5224 -0.3790  0.5051
 7684TIP3   OH244542   6.146   0.296   0.708  0.9263  0.2176 -0.2720
 7684TIP3    H144543   6.238   0.320   0.721  0.8467  0.7022 -0.5869
 7684TIP3    H244544   6.104   0.377   0.679  0.5293 -0.1517 -0.7510
 7685TIP3   OH244545   2.980   0.644  16.850  0.3166  0.3330  0.0503
 7685TIP3    H144546   2.886   0.633  16.862  0.4445 -0.3964  0.4564
 7685TIP3    H244547   2.992   0.738  16.837 -0.3265  0.6285  1.4161
 7686TIP3   OH244548   1.837   4.196   4.051 -0.8156  0.0388  0.2580
 7686TIP3    H144549   1.851   4.133   4.121 -1.7971 -0.1542  0.3061
 7686TIP3    H244550   1.741   4.203   4.044 -0.7462 -0.2561 -1.3272
 7687TIP3   OH244551   5.241   3.019  13.184 -0.5639  0.4786  0.5279
 7687TIP3    H144552   5.286   2.969  13.252 -0.1583  0.6171  0.3587
 7687TIP3    H244553   5.308   3.074  13.146 -1.2664  2.2043  1.6602
 7688TIP3   OH244554   4.949   4.369   5.627  0.1147 -0.2932 -0.0234
 7688TIP3    H144555   4.858   4.340   5.633  0.3848 -1.4772 -1.1175
 7688TIP3    H244556   4.945   4.463   5.645 -1.0239 -0.6771  1.9984
 7689TIP3   OH244557   0.523   0.345  17.016  1.1226  0.3647 -0.4023
 7689TIP3    H144558   0.600   0.292  17.038  1.2574  1.4029  1.9200
 7689TIP3    H244559   0.494   0.381  17.100 -0.8796  1.3985 -1.4654
 7690TIP3   OH244560   4.374   0.453   5.733 -0.2140 -0.6720  0.0363
 7690TIP3    H144561   4.384   0.449   5.637 -0.3794 -1.7392  0.0596
 7690TIP3    H244562   4.283   0.428   5.748 -0.2800 -0.1804  0.4589
 7691TIP3   OH244563   6.635   0.188   4.480  0.1206  0.3336  0.2768
 7691TIP3    H144564   6.667   0.278   4.485  0.5232  0.1424  2.5597
 7691TIP3    H244565   6.711   0.137   4.449 -0.1755  0.7890 -1.2284
 7692TIP3   OH244566   3.553   6.802   3.395 -0.0415 -0.4936  0.2120
 7692TIP3    H144567   3.559   6.848   3.311 -0.2720  1.2925  1.1326
 7692TIP3    H244568   3.630   6.832   3.444  0.6665 -2.3227  0.3055
 7693TIP3   OH244569   0.775   3.319  13.783 -0.6081  0.1930  0.0332
 7693TIP3    H144570   0.727   3.240  13.760 -3.3077  2.2313 -2.1755
 7693TIP3    H244571   0.866   3.298  13.764 -1.3466 -2.0698 -1.4572
 7694TIP3   OH244572   2.802   0.649   1.638 -0.0019 -0.6558 -0.3542
 7694TIP3    H144573   2.769   0.642   1.548  1.2656 -1.5604 -0.7793
 7694TIP3    H244574   2.871   0.582   1.643  1.8203  1.1855  0.4574
 7695TIP3   OH244575   3.916   4.184  16.203  0.6463  0.1887 -0.0814
 7695TIP3    H144576   4.001   4.172  16.159  1.0432  0.8579  0.4748
 7695TIP3    H244577   3.905   4.279  16.207 -0.6925  0.1061 -1.1779
 7696TIP3   OH244578   3.676   4.478   2.331  0.0171  0.3154  0.0509
 7696TIP3    H144579   3.592   4.441   2.306 -0.6488  1.4766  0.4747
 7696TIP3    H244580   3.658   4.524   2.413  1.3046 -0.2880  0.7018
 7697TIP3   OH244581   0.682   6.641  14.042 -0.3618 -0.2514  0.1851
 7697TIP3    H144582   0.742   6.628  14.115 -0.5428 -0.7808  0.2481
 7697TIP3    H244583   0.736   6.633  13.964 -0.3814 -0.9767  0.2346
 7698TIP3   OH244584   4.004   1.345  15.121  0.0930 -0.5337  0.4325
 7698TIP3    H144585   3.951   1.324  15.198  2.2619 -1.4887  1.7845
 7698TIP3    H244586   4.095   1.340  15.153  1.0622 -0.3244 -2.0575
 7699TIP3   OH244587   6.382   0.405  11.452  0.7598  0.1258 -0.4681
 7699TIP3    H144588   6.325   0.460  11.398  0.1772 -0.3544 -0.3523
 7699TIP3    H244589   6.418   0.465  11.518 -0.1554  0.3073 -0.1145
 7700TIP3   OH244590   0.338   0.947   4.511  0.0478 -0.3403  0.3096
 7700TIP3    H144591   0.390   0.868   4.495 -0.5886 -0.5729 -0.6977
 7700TIP3    H244592   0.387   1.017   4.468  0.2605 -0.3009  0.6122
 7701TIP3   OH244593   1.363   1.272  14.307  0.3981  0.2348  0.4328
 7701TIP3    H144594   1.293   1.264  14.371  0.2387  1.4044  0.4323
 7701TIP3    H244595   1.399   1.360  14.321  2.4792 -0.6378  1.0476
 7702TIP3   OH244596   5.832   6.578   5.978  1.0061 -0.0308 -0.2132
 7702TIP3    H144597   5.744   6.605   5.954  1.1013  0.3366 -0.1591
 7702TIP3    H244598   5.856   6.635   6.051  1.8481  0.9001 -1.1818
 7703TIP3   OH244599   2.800   0.461   3.381 -0.4114 -0.6569  0.2135
 7703TIP3    H144600   2.851   0.523   3.434  0.0264  0.4297 -1.4170
 7703TIP3    H244601   2.710   0.477   3.407 -0.2455  0.2313  0.2929
 7704TIP3   OH244602   2.359   0.827  11.983  0.6376  0.0868 -0.9572
 7704TIP3    H144603   2.265   0.816  11.999  0.7105 -1.1321 -1.2851
 7704TIP3    H244604   2.398   0.831  12.070  0.3934 -0.5370 -0.8156
 7705TIP3   OH244605   1.679   4.809  11.521 -0.0489 -0.8486  0.0754
 7705TIP3    H144606   1.625   4.888  11.527  0.0415 -0.7661 -0.1662
 7705TIP3    H244607   1.690   4.780  11.611  1.2859  0.3409  0.3257
 7706TIP3   OH244608   1.795   5.779  14.299 -0.0669  0.0487  0.0906
 7706TIP3    H144609   1.825   5.695  14.263 -0.7447  0.1366 -0.7119
 7706TIP3    H244610   1.874   5.819  14.335  0.3302 -0.7732  0.1702
 7707TIP3   OH244611   0.082   2.033  16.060 -0.6572  0.2328 -0.6826
 7707TIP3    H144612   0.102   1.984  16.140 -1.5320  0.2247 -0.4553
 7707TIP3    H244613   0.166   2.041  16.015  0.0011  0.8909  0.6013
 7708TIP3   OH244614   0.692   5.672   4.897 -0.0642 -0.6338  0.0240
 7708TIP3    H144615   0.754   5.735   4.862  0.3305 -0.5250  0.8935
 7708TIP3    H244616   0.736   5.587   4.888  0.0742 -0.5959  0.3187
 7709TIP3   OH244617   2.164   1.360  14.936 -0.4669  0.0173  0.2932
 7709TIP3    H144618   2.183   1.270  14.906  2.8591  0.7753 -0.2831
 7709TIP3    H244619   2.227   1.375  15.006 -2.6267  1.1450  2.0870
 7710TIP3   OH244620   1.748   1.422   0.960 -0.1143 -0.3584 -0.7149
 7710TIP3    H144621   1.791   1.354   0.909 -0.4474 -0.6946 -0.5496
 7710TIP3    H244622   1.820   1.471   1.001  0.1431 -0.2806 -1.2471
 7711TIP3   OH244623   2.713   5.721  16.965 -0.0865 -0.0936  0.1747
 7711TIP3    H144624   2.771   5.647  16.985 -1.4205 -1.6690 -1.3868
 7711TIP3    H244625   2.634   5.703  17.017  0.2176  1.2427  1.1563
 7712TIP3   OH244626   5.226   1.247   3.307  0.2461 -0.0142  0.8056
 7712TIP3    H144627   5.161   1.211   3.246  1.4680 -0.9517  0.0277
 7712TIP3    H244628   5.247   1.333   3.271  0.9831 -0.5764 -0.1386
 7713TIP3   OH244629   1.669   6.090  13.205  0.7235  1.1016 -0.0410
 7713TIP3    H144630   1.627   6.161  13.156  0.0263  0.3948 -0.4848
 7713TIP3    H244631   1.639   6.010  13.162  1.4293  0.5248  0.5091
 7714TIP3   OH244632   4.980   1.824   1.203 -0.2553 -0.5257  0.2077
 7714TIP3    H144633   5.023   1.739   1.195  0.2583 -0.2836  0.3826
 7714TIP3    H244634   5.017   1.863   1.282  1.6237  1.0598 -1.3463
 7715TIP3   OH244635   0.466   3.963   4.805  0.1413 -0.4120 -0.2190
 7715TIP3    H144636   0.411   3.893   4.768  0.0557 -0.5886  0.2387
 7715TIP3    H244637   0.551   3.921   4.820 -0.0010 -0.5043  0.3455
 7716TIP3   OH244638   2.704   6.607  14.564  0.2938  0.3396  0.1347
 7716TIP3    H144639   2.669   6.696  14.562  0.6176  0.4752 -2.7370
 7716TIP3    H244640   2.635   6.556  14.607 -1.0571  1.5387 -0.5153
 7717TIP3   OH244641   3.105   6.137   2.289  0.5858 -0.2584 -0.2204
 7717TIP3    H144642   3.196   6.129   2.317  0.4342  1.7251  1.0401
 7717TIP3    H244643   3.110   6.155   2.195  1.7659  2.7313  0.2813
 7718TIP3   OH244644   3.803   1.524  14.300 -0.5255 -0.0423 -0.9047
 7718TIP3    H144645   3.874   1.482  14.349  1.1353  2.2869 -1.1252
 7718TIP3    H244646   3.843   1.603  14.264 -3.5547  2.0550 -0.0581
 7719TIP3   OH244647   2.862   4.552   5.509  0.3475  0.3040  0.2821
 7719TIP3    H144648   2.928   4.493   5.474 -0.4898  0.7057 -2.1033
 7719TIP3    H244649   2.908   4.635   5.522  0.4791  0.3950 -0.7351
 7720TIP3   OH244650   0.215   0.538  13.774 -0.1540  0.3719  0.1655
 7720TIP3    H144651   0.211   0.446  13.747  2.3250 -0.1201  1.1963
 7720TIP3    H244652   0.219   0.535  13.870 -3.8525  1.8284  0.5414
 7721TIP3   OH244653   0.876   1.642  17.160 -0.8344 -0.0566  0.2256
 7721TIP3    H144654   0.811   1.705  17.128 -0.0522  0.5864 -0.1364
 7721TIP3    H244655   0.825   1.578  17.210 -1.9913 -0.5902 -1.5410
 7722TIP3   OH244656   0.406   2.016   4.435 -0.4123  0.0856 -0.1862
 7722TIP3    H144657   0.443   2.076   4.500 -2.0132  0.4096  0.4755
 7722TIP3    H244658   0.440   2.046   4.351  0.0609  0.9426  0.3078
 7723TIP3   OH244659   4.811   1.419  16.171 -0.6136 -0.0045  0.7435
 7723TIP3    H144660   4.846   1.476  16.238 -1.2341  1.4234 -0.0934
 7723TIP3    H244661   4.757   1.476  16.117 -1.1917 -1.3743 -0.1898
 7724TIP3   OH244662   5.070   5.269  15.230  0.5502 -0.0035  0.2821
 7724TIP3    H144663   5.088   5.328  15.156 -1.3632  0.0677 -0.1756
 7724TIP3    H244664   5.024   5.195  15.190 -2.0097  0.7919  1.5736
 7725TIP3   OH244665   0.764   6.678  15.822  0.3483 -0.5165 -0.4373
 7725TIP3    H144666   0.808   6.738  15.761  0.1225 -0.3887 -0.4738
 7725TIP3    H244667   0.836   6.637  15.871  0.5697 -1.0555 -1.1953
 7726TIP3   OH244668   3.220   1.354  14.515  0.0625  0.1435 -0.5141
 7726TIP3    H144669   3.293   1.352  14.578 -0.3406 -0.3560 -0.0546
 7726TIP3    H244670   3.261   1.333  14.431  0.5688  0.5819 -0.3876
 7727TIP3   OH244671   4.042   1.528   3.041  0.4070  0.1999  0.1378
 7727TIP3    H144672   4.079   1.511   2.954  0.5402  0.5289  0.1294
 7727TIP3    H244673   4.115   1.514   3.101  0.5368  0.8036  0.1247
 7728TIP3   OH244674   0.093   3.161  12.469 -0.1836  0.5667  0.6108
 7728TIP3    H144675   0.180   3.123  12.454 -0.4039  0.4478 -0.4551
 7728TIP3    H244676   0.101   3.251  12.439 -0.4911  0.4870  0.2844
 7729TIP3   OH244677   1.089   6.232   1.093  0.2361  0.1558  0.1299
 7729TIP3    H144678   1.118   6.185   1.171 -0.2075 -0.5900 -0.1390
 7729TIP3    H244679   1.068   6.320   1.123 -0.5635 -0.3141  0.9828
 7730TIP3   OH244680   5.465   1.245  15.169 -0.2238 -0.1242  0.0616
 7730TIP3    H144681   5.495   1.167  15.122  2.1474  0.4015  0.5815
 7730TIP3    H244682   5.440   1.212  15.255  1.7534 -0.2482  0.6417
 7731TIP3   OH244683   4.581   0.124  16.637  0.4896 -0.2749  0.9472
 7731TIP3    H144684   4.671   0.149  16.620  0.0442  0.6288 -0.1962
 7731TIP3    H244685   4.584   0.030  16.650  1.2084 -0.7730 -2.0849
 7732TIP3   OH244686   1.727   3.458  12.253 -0.7560  0.2718 -0.2919
 7732TIP3    H144687   1.692   3.500  12.331 -0.7106  1.8815 -1.0901
 7732TIP3    H244688   1.663   3.479  12.184 -0.9806 -1.4123 -0.6362
 7733TIP3   OH244689   4.326   0.520  16.029 -0.3267  0.3290  0.0446
 7733TIP3    H144690   4.264   0.574  15.980  0.3988 -0.2086 -1.5152
 7733TIP3    H244691   4.301   0.430  16.009  0.9184  0.1043 -0.5995
 7734TIP3   OH244692   6.812   1.631  15.454 -0.5717  0.4082  0.0073
 7734TIP3    H144693   6.738   1.692  15.459 -0.7671  0.3263 -1.4118
 7734TIP3    H244694   6.776   1.552  15.415 -0.3867 -0.7974  2.0975
 7735TIP3   OH244695   5.680   1.868  12.103 -0.2032 -0.4253 -0.5523
 7735TIP3    H144696   5.631   1.808  12.047  0.4130 -0.9512 -0.5398
 7735TIP3    H244697   5.614   1.910  12.158 -0.6299 -1.1570 -0.4985
 7736TIP3   OH244698   6.512   2.939   2.028 -0.0422 -0.0229 -0.2284
 7736TIP3    H144699   6.478   3.020   1.991  1.7013 -0.2892 -2.6928
 7736TIP3    H244700   6.602   2.960   2.053 -0.0831 -0.7942  0.6081
 7737TIP3   OH244701   3.401   2.446   2.959 -0.7027  0.6695 -0.2551
 7737TIP3    H144702   3.308   2.451   2.980 -0.8346  0.3621 -0.7358
 7737TIP3    H244703   3.433   2.373   3.013 -0.5406  1.3466  0.5831
 7738TIP3   OH244704   4.672   2.447  13.959  0.0882  0.2552  0.1124
 7738TIP3    H144705   4.716   2.487  13.883 -0.3819  0.2687 -0.1544
 7738TIP3    H244706   4.580   2.445  13.934  0.0042 -0.2327  0.4721
 7739TIP3   OH244707   6.757   5.479  14.359 -0.8276  0.1944  0.0131
 7739TIP3    H144708   6.830   5.521  14.313  2.7727 -1.4446  3.5699
 7739TIP3    H244709   6.720   5.549  14.414 -1.0228  0.7420 -0.8078
 7740TIP3   OH244710   4.605   3.886  12.245 -0.3102 -0.4759 -0.0172
 7740TIP3    H144711   4.525   3.937  12.252  0.9295  1.5055  0.7500
 7740TIP3    H244712   4.671   3.949  12.215  0.9084 -2.1102 -0.9494
 7741TIP3   OH244713   5.987   4.906  17.153  0.0938 -0.1568 -0.1671
 7741TIP3    H144714   6.039   4.987  17.151 -0.0331 -0.0867 -1.8828
 7741TIP3    H244715   5.993   4.876  17.244  2.9915 -0.0447 -0.2166
 7742TIP3   OH244716   4.556   0.140   5.117  1.0240  0.2960  0.0056
 7742TIP3    H144717   4.491   0.204   5.089  0.5037 -0.7334 -1.2052
 7742TIP3    H244718   4.611   0.188   5.179  0.5794  1.8746 -0.7672
 7743TIP3   OH244719   2.266   5.216   5.355  0.9405 -0.4822  0.1978
 7743TIP3    H144720   2.200   5.188   5.418 -0.8046 -0.0748 -1.3618
 7743TIP3    H244721   2.284   5.308   5.377 -0.2849 -0.0879 -0.3683
 7744TIP3   OH244722   5.735   2.538  15.554  0.3421 -0.3224 -0.1903
 7744TIP3    H144723   5.752   2.444  15.560 -0.6707 -0.5899 -1.1835
 7744TIP3    H244724   5.641   2.544  15.537  0.1708  0.9282  1.0381
 7745TIP3   OH244725   0.339   4.469   2.950  0.1333  0.0265  0.1883
 7745TIP3    H144726   0.263   4.471   2.891  0.0904 -0.9847  0.1782
 7745TIP3    H244727   0.302   4.442   3.034  0.2344  1.2042  0.6183
 7746TIP3   OH244728   5.807   3.111   3.195 -0.4355 -0.1733 -0.2301
 7746TIP3    H144729   5.749   3.036   3.204 -0.6117 -0.0826 -0.5941
 7746TIP3    H244730   5.749   3.186   3.185 -0.2574 -0.0487 -0.3366
 7747TIP3   OH244731   2.742   3.563   3.892 -0.4066  0.0242 -0.3568
 7747TIP3    H144732   2.817   3.537   3.945 -0.6825 -0.5955 -0.2558
 7747TIP3    H244733   2.714   3.647   3.929  1.3138  1.1845 -1.5379
 7748TIP3   OH244734   6.614   3.206  16.452  0.0153 -0.2953 -0.5076
 7748TIP3    H144735   6.573   3.120  16.442 -0.1565 -0.4397  1.1584
 7748TIP3    H244736   6.658   3.202  16.537  0.0305  1.2543 -0.4125
 7749TIP3   OH244737   2.920   6.494   3.888 -0.4624 -0.6262 -0.4581
 7749TIP3    H144738   2.830   6.481   3.919  0.0379  1.0741  2.0078
 7749TIP3    H244739   2.967   6.417   3.919 -0.9940 -1.4378 -1.6040
 7750TIP3   OH244740   4.756   4.201  12.967  0.1546  0.1270 -0.5746
 7750TIP3    H144741   4.850   4.188  12.961  0.3081  0.9537 -0.1056
 7750TIP3    H244742   4.739   4.218  13.060 -0.0095  2.9478 -1.0173
 7751TIP3   OH244743   6.534   1.351   0.480  0.4394  0.5290 -0.0282
 7751TIP3    H144744   6.603   1.411   0.451  0.9572  0.3173  0.7308
 7751TIP3    H244745   6.580   1.268   0.497 -0.0676  0.2697  0.1107
 7752TIP3   OH244746   5.679   0.551  16.996 -0.0878  0.2155  0.5330
 7752TIP3    H144747   5.774   0.562  16.984  0.0128 -0.0620  1.0401
 7752TIP3    H244748   5.655   0.624  17.054  0.0096 -0.3268  1.2717
 7753TIP3   OH244749   1.554   1.315   6.292 -0.2704  0.0565 -0.1430
 7753TIP3    H144750   1.589   1.387   6.345  0.2383  0.6381 -1.2433
 7753TIP3    H244751   1.626   1.291   6.234 -0.4467 -1.3280  0.1822
 7754TIP3   OH244752   0.049   3.966   5.651  0.1168  0.4604  0.2850
 7754TIP3    H144753   0.114   3.979   5.721  0.0982  1.2625  0.1567
 7754TIP3    H244754   0.051   4.047   5.601  1.6435 -0.8538 -1.9398
 7755TIP3   OH244755   0.506   0.708   4.730  0.1474  0.5738 -0.0318
 7755TIP3    H144756   0.486   0.649   4.804  2.3839  0.8778  0.8691
 7755TIP3    H244757   0.504   0.651   4.654  1.0490 -0.4605  0.6822
 7756TIP3   OH244758   2.694   4.221  11.040  0.5191 -0.3555  0.5889
 7756TIP3    H144759   2.726   4.229  10.950  0.0684 -0.2653  0.4348
 7756TIP3    H244760   2.667   4.309  11.064  1.5188 -0.1861  1.1544
 7757TIP3   OH244761   1.388   5.684   0.667  0.4987  0.1828 -0.2274
 7757TIP3    H144762   1.462   5.738   0.697  0.5090 -0.4894  1.0017
 7757TIP3    H244763   1.310   5.733   0.694  0.4844 -1.1018  2.3579
 7758TIP3   OH244764   1.278   0.694   4.204 -0.5953 -0.1486 -0.1518
 7758TIP3    H144765   1.361   0.660   4.171 -0.0936  0.8390  0.0579
 7758TIP3    H244766   1.222   0.701   4.126 -0.1075  0.2335 -0.4713
 7759TIP3   OH244767   1.092   2.219   0.752  0.2922 -0.6490 -0.4714
 7759TIP3    H144768   1.010   2.262   0.777  0.0873 -1.3876  0.1555
 7759TIP3    H244769   1.067   2.152   0.690  0.6141  0.1014 -1.4379
 7760TIP3   OH244770   6.775   3.602   3.806 -0.3745 -0.1741  0.0246
 7760TIP3    H144771   6.791   3.598   3.711 -0.7473  0.7824 -0.0832
 7760TIP3    H244772   6.726   3.522   3.825  0.9121 -1.0814 -0.3443
 7761TIP3   OH244773   1.770   2.098  16.493 -0.2778  0.0069  0.4070
 7761TIP3    H144774   1.706   2.119  16.424 -1.8184 -2.7010  0.8600
 7761TIP3    H244775   1.719   2.099  16.574  1.2626  1.9770  1.4272
 7762TIP3   OH244776   1.630   2.968  15.198  0.0068  0.0012  0.0237
 7762TIP3    H144777   1.628   2.872  15.192  0.0214  0.0210 -0.2652
 7762TIP3    H244778   1.572   2.988  15.272 -0.8878 -0.1583 -0.6296
 7763TIP3   OH244779   5.011   2.009  16.864  0.2914  0.3406  0.0236
 7763TIP3    H144780   4.989   1.920  16.890  0.7211 -0.1062 -1.0584
 7763TIP3    H244781   4.946   2.064  16.909 -0.0703 -0.5233  0.5845
 7764TIP3   OH244782   5.932   4.582   2.578  0.1482 -0.2141  0.0040
 7764TIP3    H144783   5.970   4.637   2.509  0.1225 -1.5017 -1.0962
 7764TIP3    H244784   5.844   4.617   2.591  0.4558  0.5734 -0.0166
 7765TIP3   OH244785   1.728   1.185  10.417 -0.0870 -0.4458 -0.6686
 7765TIP3    H144786   1.761   1.134  10.342 -1.1075 -0.4275 -1.1572
 7765TIP3    H244787   1.706   1.119  10.483  0.6290 -0.4768 -0.4571
 7766TIP3   OH244788   2.765   6.393  17.039  0.3031  0.0790  0.2211
 7766TIP3    H144789   2.822   6.441  17.099 -1.1550  1.5468  0.5041
 7766TIP3    H244790   2.678   6.403  17.076 -0.2866 -1.3027 -0.7072
 7767TIP3   OH244791   4.059   2.754   5.611 -0.4000  0.4681  0.0900
 7767TIP3    H144792   4.053   2.839   5.655 -0.7579  0.6808 -0.3601
 7767TIP3    H244793   4.015   2.768   5.527 -0.0086 -0.0216 -0.1971
 7768TIP3   OH244794   2.260   2.207   4.822  0.7949  0.3267  0.2026
 7768TIP3    H144795   2.314   2.147   4.872  2.3830  0.9696 -0.6641
 7768TIP3    H244796   2.251   2.165   4.736 -3.9455 -1.9841  1.4911
 7769TIP3   OH244797   4.408   2.748  16.290 -0.1479 -0.1407 -0.5162
 7769TIP3    H144798   4.346   2.748  16.364  0.5979 -1.5067  0.1489
 7769TIP3    H244799   4.391   2.665  16.245  1.8286 -1.0130  0.2525
 7770TIP3   OH244800   6.052   0.604  13.730 -0.3062  0.0388  0.1176
 7770TIP3    H144801   6.024   0.695  13.725 -0.6771 -0.1018 -0.4656
 7770TIP3    H244802   5.983   0.555  13.686 -0.4900 -0.6148  1.1009
 7771TIP3   OH244803   5.130   6.458  14.862 -0.3759  0.4279 -0.1053
 7771TIP3    H144804   5.114   6.446  14.769  0.5328  2.4618 -0.5765
 7771TIP3    H244805   5.214   6.504  14.867 -1.0180  1.5293  1.6143
 7772TIP3   OH244806   5.160   2.121  13.107 -0.3564  0.0063  0.0750
 7772TIP3    H144807   5.250   2.089  13.096 -0.0382  1.0749 -0.5790
 7772TIP3    H244808   5.170   2.208  13.145 -0.9290  1.4179 -2.7533
 7773TIP3   OH244809   5.253   2.091   5.483 -0.3510  0.1745  0.2961
 7773TIP3    H144810   5.314   2.135   5.424 -0.4560  0.4488  0.3929
 7773TIP3    H244811   5.203   2.032   5.426  0.4272 -0.5156  0.3113
 7774TIP3   OH244812   0.591   1.314  15.824  0.1588 -0.0425 -0.4241
 7774TIP3    H144813   0.674   1.361  15.811  0.9456 -0.3827  2.5040
 7774TIP3    H244814   0.575   1.320  15.919 -2.6362 -0.9032 -0.7544
 7775TIP3   OH244815   4.809   3.312   1.531 -0.4506  0.6720 -0.1990
 7775TIP3    H144816   4.734   3.372   1.530 -0.4771  0.6576  0.5504
 7775TIP3    H244817   4.876   3.358   1.582  0.0221  0.6437 -0.7812
 7776TIP3   OH244818   0.884   0.921  16.150 -0.4631  0.7062 -0.1555
 7776TIP3    H144819   0.854   0.839  16.111  0.4099  0.1134  0.3843
 7776TIP3    H244820   0.876   0.985  16.080  0.7939 -0.2662 -1.2603
 7777TIP3   OH244821   3.995   4.461   1.537 -0.4227  0.1159  0.0028
 7777TIP3    H144822   4.014   4.497   1.623  2.9041 -0.7716 -0.2380
 7777TIP3    H244823   4.038   4.519   1.476 -2.1902  0.3594 -1.0816
 7778TIP3   OH244824   6.102   1.660  14.720 -0.0005 -0.1566 -0.2716
 7778TIP3    H144825   6.070   1.729  14.778 -0.0098 -0.0084 -0.4521
 7778TIP3    H244826   6.122   1.705  14.638 -0.7400 -0.4863 -0.6498
 7779TIP3   OH244827   1.754   6.062  16.681 -0.1255 -0.2813  0.1284
 7779TIP3    H144828   1.793   6.109  16.755  1.7726  0.7909 -1.4121
 7779TIP3    H244829   1.795   5.976  16.683 -0.3973 -0.4036  0.5511
 7780TIP3   OH244830   2.993   5.221  11.547  0.0009  0.4299 -0.6790
 7780TIP3    H144831   2.992   5.129  11.572  0.1917  0.2770 -1.2238
 7780TIP3    H244832   2.982   5.220  11.452 -0.3170  0.9814 -0.6509
 7781TIP3   OH244833   2.690   6.171  10.505 -0.7449 -0.5999  0.1184
 7781TIP3    H144834   2.626   6.240  10.520  0.6345  0.2925  2.5587
 7781TIP3    H244835   2.747   6.175  10.582  0.5997 -3.1404 -0.6421
 7782TIP3   OH244836   2.549   6.686   3.685  0.1805 -0.4572  0.3612
 7782TIP3    H144837   2.624   6.700   3.628  0.3525 -0.3983  0.6039
 7782TIP3    H244838   2.473   6.706   3.630  0.3597 -0.0780  0.2519
 7783TIP3   OH244839   6.534   4.922   2.491 -0.0796  0.2309  0.1476
 7783TIP3    H144840   6.569   4.975   2.419 -0.1631  0.1448  0.0427
 7783TIP3    H244841   6.439   4.925   2.479 -0.0514 -0.7794 -0.4671
 7784TIP3   OH244842   1.695   1.257   3.476 -0.7800  0.2578  0.3806
 7784TIP3    H144843   1.784   1.222   3.468  0.5102  3.5818 -1.5337
 7784TIP3    H244844   1.683   1.269   3.570  2.0686  2.4703  0.5982
 7785TIP3   OH244845   5.047   5.902  14.664  0.2161 -0.7334 -0.3645
 7785TIP3    H144846   4.969   5.850  14.643 -1.6887  0.6158  2.6362
 7785TIP3    H244847   5.081   5.864  14.745  1.9417 -0.4870 -0.9283
 7786TIP3   OH244848   5.044   3.717  11.299 -0.3182 -0.3265 -0.2300
 7786TIP3    H144849   4.981   3.661  11.345  0.4302  0.9923  2.6321
 7786TIP3    H244850   5.130   3.679  11.320  0.1639  1.4364  1.3133
 7787TIP3   OH244851   5.011   4.702   3.027  0.5499 -0.2587  0.2931
 7787TIP3    H144852   4.932   4.662   2.990  0.5909  1.9935 -2.5272
 7787TIP3    H244853   5.050   4.632   3.080 -2.8984 -1.6977  1.2683
 7788TIP3   OH244854   0.910   1.155   2.374  0.0511  0.1225  0.2417
 7788TIP3    H144855   0.982   1.218   2.375 -0.8616  1.2242  2.5326
 7788TIP3    H244856   0.831   1.208   2.373 -0.7493 -1.0150  0.7193
 7789TIP3   OH244857   6.360   0.967   5.996 -0.2470  0.1729 -0.1473
 7789TIP3    H144858   6.395   1.054   5.979 -0.3555  0.4607  1.0300
 7789TIP3    H244859   6.426   0.907   5.962 -0.1672  0.7039 -0.9559
 7790TIP3   OH244860   3.246   5.610  10.824 -0.3653  0.4278  0.0710
 7790TIP3    H144861   3.180   5.563  10.774  0.2608  0.3493 -0.7124
 7790TIP3    H244862   3.329   5.571  10.795  0.0191  0.4776  1.0777
 7791TIP3   OH244863   5.291   1.399   3.833  0.0116 -0.0400  0.1808
 7791TIP3    H144864   5.271   1.492   3.822 -1.8013 -0.3498  0.5190
 7791TIP3    H244865   5.226   1.368   3.896 -0.1492 -1.7707 -0.7611
 7792TIP3   OH244866   5.452   0.183  11.672  0.8504  0.1323 -0.3036
 7792TIP3    H144867   5.429   0.250  11.608 -0.5192  0.3737  0.4067
 7792TIP3    H244868   5.540   0.207  11.701  0.1496  2.0468  0.4251
 7793TIP3   OH244869   2.522   3.237  16.613 -0.0956  0.2400  0.3026
 7793TIP3    H144870   2.430   3.220  16.591  0.3598  0.0833 -1.7381
 7793TIP3    H244871   2.534   3.198  16.699 -1.1741 -2.6497 -0.7178
 7794TIP3   OH244872   6.724   2.970   0.819 -0.4021 -0.0879 -0.7648
 7794TIP3    H144873   6.650   3.011   0.863  1.0187  1.3153  0.4273
 7794TIP3    H244874   6.688   2.937   0.737 -2.8331 -1.5004  0.7436
 7795TIP3   OH244875   0.596   1.405   1.668  0.0279  0.1869  0.1733
 7795TIP3    H144876   0.578   1.388   1.575  0.4379  0.6661  0.0007
 7795TIP3    H244877   0.677   1.357   1.685  0.4759  0.8767  0.0264
 7796TIP3   OH244878   6.645   3.501  13.158  0.1334  0.0393  0.1630
 7796TIP3    H144879   6.632   3.411  13.128 -1.6682  0.0481  0.7579
 7796TIP3    H244880   6.556   3.536  13.165  0.7185  1.3510  1.5005
 7797TIP3   OH244881   2.434   3.596   1.450 -0.5319  0.1813 -0.5292
 7797TIP3    H144882   2.457   3.564   1.537 -3.9508 -0.0235  0.4373
 7797TIP3    H244883   2.478   3.536   1.390  2.9122  1.0408  0.9059
 7798TIP3   OH244884   5.857   3.789  12.879  0.9343 -0.7430  0.8668
 7798TIP3    H144885   5.778   3.768  12.930  1.0548 -0.3258  1.2254
 7798TIP3    H244886   5.869   3.712  12.822 -1.3669  0.3224 -1.2725
 7799TIP3   OH244887   0.782   5.514   3.099 -0.1582 -0.0796 -0.0960
 7799TIP3    H144888   0.776   5.437   3.043 -1.5689 -0.4381  0.5284
 7799TIP3    H244889   0.876   5.531   3.106  0.2228 -2.2140  0.4150
 7800TIP3   OH244890   4.893   3.766   0.212  0.1590 -0.0960 -0.1190
 7800TIP3    H144891   4.881   3.724   0.298  0.0951 -0.9798 -0.5514
 7800TIP3    H244892   4.805   3.787   0.183  0.2188  0.8749  0.3394
 7801TIP3   OH244893   4.161   2.490  15.209  0.3233  0.0538  0.1419
 7801TIP3    H144894   4.111   2.436  15.147 -0.7648  3.0412 -1.7962
 7801TIP3    H244895   4.118   2.575  15.207  3.0509  1.6103  1.6261
 7802TIP3   OH244896   5.908   6.224   0.961 -0.4490 -0.5537  0.4957
 7802TIP3    H144897   5.844   6.295   0.957  0.1029 -0.0981 -0.5259
 7802TIP3    H244898   5.884   6.166   0.888 -0.5581 -1.1379  0.9869
 7803TIP3   OH244899   3.662   0.496  13.863  0.2500  0.3935 -0.3305
 7803TIP3    H144900   3.695   0.583  13.841  1.0511 -0.1899 -1.6323
 7803TIP3    H244901   3.693   0.480  13.952 -1.6076  2.1933  0.7129
 7804TIP3   OH244902   4.959   3.126   1.396 -0.2117 -0.2692 -0.0153
 7804TIP3    H144903   4.886   3.157   1.343 -0.0811 -0.4830 -0.3216
 7804TIP3    H244904   4.947   3.170   1.480  0.5178  1.3728 -0.7336
 7805TIP3   OH244905   1.572   6.706  15.198  0.1807 -0.6028 -0.2684
 7805TIP3    H144906   1.567   6.755  15.116  1.6405 -0.1092 -0.0940
 7805TIP3    H244907   1.550   6.616  15.174  0.1859 -0.3863 -1.1196
 7806TIP3   OH244908   2.682   6.096   3.121  0.7427 -0.2302 -0.0005
 7806TIP3    H144909   2.651   6.014   3.082  1.9023 -0.1469 -1.1854
 7806TIP3    H244910   2.603   6.139   3.153 -0.2660 -0.5055 -1.9357
 7807TIP3   OH244911   1.994   2.835  12.592 -0.0700 -0.3861 -0.4079
 7807TIP3    H144912   1.905   2.803  12.607 -0.0824  0.0068  0.4406
 7807TIP3    H244913   2.028   2.851  12.680 -0.2972  2.5397 -0.7499
 7808TIP3   OH244914   3.139   5.404   5.466  0.4502 -0.3969  0.3389
 7808TIP3    H144915   3.185   5.469   5.519  1.5822 -2.3689  1.9110
 7808TIP3    H244916   3.085   5.356   5.528 -2.0402  0.3471 -1.1193
 7809TIP3   OH244917   1.910   2.178  11.587  0.1714  0.2054 -0.3212
 7809TIP3    H144918   1.873   2.253  11.541 -0.4334 -0.1888 -0.4909
 7809TIP3    H244919   1.892   2.195  11.680  2.0757  1.3788 -0.1183
 7810TIP3   OH244920   4.169   1.454   2.148 -0.5627 -0.3096  0.0980
 7810TIP3    H144921   4.198   1.544   2.140  0.8136 -0.5884  1.5314
 7810TIP3    H244922   4.181   1.417   2.060  0.9471  0.3240  0.0164
 7811TIP3   OH244923   2.501   6.165   5.524 -0.3948  0.2392  0.2040
 7811TIP3    H144924   2.509   6.098   5.456  0.5588 -0.8188  1.3156
 7811TIP3    H244925   2.452   6.123   5.595  1.6392  0.1089  1.6053
 7812TIP3   OH244926   3.632   6.231   2.652  0.1792  0.0483 -0.2246
 7812TIP3    H144927   3.576   6.289   2.704 -0.5953 -0.8838  0.0121
 7812TIP3    H244928   3.637   6.273   2.566  2.1896  2.0891  0.7518
 7813TIP3   OH244929   5.157   0.053   2.435 -0.0813  0.5561 -0.2494
 7813TIP3    H144930   5.094   0.061   2.363  2.3059 -0.7630 -2.6818
 7813TIP3    H244931   5.121  -0.015   2.491 -0.9523 -0.0091 -1.4374
 7814TIP3   OH244932   6.574   4.633  11.156  0.3538  0.4333 -0.2270
 7814TIP3    H144933   6.491   4.601  11.120 -0.3697  1.2840  0.6323
 7814TIP3    H244934   6.555   4.723  11.182  1.8740  1.0355 -1.0724
 7815TIP3   OH244935   0.626   6.633   1.579 -0.1172  0.0021 -0.2518
 7815TIP3    H144936   0.634   6.614   1.673 -1.8184 -0.7170 -0.2273
 7815TIP3    H244937   0.639   6.728   1.574  0.1240  0.0349  0.6936
 7816TIP3   OH244938   2.113   4.282  14.322  1.1915 -0.1070  0.3255
 7816TIP3    H144939   2.183   4.329  14.367  1.5955 -0.8280  0.4475
 7816TIP3    H244940   2.062   4.243  14.393  0.6273  0.4521  0.2413
 7817TIP3   OH244941   2.185   3.560   6.007 -0.6775 -0.3207  0.0004
 7817TIP3    H144942   2.168   3.600   5.921 -0.9197  0.0180  0.2029
 7817TIP3    H244943   2.156   3.626   6.070 -1.5966 -1.0383  0.3446
 7818TIP3   OH244944   2.695   5.716  11.483  0.7896  0.1803  0.3773
 7818TIP3    H144945   2.736   5.674  11.408  0.9543 -3.2514  2.1714
 7818TIP3    H244946   2.608   5.741  11.452  1.2715 -0.0706 -1.2439
 7819TIP3   OH244947   6.337   3.138  16.571  0.4667 -0.2464  0.2831
 7819TIP3    H144948   6.248   3.141  16.608  0.0890 -0.4438 -0.5852
 7819TIP3    H244949   6.385   3.205  16.620 -0.7367  1.3763 -0.6557
 7820TIP3   OH244950   1.090   0.900   3.531 -0.2486 -0.6177  0.6810
 7820TIP3    H144951   1.127   0.940   3.610 -0.5493  1.3400 -0.0977
 7820TIP3    H244952   0.995   0.904   3.545 -0.2767 -1.5758  0.8077
 7821TIP3   OH244953   1.005   4.521  15.594  0.3477 -0.7896 -0.7031
 7821TIP3    H144954   0.956   4.570  15.661  0.4573  1.0212 -1.8777
 7821TIP3    H244955   1.097   4.545  15.610  0.3953 -0.5345 -1.3385
 7822TIP3   OH244956   3.874   6.142   3.798 -0.1834  0.3014 -0.5892
 7822TIP3    H144957   3.799   6.111   3.849 -0.0141 -1.1519 -1.1830
 7822TIP3    H244958   3.853   6.118   3.707  1.1266 -0.4569 -0.7272
 7823TIP3   OH244959   2.619   3.959  15.138 -0.1713 -0.2773  0.4751
 7823TIP3    H144960   2.638   3.947  15.045  3.2847  0.8187  0.8974
 7823TIP3    H244961   2.543   3.904  15.154  0.3649 -2.1387 -2.5525
 7824TIP3   OH244962   5.450   3.883  16.662 -0.1769 -0.0196  0.0193
 7824TIP3    H144963   5.420   3.792  16.663 -2.1333  0.5429 -1.0552
 7824TIP3    H244964   5.378   3.931  16.620  1.4546  1.7952 -0.8457
 7825TIP3   OH244965   0.193   2.952  15.750  0.0986 -0.1865  0.2877
 7825TIP3    H144966   0.271   3.005  15.737  0.2247 -0.3299  0.4554
 7825TIP3    H244967   0.129   2.987  15.688  0.2087  0.1030  0.3405
 7826TIP3   OH244968   3.787   5.142  12.615 -0.4599 -0.8004 -0.6215
 7826TIP3    H144969   3.693   5.135  12.602 -0.6434 -2.2547  1.1668
 7826TIP3    H244970   3.801   5.234  12.639 -1.1662 -0.1710 -2.4677
 7827TIP3   OH244971   0.811   3.509  13.978 -0.5837  0.0850  0.4465
 7827TIP3    H144972   0.804   3.445  13.906 -0.6062  0.5165  0.0572
 7827TIP3    H244973   0.891   3.484  14.025 -1.1958 -0.9140  0.9841
 7828TIP3   OH244974   4.614   2.208   3.075 -0.0686  0.1737 -0.1145
 7828TIP3    H144975   4.540   2.150   3.092  0.4555 -0.1194  1.2918
 7828TIP3    H244976   4.576   2.286   3.036 -1.1692  0.1909  0.9512
 7829TIP3   OH244977   5.391   0.525   3.724  0.0565 -0.0036 -0.2768
 7829TIP3    H144978   5.402   0.565   3.638  2.4718 -2.7882 -1.4423
 7829TIP3    H244979   5.434   0.439   3.716 -3.8073 -2.4867  2.2753
 7830TIP3   OH244980   4.847   3.206  13.370  1.2163 -0.3511  0.0473
 7830TIP3    H144981   4.917   3.245  13.423  1.6302 -1.4253  0.3066
 7830TIP3    H244982   4.888   3.186  13.286  0.4974  1.5914 -0.8334
 7831TIP3   OH244983   0.157   4.812   0.862  0.6433 -0.0428 -0.3823
 7831TIP3    H144984   0.159   4.768   0.947  1.0268  0.6911 -0.0051
 7831TIP3    H244985   0.244   4.798   0.825  1.1190  1.2204  0.1832
 7832TIP3   OH244986   4.467   3.525  15.015  0.0367  0.5322 -0.6103
 7832TIP3    H144987   4.506   3.613  15.023 -1.2446  1.0510  0.3424
 7832TIP3    H244988   4.477   3.488  15.103 -1.0125  0.4290 -0.5268
 7833TIP3   OH244989   6.195   5.284   4.177  0.0373  0.1480  0.6362
 7833TIP3    H144990   6.115   5.333   4.196  1.4407  2.4394  0.9120
 7833TIP3    H244991   6.194   5.274   4.082 -1.4526 -1.5407  0.7601
 7834TIP3   OH244992   3.618   3.700  16.253  0.3785  0.6524  0.4020
 7834TIP3    H144993   3.610   3.795  16.250  0.7909  0.6652 -1.5701
 7834TIP3    H244994   3.685   3.679  16.188 -0.4278 -1.0544  0.0603
 7835TIP3   OH244995   1.129   2.507  13.894  0.5625 -0.5416 -0.0930
 7835TIP3    H144996   1.098   2.475  13.809 -0.3692  0.2333 -0.0569
 7835TIP3    H244997   1.094   2.445  13.957  1.0756 -0.9969 -0.2467
 7836TIP3   OH244998   1.072   3.600  16.407  0.3644 -0.0743 -0.3763
 7836TIP3    H144999   1.132   3.632  16.475  0.3537 -0.2754 -0.2715
 7836TIP3    H245000   1.002   3.665  16.404  0.8846  0.4771 -0.9143
 7837TIP3   OH245001   1.568   5.620   4.825  0.0699  0.2230  0.2889
 7837TIP3    H145002   1.582   5.683   4.755  0.6414 -0.2508 -0.0352
 7837TIP3    H245003   1.641   5.635   4.886 -1.3842  1.8451  1.7337
 7838TIP3   OH245004   4.936   1.405   5.339  0.0187 -0.4115  0.2124
 7838TIP3    H145005   4.855   1.360   5.365  0.4232 -0.2793  1.8030
 7838TIP3    H245006   4.947   1.474   5.405  1.6122 -0.6539  0.2319
 7839TIP3   OH245007   4.293   4.464  15.360  0.1599 -0.2084 -0.2769
 7839TIP3    H145008   4.363   4.489  15.419 -0.8590 -1.2877  1.4887
 7839TIP3    H245009   4.337   4.443  15.277  1.6735  0.9398  0.2099
 7840TIP3   OH245010   0.489   6.713   1.009  0.0371  0.1455 -0.4491
 7840TIP3    H145011   0.552   6.685   1.075 -2.3066 -1.0473  1.4398
 7840TIP3    H245012   0.511   6.805   0.993 -0.1090  0.9975  3.1953
 7841TIP3   OH245013   6.258   0.309  15.500  0.0105  0.3410 -0.4448
 7841TIP3    H145014   6.319   0.372  15.461 -0.9745 -0.1770 -3.0294
 7841TIP3    H245015   6.198   0.287  15.429 -2.5830  0.0452  1.7033
 7842TIP3   OH245016   0.990   2.495   5.931  0.2123 -0.4780  0.2522
 7842TIP3    H145017   1.085   2.490   5.934  0.1848 -1.5986 -0.3579
 7842TIP3    H245018   0.970   2.552   5.857  0.3962  0.5684  0.9747
 7843TIP3   OH245019   5.497   4.961  11.565 -0.0638 -0.1253  0.0749
 7843TIP3    H145020   5.562   5.009  11.617 -0.0937  0.3356 -0.3033
 7843TIP3    H245021   5.543   4.939  11.484 -0.6180  0.9350 -0.5449
 7844TIP3   OH245022   6.192   2.124   5.483  0.6211  0.4444 -0.6873
 7844TIP3    H145023   6.136   2.198   5.504 -1.3681 -1.2153  0.2598
 7844TIP3    H245024   6.227   2.144   5.396 -1.5566  1.5432 -1.3876
 7845TIP3   OH245025   5.423   4.321  16.219  0.9084 -0.0333  0.5334
 7845TIP3    H145026   5.429   4.390  16.152  0.7103  0.3034  0.8621
 7845TIP3    H245027   5.386   4.365  16.295 -1.1763 -0.9376  0.1206
 7846TIP3   OH245028   3.921   5.364  13.303  0.4073 -0.2955  0.0573
 7846TIP3    H145029   3.938   5.277  13.341  2.1116  0.8001  2.0034
 7846TIP3    H245030   3.952   5.358  13.213  2.1846 -1.2338  0.6825
 7847TIP3   OH245031   1.184   2.980   5.126 -0.0802 -0.1146  0.1532
 7847TIP3    H145032   1.175   2.987   5.221 -2.4288 -0.6759  0.0327
 7847TIP3    H245033   1.203   2.888   5.109 -0.3228 -0.1456  0.0440
 7848TIP3   OH245034   1.855   1.883   2.398  0.5537  0.3291 -0.0471
 7848TIP3    H145035   1.878   1.809   2.453  2.6845  1.6115  0.9012
 7848TIP3    H245036   1.801   1.939   2.455 -2.2101 -0.9983 -1.1682
 7849TIP3   OH245037   2.667   4.409   4.810 -0.2290 -0.6461  0.1926
 7849TIP3    H145038   2.688   4.468   4.738  0.3265 -1.6544 -0.4886
 7849TIP3    H245039   2.585   4.444   4.846  0.4463  0.9493  0.2747
 7850TIP3   OH245040   3.586   3.910   1.548 -0.1591 -0.2093 -0.5421
 7850TIP3    H145041   3.526   3.843   1.515 -0.5213  1.0433 -2.6647
 7850TIP3    H245042   3.670   3.865   1.558 -0.6946 -1.2616 -0.6215
 7851TIP3   OH245043   6.390   2.204  12.433  0.1650 -0.1512 -0.2121
 7851TIP3    H145044   6.428   2.275  12.381  0.0703  0.3968  0.4570
 7851TIP3    H245045   6.304   2.188  12.393 -0.9268  1.8748  1.1539
 7852TIP3   OH245046   6.454   3.785   1.795  0.3488  0.6514 -0.6463
 7852TIP3    H145047   6.520   3.719   1.771 -0.1336 -0.1837  0.2464
 7852TIP3    H245048   6.371   3.746   1.768 -0.2424 -0.3734  2.2325
 7853TIP3   OH245049   6.456   1.965  17.235 -0.3294 -0.0914 -0.0107
 7853TIP3    H145050   6.410   2.042  17.268  0.0194  2.0836 -3.9553
 7853TIP3    H245051   6.481   1.916  17.313 -1.7135  3.0977  2.6567
 7854TIP3   OH245052   4.086   3.435   5.293  0.9558 -0.1874  0.1923
 7854TIP3    H145053   4.051   3.350   5.320  0.2068 -0.5308 -1.6644
 7854TIP3    H245054   4.179   3.418   5.278  1.0599 -0.3643  0.9792
 7855TIP3   OH245055   0.069   1.395  10.336  0.5144 -0.1504 -0.0249
 7855TIP3    H145056  -0.008   1.412  10.390  0.7377  1.2045 -0.0899
 7855TIP3    H245057   0.045   1.322  10.280 -0.1771 -0.7395  1.0148
 7856TIP3   OH245058   1.136   1.218   0.280  0.4987 -0.3035 -0.9652
 7856TIP3    H145059   1.130   1.154   0.351 -1.4521  0.9515  0.0893
 7856TIP3    H245060   1.230   1.235   0.271  0.8192  0.2047  2.0499
 7857TIP3   OH245061   5.517   5.508  14.587  0.1757  0.2939 -0.0581
 7857TIP3    H145062   5.552   5.484  14.672 -1.9356  0.8580  1.0291
 7857TIP3    H245063   5.589   5.493  14.526  1.6645 -0.3207  1.7817
 7858TIP3   OH245064   5.190   0.838   0.711 -0.1366  0.5243  0.3976
 7858TIP3    H145065   5.216   0.755   0.750 -1.2298  0.1548  0.3612
 7858TIP3    H245066   5.273   0.883   0.694  0.4848 -0.6513  0.2024
 7859TIP3   OH245067   5.868   2.249   3.499 -0.0856 -0.1805 -0.1544
 7859TIP3    H145068   5.834   2.327   3.455 -0.1638  0.1002  0.4028
 7859TIP3    H245069   5.841   2.176   3.443  0.9612  0.2689 -1.2834
 7860TIP3   OH245070   2.896   6.404  13.289  0.6236  0.0882 -0.2267
 7860TIP3    H145071   2.907   6.454  13.369  0.0196 -0.4817  0.2277
 7860TIP3    H245072   2.982   6.405  13.248  0.9364  0.4058  0.4213
 7861TIP3   OH245073   0.854   5.196   1.296  0.0214  0.2767  0.5871
 7861TIP3    H145074   0.792   5.259   1.258  1.6357  1.6198  0.0425
 7861TIP3    H245075   0.852   5.214   1.390  0.0432  0.7843  0.4967
 7862TIP3   OH245076   2.474   3.359   1.847  0.0571  0.0125 -0.3370
 7862TIP3    H145077   2.470   3.339   1.941 -0.4470  1.4739 -0.0218
 7862TIP3    H245078   2.492   3.275   1.805 -1.6151 -1.0238  0.9137
 7863TIP3   OH245079   0.603   1.432  14.303 -0.1260  0.1182  0.0049
 7863TIP3    H145080   0.625   1.475  14.220 -1.5062  0.7323 -0.0669
 7863TIP3    H245081   0.682   1.441  14.356  0.3757  0.7660 -0.8252
 7864TIP3   OH245082   5.700   5.550   3.333  0.1070  0.2539  0.9391
 7864TIP3    H145083   5.665   5.461   3.327  0.1203  0.1843  1.6950
 7864TIP3    H245084   5.671   5.593   3.253  0.5932 -0.5977  0.2814
 7865TIP3   OH245085   4.636   4.987   4.013  0.6324 -0.2401 -0.5593
 7865TIP3    H145086   4.579   5.039   3.957  0.3370  0.0673  0.0118
 7865TIP3    H245087   4.650   5.042   4.090  1.4121 -0.4557 -0.5326
 7866TIP3   OH245088   0.905   1.523   0.667 -0.4828 -0.2892  0.4889
 7866TIP3    H145089   0.841   1.458   0.639  0.4720 -0.5944 -1.1098
 7866TIP3    H245090   0.990   1.482   0.651  0.3785  2.6309 -4.6167
 7867TIP3   OH245091   1.328   3.530   2.965  0.0152  0.0517 -0.2004
 7867TIP3    H145092   1.354   3.607   3.016  2.3633 -0.7559 -0.0417
 7867TIP3    H245093   1.407   3.506   2.916 -0.2117 -2.9958  0.7427
 7868TIP3   OH245094   5.006   1.348  14.745 -0.1357 -0.5769  1.0698
 7868TIP3    H145095   5.051   1.420  14.790  0.1215  0.5352 -0.8556
 7868TIP3    H245096   5.068   1.320  14.677 -1.3241 -0.7506  0.0207
 7869TIP3   OH245097   1.474   5.782   1.116  0.0785 -0.4722 -0.0490
 7869TIP3    H145098   1.389   5.754   1.151  0.2011  1.9281  2.5072
 7869TIP3    H245099   1.537   5.758   1.183  1.0746 -0.0087 -0.8001
 7870TIP3   OH245100   1.637   4.153  12.793  0.2790  0.3585  0.0805
 7870TIP3    H145101   1.642   4.224  12.729  2.1434  0.1353 -0.0606
 7870TIP3    H245102   1.715   4.100  12.777 -0.4088 -1.0060  1.0394
 7871TIP3   OH245103   6.133   2.979   6.246  0.5516 -0.4293 -0.0784
 7871TIP3    H145104   6.172   3.059   6.282  0.0187  0.3842 -1.2284
 7871TIP3    H245105   6.056   2.963   6.300 -0.7501  1.2870 -1.2816
 7872TIP3   OH245106   5.558   1.047   2.206  0.2359 -0.4707  0.3710
 7872TIP3    H145107   5.600   1.123   2.164 -0.8523  0.3704  0.7390
 7872TIP3    H245108   5.573   0.975   2.145  0.4730  0.2662 -0.4746
 7873TIP3   OH245109   1.681   0.922   3.921  0.2673 -0.2454  0.4318
 7873TIP3    H145110   1.747   0.852   3.920  2.4441  1.7070 -0.7318
 7873TIP3    H245111   1.709   0.983   3.853 -2.9414  0.5811 -0.3310
 7874TIP3   OH245112   5.915   5.371   1.552  0.4216 -0.4259 -0.0091
 7874TIP3    H145113   5.873   5.451   1.519 -0.6934 -0.9775  0.0190
 7874TIP3    H245114   5.913   5.310   1.479  0.1791 -0.8228  0.3223
 7875TIP3   OH245115   1.649   1.444  11.661  0.0387 -0.9515  0.0518
 7875TIP3    H145116   1.563   1.484  11.653  0.4527 -0.0348  0.0028
 7875TIP3    H245117   1.710   1.517  11.651  0.8637 -1.7901 -1.4452
 7876TIP3   OH245118   4.122   6.597   3.695 -0.2227  0.0820  0.5547
 7876TIP3    H145119   4.041   6.642   3.716 -1.0153 -0.9961 -0.0854
 7876TIP3    H245120   4.094   6.511   3.664  1.1341 -0.0708 -0.3155
 7877TIP3   OH245121   1.957   3.471  12.109  0.3981  0.2741  0.1441
 7877TIP3    H145122   1.873   3.469  12.156  1.6040 -0.8329  2.4446
 7877TIP3    H245123   1.975   3.379  12.089  2.3962  0.0992  2.3766
 7878TIP3   OH245124   5.694   5.362   6.470  0.0395  0.4693 -0.2420
 7878TIP3    H145125   5.662   5.452   6.477 -0.3693  0.3353 -0.3713
 7878TIP3    H245126   5.779   5.371   6.428  0.3481  0.8607  0.4379
 7879TIP3   OH245127   0.090   5.488   4.328 -0.2577 -0.3030  0.1346
 7879TIP3    H145128   0.057   5.410   4.283 -0.5156 -0.0528 -0.1144
 7879TIP3    H245129   0.183   5.471   4.340 -0.3323 -0.6969  0.1808
 7880TIP3   OH245130   0.359   0.421  16.252 -0.0689 -0.1786  0.0153
 7880TIP3    H145131   0.407   0.453  16.329  0.3567 -0.3672 -0.1666
 7880TIP3    H245132   0.287   0.484  16.241  0.3892  0.3607  0.0365
 7881TIP3   OH245133   3.866   1.711   2.441 -0.2886  0.1030 -0.6686
 7881TIP3    H145134   3.935   1.776   2.453 -0.3295  0.1734 -0.8183
 7881TIP3    H245135   3.913   1.628   2.433 -0.2916 -0.1156  1.0619
 7882TIP3   OH245136   0.880   4.581  17.140 -0.0852  0.3891  0.2027
 7882TIP3    H145137   0.969   4.561  17.110 -0.6055 -0.2789 -0.9396
 7882TIP3    H245138   0.866   4.672  17.115 -0.0380  0.2256 -0.4415
 7883TIP3   OH245139   4.372   0.175   2.310 -0.0085 -0.3030 -0.3047
 7883TIP3    H145140   4.320   0.097   2.292 -0.3360 -0.5524  1.5497
 7883TIP3    H245141   4.452   0.141   2.351 -0.2107  0.3253  0.6372
 7884TIP3   OH245142   0.590   4.976   4.045 -0.2292  0.4725  0.2997
 7884TIP3    H145143   0.643   4.974   4.125  0.6975  1.1579 -0.2831
 7884TIP3    H245144   0.621   4.903   3.993 -0.1146  0.6490  0.1191
 7885TIP3   OH245145   3.774   3.633  14.611  0.1482  0.0708 -0.1526
 7885TIP3    H145146   3.748   3.667  14.697  0.0336 -2.7190  1.0082
 7885TIP3    H245147   3.714   3.560  14.595  1.4793 -0.7573 -1.6504
 7886TIP3   OH245148   0.529   1.108  15.415 -0.2050  0.1397 -0.2213
 7886TIP3    H145149   0.444   1.150  15.433 -0.8386 -0.3828 -1.8445
 7886TIP3    H245150   0.516   1.016  15.439 -0.6842 -0.3103 -2.0445
 7887TIP3   OH245151   3.590   0.959   2.214 -0.1102 -0.2885 -0.3016
 7887TIP3    H145152   3.500   0.954   2.182 -0.0768 -3.0853 -0.2351
 7887TIP3    H245153   3.592   0.901   2.290  1.5327  0.4613  0.2844
 7888TIP3   OH245154   4.683   3.307   2.229  0.1809  0.3060  0.6115
 7888TIP3    H145155   4.742   3.382   2.231  1.6571 -0.8180  1.8041
 7888TIP3    H245156   4.697   3.262   2.313  1.5766 -2.8847 -1.1272
 7889TIP3   OH245157   3.995   2.159   0.701  0.0957 -0.1674  0.4634
 7889TIP3    H145158   4.049   2.082   0.721  0.3468  0.2337  1.3438
 7889TIP3    H245159   3.935   2.166   0.775 -0.6751 -0.1605 -0.1485
 7890TIP3   OH245160   0.755   5.911   4.519  0.2720  0.0269  0.1416
 7890TIP3    H145161   0.845   5.917   4.551  0.1465 -0.5513  0.6110
 7890TIP3    H245162   0.704   5.887   4.596 -0.3716  0.9268  0.0087
 7891TIP3   OH245163   2.464   6.124  15.465  0.4558 -0.4329 -0.0272
 7891TIP3    H145164   2.467   6.031  15.443  0.9956  0.1789 -2.9707
 7891TIP3    H245165   2.414   6.128  15.547 -0.0352 -3.2455 -0.0978
 7892TIP3   OH245166   0.623   2.040  14.483 -0.3241 -0.4807  0.2889
 7892TIP3    H145167   0.629   1.952  14.522  0.2480 -0.5104  0.1448
 7892TIP3    H245168   0.623   2.024  14.389  3.0562 -0.2081  0.1226
 7893TIP3   OH245169   4.438   2.889   1.667 -0.2395  0.1857  0.2659
 7893TIP3    H145170   4.360   2.834   1.668 -0.5368  0.6032  0.3566
 7893TIP3    H245171   4.511   2.827   1.659 -0.6353 -0.1465 -1.0118
 7894TIP3   OH245172   3.999   4.069  15.132  0.1862  0.8695  0.0338
 7894TIP3    H145173   4.001   4.043  15.040  0.1688 -0.9445  0.5126
 7894TIP3    H245174   4.080   4.033  15.169 -1.4312 -1.6204  1.4815
 7895TIP3   OH245175   5.553   4.050  16.217 -0.2697 -0.0829 -0.3607
 7895TIP3    H145176   5.486   4.118  16.222 -0.1656 -0.0585  1.4105
 7895TIP3    H245177   5.606   4.073  16.141 -0.5102  1.5741 -0.0530
 7896TIP3   OH245178   1.756   6.042   4.244  0.5006  0.0182  0.0180
 7896TIP3    H145179   1.688   6.039   4.177  0.7426 -1.3594 -0.1968
 7896TIP3    H245180   1.735   5.969   4.303  1.3175  0.0917  0.4178
 7897TIP3   OH245181   4.106   4.296   5.851 -0.3017  0.4193 -0.3139
 7897TIP3    H145182   4.058   4.246   5.917  2.2459 -2.2563 -0.2525
 7897TIP3    H245183   4.072   4.263   5.767  0.3702 -0.4125 -0.2737
 7898TIP3   OH245184   3.160   3.512   6.375 -0.0910  0.3158  0.5305
 7898TIP3    H145185   3.069   3.509   6.405 -0.9962  0.2564 -1.9508
 7898TIP3    H245186   3.185   3.604   6.384 -1.3046  0.8566 -0.9942
 7899TIP3   OH245187   6.105   0.440   2.904 -0.0089  0.3168 -0.3731
 7899TIP3    H145188   6.023   0.486   2.882  0.4693  1.6581  0.5510
 7899TIP3    H245189   6.157   0.445   2.823 -0.4614  0.2709 -0.6735
 7900TIP3   OH245190   0.160   5.456   2.957 -0.4291 -0.7480 -0.2912
 7900TIP3    H145191   0.186   5.423   3.043 -1.5061  1.3116  0.8910
 7900TIP3    H245192   0.234   5.509   2.928 -1.1397  0.8489  0.6946
 7901TIP3   OH245193   2.632   3.276   1.038  0.5091  0.2625 -0.0558
 7901TIP3    H145194   2.608   3.198   1.088  0.8053  0.2440  0.0628
 7901TIP3    H245195   2.700   3.318   1.091 -1.5935  2.1641  1.3268
 7902TIP3   OH245196   3.444   6.780   4.470 -0.0573  0.2576 -0.4497
 7902TIP3    H145197   3.387   6.703   4.472 -0.5422  0.5976 -0.8418
 7902TIP3    H245198   3.454   6.806   4.562 -0.0054 -0.1876 -0.3300
 7903TIP3   OH245199   2.056   3.595  15.363 -0.0880  0.5454 -0.1744
 7903TIP3    H145200   1.990   3.587  15.432 -0.3738 -2.1161 -0.6448
 7903TIP3    H245201   2.105   3.674  15.386 -2.1656  1.4951  1.2860
 7904TIP3   OH245202   3.646   0.772   5.268 -0.1709 -0.7536 -0.5525
 7904TIP3    H145203   3.568   0.759   5.213 -0.6576  1.1854 -0.3970
 7904TIP3    H245204   3.610   0.791   5.355  0.4402  0.6156 -0.5795
 7905TIP3   OH245205   4.493   1.235  14.913  0.0641 -0.2907 -0.1200
 7905TIP3    H145206   4.492   1.289  14.992 -0.6105 -1.2232  0.5269
 7905TIP3    H245207   4.528   1.151  14.942  1.9470  0.0323 -1.3028
 7906TIP3   OH245208   1.776   3.572   2.381  0.2039  0.5803 -0.0919
 7906TIP3    H145209   1.854   3.603   2.335  0.3994 -0.6176 -0.6249
 7906TIP3    H245210   1.733   3.513   2.318 -0.3803  0.1358  0.6949
 7907TIP3   OH245211   2.923   5.240  12.660  0.1394  0.0489 -0.0066
 7907TIP3    H145212   2.933   5.162  12.716  2.4642  0.9711  1.0152
 7907TIP3    H245213   2.952   5.211  12.574  2.7132  0.0944  0.7383
 7908TIP3   OH245214   2.603   0.562  15.674 -0.0624 -0.5851  0.2627
 7908TIP3    H145215   2.544   0.503  15.628 -0.1181  0.2045 -0.7083
 7908TIP3    H245216   2.690   0.525  15.662  0.2543  0.8111 -2.5659
 7909TIP3   OH245217   6.593   1.425   1.276  0.3868  0.0892  0.6886
 7909TIP3    H145218   6.641   1.410   1.194 -1.7553 -0.3987 -0.5595
 7909TIP3    H245219   6.647   1.384   1.344  1.3319 -1.1487 -0.7466
 7910TIP3   OH245220   3.984   6.105   3.124 -0.3573 -0.1834 -0.0254
 7910TIP3    H145221   4.008   6.157   3.201 -1.3131  0.8059 -0.3589
 7910TIP3    H245222   4.025   6.020   3.139  0.3460  0.3172  1.0712
 7911TIP3   OH245223   6.349   2.553  11.331  0.8438 -0.1544 -0.0777
 7911TIP3    H145224   6.428   2.504  11.355  0.7646 -0.2808 -0.0722
 7911TIP3    H245225   6.375   2.645  11.338  0.4611 -0.1470  1.8076
 7912TIP3   OH245226   6.799   4.655  14.063  0.5657 -0.0388 -0.0045
 7912TIP3    H145227   6.877   4.600  14.069  0.7115  0.2201  0.4522
 7912TIP3    H245228   6.735   4.599  14.018  0.7830 -0.4985  0.2488
 7913TIP3   OH245229   6.039   3.179   1.669 -0.1380  0.6514 -0.5174
 7913TIP3    H145230   6.060   3.266   1.635 -1.6047  0.3855 -2.2763
 7913TIP3    H245231   6.054   3.120   1.595 -0.8784 -0.3302  0.0869
 7914TIP3   OH245232   3.297   0.792  16.523  0.1944 -0.0510  0.4954
 7914TIP3    H145233   3.262   0.705  16.541 -2.9245  0.9973 -0.0269
 7914TIP3    H245234   3.292   0.802  16.428  0.3402  0.7793  0.5616
 7915TIP3   OH245235   0.937   3.377  11.128 -0.1274  0.7592  0.2591
 7915TIP3    H145236   0.933   3.295  11.080 -0.4451  1.2721 -0.6033
 7915TIP3    H245237   1.031   3.390  11.144 -0.1497 -0.3662  1.4798
 7916TIP3   OH245238   2.987   0.374   4.309 -0.1193 -0.2333 -0.3401
 7916TIP3    H145239   2.947   0.439   4.251  1.5464  1.5192  0.3533
 7916TIP3    H245240   3.050   0.327   4.254 -1.1905 -1.1867 -0.7959
 7917TIP3   OH245241   4.967   0.181  11.485 -0.3657  0.0086 -0.5960
 7917TIP3    H145242   5.010   0.096  11.495  3.6533  1.8682 -0.1337
 7917TIP3    H245243   4.954   0.212  11.574  0.5373  0.8789 -0.7487
 7918TIP3   OH245244   2.938   0.915   3.331  0.2159  0.7294  0.2644
 7918TIP3    H145245   2.863   0.897   3.388  1.0138  0.6833  1.3100
 7918TIP3    H245246   2.991   0.835   3.335  0.7994  1.1119  0.2765
 7919TIP3   OH245247   1.398   4.890   5.450 -0.5202  0.0552 -0.5479
 7919TIP3    H145248   1.457   4.931   5.386  0.8159  0.0400  0.6264
 7919TIP3    H245249   1.333   4.844   5.397  0.5621  0.0229 -1.8902
 7920TIP3   OH245250   5.334   2.727  10.936 -0.4213 -0.7348  0.3379
 7920TIP3    H145251   5.343   2.822  10.938  3.0757 -0.9175  2.3362
 7920TIP3    H245252   5.296   2.704  11.021  0.5364 -1.1449  0.6805
 7921TIP3   OH245253   2.282   3.148   0.197 -0.1562 -0.0601 -0.6303
 7921TIP3    H145254   2.347   3.211   0.228 -0.6810  0.1879 -0.0064
 7921TIP3    H245255   2.289   3.075   0.257 -1.8014  0.8015  0.6853
 7922TIP3   OH245256   3.853   1.792   0.713 -0.3686  0.0949  0.0332
 7922TIP3    H145257   3.926   1.738   0.682 -1.2922 -1.5062  0.5413
 7922TIP3    H245258   3.791   1.791   0.640 -0.3962  0.4787  0.0507
 7923TIP3   OH245259   5.127   1.321   4.362 -0.1984  0.3547 -0.6063
 7923TIP3    H145260   5.157   1.392   4.419 -0.9378 -0.3173  0.6486
 7923TIP3    H245261   5.056   1.360   4.311 -0.1840  0.6985 -0.3729
 7924TIP3   OH245262   0.998   4.431  11.132  0.2619  0.1514  0.0715
 7924TIP3    H145263   1.054   4.425  11.056  0.2362 -0.4969  0.1031
 7924TIP3    H245264   0.916   4.388  11.106  0.0893  0.3260  0.3108
 7925TIP3   OH245265   2.509   6.311  16.644 -0.2703  0.2457  0.3070
 7925TIP3    H145266   2.466   6.323  16.729  0.0104 -1.6696  0.7508
 7925TIP3    H245267   2.601   6.294  16.666 -0.3693 -1.1714 -0.3179
 7926TIP3   OH245268   2.728   3.973   5.348  0.5001  0.1971 -0.0293
 7926TIP3    H145269   2.783   3.976   5.427  1.1215 -1.0925 -0.3882
 7926TIP3    H245270   2.733   4.062   5.312  1.0697  0.5196  0.8062
 7927TIP3   OH245271   4.488   5.093  11.288 -0.2055 -0.1726  0.3765
 7927TIP3    H145272   4.451   5.009  11.260  0.5127 -0.5422  0.5029
 7927TIP3    H245273   4.425   5.126  11.353 -1.0600 -0.0695 -0.4889
 7928TIP3   OH245274   0.610   0.265   5.505 -0.0161  0.0453  0.9614
 7928TIP3    H145275   0.540   0.312   5.549  0.9979  2.2965  0.2887
 7928TIP3    H245276   0.577   0.175   5.498 -2.4842  0.8318  1.3649
 7929TIP3   OH245277   6.361   0.977  12.708 -0.0867  0.1410 -0.3837
 7929TIP3    H145278   6.399   1.049  12.656 -0.7376  0.5250 -0.3482
 7929TIP3    H245279   6.294   0.940  12.650 -1.2162  0.9409  0.3696
 7930TIP3   OH245280   5.523   2.585  14.640  0.5957  0.0727 -0.0455
 7930TIP3    H145281   5.589   2.649  14.615  0.7172 -0.0905 -0.1463
 7930TIP3    H245282   5.465   2.632  14.700 -0.0999  0.6621 -1.1696
 7931TIP3   OH245283   5.130   2.799   5.476  1.1865 -0.1328 -0.0684
 7931TIP3    H145284   5.062   2.783   5.410  0.4157  1.1800  0.3639
 7931TIP3    H245285   5.192   2.856   5.432  0.3186  1.3072  0.5115
 7932TIP3   OH245286   2.490   2.275  16.343 -1.0367 -0.4621 -0.4826
 7932TIP3    H145287   2.487   2.237  16.255  0.7290 -1.2170 -0.2521
 7932TIP3    H245288   2.399   2.298  16.362 -1.4414 -0.2302 -2.5168
 7933TIP3   OH245289   6.744   1.135   0.236  0.1437  0.3378 -0.5545
 7933TIP3    H145290   6.666   1.159   0.285  0.3027 -0.2258 -0.0051
 7933TIP3    H245291   6.734   1.042   0.218  0.9389  0.1300  0.0112
 7934TIP3   OH245292   0.718   0.827   3.920 -0.0580  0.3085 -0.2277
 7934TIP3    H145293   0.717   0.918   3.949 -1.5274  0.5167 -0.8166
 7934TIP3    H245294   0.798   0.820   3.869  0.8908  0.8134  1.1323
 7935TIP3   OH245295   2.852   0.881  12.700 -0.1064  0.5393 -0.7905
 7935TIP3    H145296   2.915   0.853  12.766 -0.0686  2.0058 -0.1557
 7935TIP3    H245297   2.900   0.877  12.617  0.4296  0.4257 -0.4756
 7936TIP3   OH245298   5.152   2.545   1.869 -0.5582  0.0967  0.0364
 7936TIP3    H145299   5.077   2.494   1.839 -0.1036 -1.0373  0.7482
 7936TIP3    H245300   5.217   2.535   1.800 -0.1769 -0.9877  0.5356
 7937TIP3   OH245301   1.859   6.262   2.071 -0.0640  0.0831 -0.5568
 7937TIP3    H145302   1.926   6.299   2.014 -1.8862  0.7763 -2.3774
 7937TIP3    H245303   1.885   6.288   2.159  2.0743  0.2452 -1.1808
 7938TIP3   OH245304   4.213   3.543   1.029 -0.6675  0.1648  0.2137
 7938TIP3    H145305   4.270   3.550   0.953 -0.6379  0.4589  0.2628
 7938TIP3    H245306   4.233   3.457   1.066 -0.9373 -0.1385 -0.3148
 7939TIP3   OH245307   3.263   1.338  12.137  0.2446  0.6234  0.1454
 7939TIP3    H145308   3.279   1.244  12.146  2.2078  0.9416  0.4330
 7939TIP3    H245309   3.168   1.345  12.127 -0.0672 -1.2987  1.2302
 7940TIP3   OH245310   3.630   2.360   2.702  0.0296 -0.6689 -0.4167
 7940TIP3    H145311   3.545   2.353   2.747 -0.2712  1.2866 -0.6142
 7940TIP3    H245312   3.681   2.421   2.755  0.8732 -0.8534 -0.9846
 7941TIP3   OH245313   3.108   3.274   3.801  0.0859 -0.3853 -0.3984
 7941TIP3    H145314   3.176   3.339   3.783 -0.0887  0.7951  2.6348
 7941TIP3    H245315   3.091   3.233   3.716  1.7743  1.9898 -2.0131
 7942TIP3   OH245316   0.418   2.208  14.570  0.0650  0.0618 -0.0036
 7942TIP3    H145317   0.354   2.170  14.630  0.0086  0.1431 -0.0121
 7942TIP3    H245318   0.484   2.140  14.559  0.5682  0.3905  0.8969
 7943TIP3   OH245319   2.426   6.236  14.124 -0.0119 -0.0218  0.2140
 7943TIP3    H145320   2.452   6.318  14.167 -0.2858  1.0141 -1.4897
 7943TIP3    H245321   2.430   6.170  14.193  1.1495  1.2494  1.4153
 7944TIP3   OH245322   2.868   5.785   3.584 -0.1755  0.0606 -0.2129
 7944TIP3    H145323   2.918   5.788   3.502  1.2079  0.3344  0.6118
 7944TIP3    H245324   2.908   5.713   3.633 -0.8179  0.0766  0.3389
 7945TIP3   OH245325   0.562   5.934   4.084  0.4926  0.0145 -0.1617
 7945TIP3    H145326   0.586   5.952   3.993  2.6161  0.0338  0.3528
 7945TIP3    H245327   0.469   5.957   4.089  0.0845 -0.8211 -2.5297
 7946TIP3   OH245328   2.466   5.636   2.411 -0.4881  0.5195  0.1530
 7946TIP3    H145329   2.527   5.586   2.465 -1.0649 -0.3537  0.0269
 7946TIP3    H245330   2.456   5.720   2.456  0.4302  0.4967  0.4230
 7947TIP3   OH245331   1.865   0.830  16.587  0.8142  0.4403 -0.7008
 7947TIP3    H145332   1.887   0.797  16.675 -2.7851 -0.9204 -0.1502
 7947TIP3    H245333   1.818   0.911  16.603  0.0191  0.1141 -1.3218
 7948TIP3   OH245334   2.808   3.931  11.091  0.9268  0.2795 -0.0783
 7948TIP3    H145335   2.813   3.932  11.186  2.3808 -0.3693 -0.1190
 7948TIP3    H245336   2.749   4.004  11.069 -0.0812 -0.0809  1.3267
 7949TIP3   OH245337   5.201   4.679   4.996  0.4744  0.0030 -0.4048
 7949TIP3    H145338   5.223   4.707   5.085  1.5699 -0.0532 -0.6357
 7949TIP3    H245339   5.286   4.666   4.954 -0.0288 -0.1562 -1.4036
 7950TIP3   OH245340   6.523   4.718   1.017  0.2196  0.2208  0.1090
 7950TIP3    H145341   6.495   4.808   1.002 -0.9841 -0.2997 -0.9192
 7950TIP3    H245342   6.618   4.724   1.028  0.2657  1.5055 -0.7865
 7951TIP3   OH245343   3.450   1.638   0.276 -0.1346  0.2563 -0.7009
 7951TIP3    H145344   3.437   1.594   0.360 -0.7064  0.0180 -0.9037
 7951TIP3    H245345   3.415   1.726   0.289 -1.7771 -0.2899 -1.1548
 7952TIP3   OH245346   4.211   4.112  13.010  0.2962 -0.1166  0.1701
 7952TIP3    H145347   4.125   4.069  13.018  1.2637 -1.9341  1.5561
 7952TIP3    H245348   4.252   4.099  13.095  2.2253  0.1331 -0.6801
 7953TIP3   OH245349   6.562   2.889   2.392  0.9286 -0.2010  0.1144
 7953TIP3    H145350   6.507   2.881   2.470 -0.3909  0.3265 -0.7233
 7953TIP3    H245351   6.542   2.811   2.341 -1.3661  1.3539 -1.5593
 7954TIP3   OH245352   4.405   1.997   6.434  0.0456  0.1935 -0.2667
 7954TIP3    H145353   4.488   2.031   6.399 -0.2747  1.8667  0.5005
 7954TIP3    H245354   4.338   2.052   6.392 -0.6034 -0.4236 -0.0494
 7955TIP3   OH245355   4.539   5.972  14.252 -0.4000  0.0245  0.7067
 7955TIP3    H145356   4.471   6.040  14.248  1.9228  2.5806 -3.9589
 7955TIP3    H245357   4.490   5.890  14.256 -3.6625  1.7863  0.6239
 7956TIP3   OH245358   2.156   5.874  10.573 -0.3100  0.2066  0.1040
 7956TIP3    H145359   2.113   5.950  10.612  0.5919  0.7807 -0.0116
 7956TIP3    H245360   2.242   5.906  10.545  0.5084 -1.1058  1.0160
 7957TIP3   OH245361   4.432   6.734  16.720  0.6143  0.0405  0.1664
 7957TIP3    H145362   4.391   6.821  16.714  3.2679  1.3547 -0.0965
 7957TIP3    H245363   4.409   6.691  16.638 -2.1428 -0.2574  0.9899
 7958TIP3   OH245364   5.740   0.266  12.441 -0.0641 -0.6154  0.1472
 7958TIP3    H145365   5.767   0.195  12.382  1.2379 -2.0578  2.3259
 7958TIP3    H245366   5.809   0.268  12.508 -0.4601  2.2535  0.5734
 7959TIP3   OH245367   1.373   6.481   1.300 -0.0453  0.0439  0.0886
 7959TIP3    H145368   1.297   6.533   1.328  0.6692  0.3535  1.5764
 7959TIP3    H245369   1.378   6.409   1.363  0.4109 -0.4507 -0.4981
 7960TIP3   OH245370   1.058   2.306   5.560  0.2411  0.2152 -0.5742
 7960TIP3    H145371   0.977   2.257   5.571 -0.1883  0.8636 -0.8015
 7960TIP3    H245372   1.123   2.258   5.612 -0.5397  0.3388  0.5252
 7961TIP3   OH245373   5.677   3.300  15.583 -0.6950  0.0007 -0.1278
 7961TIP3    H145374   5.634   3.218  15.560  0.7502 -1.3213  1.6310
 7961TIP3    H245375   5.739   3.315  15.512  1.5363 -2.3801  1.1621
 7962TIP3   OH245376   2.440   0.809   3.430 -0.3313 -0.6390  0.4438
 7962TIP3    H145377   2.500   0.881   3.447 -0.9471  0.4145 -1.5224
 7962TIP3    H245378   2.497   0.734   3.410  0.3148 -0.1819  0.5510
 7963TIP3   OH245379   5.570   6.607   4.243  0.2135 -0.0191 -0.3971
 7963TIP3    H145380   5.477   6.606   4.263  0.4442  1.4346  0.9737
 7963TIP3    H245381   5.590   6.518   4.217 -1.1372 -0.8964  1.3746
 7964TIP3   OH245382   3.274   6.672  12.934 -0.0990  0.6215 -0.1623
 7964TIP3    H145383   3.301   6.650  12.844  0.5248  2.9138 -0.5976
 7964TIP3    H245384   3.179   6.671  12.932 -0.1500  2.4684 -1.4178
 7965TIP3   OH245385   2.309   3.559   2.280  0.5595 -0.1240 -0.0933
 7965TIP3    H145386   2.345   3.603   2.203  1.1818  0.8733  0.7294
 7965TIP3    H245387   2.368   3.584   2.351 -1.8530  1.8787  1.4067
 7966TIP3   OH245388   4.201   1.190  14.413  0.0406  0.5305  0.3553
 7966TIP3    H145389   4.214   1.266  14.356 -0.8921 -0.4698 -1.2723
 7966TIP3    H245390   4.269   1.128  14.386  0.4573  0.5472  1.3071
 7967TIP3   OH245391   1.254   4.586  10.519 -0.1537  0.6383  0.5427
 7967TIP3    H145392   1.288   4.539  10.595  1.0032  2.1486  1.0034
 7967TIP3    H245393   1.191   4.648  10.556  1.1228  2.0602  0.4481
 7968TIP3   OH245394   0.248   1.022   0.262 -0.1017 -1.2520 -0.0775
 7968TIP3    H145395   0.304   1.095   0.236 -1.2233  0.4621  2.0663
 7968TIP3    H245396   0.309   0.955   0.294  0.8390 -0.3880 -0.0126
 7969TIP3   OH245397   0.199   4.865  16.877 -0.8597 -0.6466 -0.5448
 7969TIP3    H145398   0.186   4.956  16.852 -0.0145 -0.6719 -1.0951
 7969TIP3    H245399   0.241   4.825  16.802 -1.0202 -1.4466 -0.2193
 7970TIP3   OH245400   0.517   4.565  13.014  0.3970  0.2906 -0.4922
 7970TIP3    H145401   0.492   4.648  12.974  2.2276  0.7533 -0.8062
 7970TIP3    H245402   0.582   4.589  13.080 -0.1941 -0.7698  0.5190
 7971TIP3   OH245403   5.096   6.246   2.116  0.9236  0.0980 -0.2264
 7971TIP3    H145404   5.050   6.163   2.125 -0.9418  0.9992 -0.8489
 7971TIP3    H245405   5.180   6.232   2.159 -0.4362 -1.2404  2.2150
 7972TIP3   OH245406   4.700   2.685  11.407 -0.5222 -0.3272  0.4651
 7972TIP3    H145407   4.697   2.676  11.312  2.2215 -0.1610  0.2679
 7972TIP3    H245408   4.639   2.620  11.440 -0.4425 -1.4043 -1.3929
 7973TIP3   OH245409   1.419   1.078  12.359 -0.0603  0.4287 -0.4269
 7973TIP3    H145410   1.369   1.045  12.283 -3.0699  0.0054  1.5427
 7973TIP3    H245411   1.354   1.124  12.412  1.3924 -0.9836  2.8780
 7974TIP3   OH245412   3.168   4.946  16.498  0.3284 -0.1830  0.1016
 7974TIP3    H145413   3.100   4.999  16.538  0.6436  0.1342  0.2272
 7974TIP3    H245414   3.140   4.856  16.511  0.2376 -0.0719  0.6950
 7975TIP3   OH245415   1.284   3.850  15.366  0.1238 -0.0226  0.2071
 7975TIP3    H145416   1.219   3.781  15.376  0.2509 -0.1553  0.1173
 7975TIP3    H245417   1.249   3.906  15.298 -0.0007  0.0261  0.3114
 7976TIP3   OH245418   6.349   5.929  13.180 -0.1917 -0.5019  0.6453
 7976TIP3    H145419   6.323   5.843  13.146  0.2373 -0.0742 -0.8345
 7976TIP3    H245420   6.437   5.916  13.215 -0.4454 -0.8383  1.1717
 7977TIP3   OH245421   4.490   6.617  11.317 -0.6804  0.2509 -0.7864
 7977TIP3    H145422   4.435   6.571  11.380 -0.5376  0.5305 -0.4550
 7977TIP3    H245423   4.537   6.683  11.369  0.3405 -0.3055 -0.9713
 7978TIP3   OH245424   4.853   0.500   2.116 -0.0576 -0.3258 -0.1460
 7978TIP3    H145425   4.818   0.583   2.085  0.5220  0.1189  0.3640
 7978TIP3    H245426   4.939   0.494   2.074 -0.6622 -1.3432 -1.2895
 7979TIP3   OH245427   5.864   4.969   2.258  0.0210 -0.2972 -0.1329
 7979TIP3    H145428   5.909   5.052   2.275  0.4228 -0.5749  0.1844
 7979TIP3    H245429   5.782   4.976   2.308 -0.7137  0.5598 -1.3923
 7980TIP3   OH245430   6.076   3.599   0.886 -0.6731 -0.3882 -0.0697
 7980TIP3    H145431   6.088   3.504   0.895 -0.8272 -0.3904  0.1187
 7980TIP3    H245432   6.164   3.633   0.869 -0.5382 -0.5068  0.3652
 7981TIP3   OH245433   3.193   6.714   3.096  0.5258 -0.5237 -0.9770
 7981TIP3    H145434   3.119   6.754   3.142  1.1402  0.2820 -0.6739
 7981TIP3    H245435   3.162   6.626   3.072  0.3143 -1.1207  1.2924
 7982TIP3   OH245436   1.546   0.830   5.001 -0.1595 -0.0147 -0.2780
 7982TIP3    H145437   1.635   0.860   4.982 -0.0729  0.1809  0.4054
 7982TIP3    H245438   1.557   0.737   5.023  0.0057  0.2070  0.6372
 7983TIP3   OH245439   1.706   0.770   4.439  0.5647 -0.7635 -0.2950
 7983TIP3    H145440   1.645   0.797   4.370 -0.5492 -0.6471  0.7181
 7983TIP3    H245441   1.793   0.777   4.398 -0.0720 -0.7284 -1.6863
 7984TIP3   OH245442   5.451   3.674   2.478  0.0940  1.0522 -0.0084
 7984TIP3    H145443   5.530   3.668   2.424 -0.6479 -0.4421 -1.0044
 7984TIP3    H245444   5.414   3.586   2.477 -1.3147  1.5924  0.8658
 7985TIP3   OH245445   2.778   1.592   2.840 -0.6338  0.0198  0.3337
 7985TIP3    H145446   2.821   1.630   2.763 -0.1376  0.6427  0.9013
 7985TIP3    H245447   2.705   1.541   2.804 -1.0724  1.1809 -0.4891
 7986TIP3   OH245448   1.192   1.707   6.305 -0.7371  0.3356 -0.2415
 7986TIP3    H145449   1.220   1.708   6.214 -0.8642 -0.0111 -0.2848
 7986TIP3    H245450   1.211   1.796   6.337  0.6211  0.0607 -0.2030
 7987TIP3   OH245451   5.700   0.433  11.720 -0.4364  0.4409  0.7444
 7987TIP3    H145452   5.692   0.339  11.735 -1.5288  0.0925 -1.5961
 7987TIP3    H245453   5.790   0.454  11.745 -0.1931 -1.1904  1.3492
 7988TIP3   OH245454   3.235   3.720   2.206  0.7340  0.3243  0.3850
 7988TIP3    H145455   3.169   3.750   2.144  0.4111  0.5557  0.8343
 7988TIP3    H245456   3.318   3.745   2.166  0.5142  0.8584  0.2476
 7989TIP3   OH245457   5.999   2.972  17.110  0.5345 -0.2462 -0.6254
 7989TIP3    H145458   5.959   2.892  17.078  0.2748  0.0536 -1.0668
 7989TIP3    H245459   6.087   2.947  17.136  0.2857 -0.7762 -0.2792
 7990TIP3   OH245460   1.215   2.099   2.723  0.2312 -0.5638  0.0201
 7990TIP3    H145461   1.193   2.040   2.795 -1.6803 -0.5877 -0.5320
 7990TIP3    H245462   1.290   2.149   2.756  0.3947 -1.6452  1.4059
 7991TIP3   OH245463   0.276   2.627   3.178 -0.3271  0.8003 -0.4760
 7991TIP3    H145464   0.309   2.694   3.238 -0.1560 -0.5673  1.0153
 7991TIP3    H245465   0.181   2.624   3.196 -0.0425 -0.7602  0.9926
 7992TIP3   OH245466   0.255   3.791   4.707  0.2122 -0.1961 -0.8243
 7992TIP3    H145467   0.170   3.834   4.702  0.5523  0.4485 -1.0820
 7992TIP3    H245468   0.277   3.769   4.617  0.7772  0.5523 -0.8795
 7993TIP3   OH245469   0.117   2.526  11.579  0.4782  0.6748  0.4196
 7993TIP3    H145470   0.159   2.553  11.497 -0.9394  2.6141  0.2562
 7993TIP3    H245471   0.183   2.544  11.646  1.8476 -1.4132 -0.2790
 7994TIP3   OH245472   0.176   4.787   2.790  0.4433  0.1823  0.2193
 7994TIP3    H145473   0.154   4.825   2.705  0.3435 -0.0013  0.1638
 7994TIP3    H245474   0.263   4.747   2.777 -0.0854 -0.8937 -0.1317
 7995TIP3   OH245475   3.218   4.890  11.895  0.1022  0.4088  0.6518
 7995TIP3    H145476   3.208   4.966  11.952  0.0763  0.1896  0.9397
 7995TIP3    H245477   3.221   4.815  11.954  2.7393  0.3700  0.5883
 7996TIP3   OH245478   3.358   3.392  15.773  0.0989  0.1823 -0.1590
 7996TIP3    H145479   3.444   3.427  15.748  0.3019 -0.9321 -1.0854
 7996TIP3    H245480   3.350   3.413  15.866  0.5803  1.8929 -0.4738
 7997TIP3   OH245481   3.097   0.990   1.219  0.0237 -0.2909 -0.0215
 7997TIP3    H145482   3.045   0.910   1.209  1.0370 -0.9105 -0.4286
 7997TIP3    H245483   3.058   1.050   1.155 -0.9945 -0.3057  0.5569
 7998TIP3   OH245484   4.880   0.198   1.699  0.5597 -0.8510 -0.2890
 7998TIP3    H145485   4.788   0.218   1.718  1.0122  1.3877 -0.0882
 7998TIP3    H245486   4.928   0.233   1.774  1.6703 -0.6663 -1.0574
 7999TIP3   OH245487   4.775   5.738   0.094 -0.5411 -0.5293  0.1847
 7999TIP3    H145488   4.822   5.700   0.019 -1.0391 -2.0713  0.6090
 7999TIP3    H245489   4.837   5.734   0.166 -0.1525  0.7096 -0.0648
 8000TIP3   OH245490   6.140   0.515  12.546 -0.8864  0.1465  0.2327
 8000TIP3    H145491   6.188   0.547  12.470 -0.4861  1.4450  1.0061
 8000TIP3    H245492   6.063   0.572  12.552  0.0580  1.3268  1.8799
 8001TIP3   OH245493   4.772   2.446  16.640 -0.1015 -0.4062 -0.1936
 8001TIP3    H145494   4.868   2.438  16.640 -0.1629 -1.2349 -0.7527
 8001TIP3    H245495   4.751   2.476  16.728  0.6896 -0.0150 -0.1273
 8002TIP3   OH245496   0.371   6.041   3.811 -0.3646 -0.0933 -0.2059
 8002TIP3    H145497   0.374   5.965   3.753 -3.3669 -2.0043  1.8431
 8002TIP3    H245498   0.305   6.098   3.771 -2.2591 -1.2999  1.0469
 8003TIP3   OH245499   1.879   6.603  16.504  0.2304  0.1311  0.3317
 8003TIP3    H145500   1.811   6.591  16.570 -1.0226  0.7242 -0.8043
 8003TIP3    H245501   1.832   6.625  16.424  1.7340 -0.0052 -0.6475
 8004TIP3   OH245502   5.514   0.016  16.660  0.3906  0.5617 -0.4138
 8004TIP3    H145503   5.455   0.089  16.643 -1.2355 -0.8963 -1.3933
 8004TIP3    H245504   5.582   0.025  16.594  0.9123  1.8501  0.2598
 8005TIP3   OH245505   5.823   3.013  15.222  0.3125  0.1404 -0.3901
 8005TIP3    H145506   5.800   2.932  15.176  1.0009  0.4067 -1.2308
 8005TIP3    H245507   5.752   3.025  15.286 -0.4396 -0.4834 -1.0775
 8006TIP3   OH245508   1.585   1.944   0.591  0.4607 -0.0796  0.1395
 8006TIP3    H145509   1.627   1.883   0.651 -0.4614 -0.8579  0.0286
 8006TIP3    H245510   1.498   1.906   0.575 -0.7240  1.9868  1.2115
 8007TIP3   OH245511   0.887   0.784  15.527  0.0493 -0.1291 -0.3221
 8007TIP3    H145512   0.933   0.847  15.583  0.7264 -1.0208  0.1553
 8007TIP3    H245513   0.822   0.744  15.585 -1.3907  1.1326 -0.9947
 8008TIP3   OH245514   4.410   5.918   4.421 -0.0444  0.2089 -0.1015
 8008TIP3    H145515   4.468   5.995   4.421  0.0776  0.1171 -0.7603
 8008TIP3    H245516   4.325   5.953   4.449  0.5995  0.1142  2.2198
 8009TIP3   OH245517   3.461   2.211   6.091 -0.1719  0.5884  0.3485
 8009TIP3    H145518   3.469   2.240   6.181 -1.9550  0.0931  0.7101
 8009TIP3    H245519   3.438   2.119   6.097 -2.1741  0.9742 -0.5082
 8010TIP3   OH245520   2.931   0.213  13.631 -0.4956 -0.4461  0.2095
 8010TIP3    H145521   2.970   0.286  13.584 -3.0843  0.9827  0.1333
 8010TIP3    H245522   2.973   0.135  13.593  2.1598  0.8958  0.1395
 8011TIP3   OH245523   5.093   1.556  17.033 -0.1453  0.0709  0.1634
 8011TIP3    H145524   5.023   1.498  17.002  0.2432  0.2142 -1.0411
 8011TIP3    H245525   5.171   1.525  16.988  0.2794  0.8567  0.3425
 8012TIP3   OH245526   5.723   0.466   1.755 -0.3904 -0.1713 -0.1620
 8012TIP3    H145527   5.720   0.474   1.850 -1.1147 -1.8556 -0.0090
 8012TIP3    H245528   5.807   0.504   1.730  0.9690 -1.9087  1.4203
 8013TIP3   OH245529   6.371   1.126  15.264  0.6007  0.2019 -0.2235
 8013TIP3    H145530   6.421   1.121  15.345  1.8155  1.2894 -0.8729
 8013TIP3    H245531   6.428   1.087  15.197 -0.6007 -1.1881 -0.5017
 8014TIP3   OH245532   1.236   2.462   3.786 -0.2386 -0.4710  0.1743
 8014TIP3    H145533   1.142   2.444   3.781 -0.7623  1.7010  0.7851
 8014TIP3    H245534   1.277   2.377   3.800 -2.3420 -1.2164  2.4847
 8015TIP3   OH245535   5.357   0.058   5.967 -0.4383  0.1310 -0.0124
 8015TIP3    H145536   5.290   0.126   5.963 -3.0875 -2.2900  0.1715
 8015TIP3    H245537   5.354   0.017   5.880  0.8965  0.0449 -0.0289
 8016TIP3   OH245538   2.059   0.849   5.483  0.4012 -0.3221 -0.8148
 8016TIP3    H145539   2.023   0.831   5.396  0.3422 -0.3109 -0.7923
 8016TIP3    H245540   2.039   0.771   5.534  0.3375 -0.2831 -0.7797
 8017TIP3   OH245541   1.952   2.173   5.444  0.2442 -0.3911  0.0558
 8017TIP3    H145542   1.999   2.256   5.444  1.3944 -1.0248  0.1144
 8017TIP3    H245543   1.928   2.159   5.535  1.0124 -0.6364  0.2305
 8018TIP3   OH245544   2.010   6.268   3.660 -0.3316 -0.8918 -0.4870
 8018TIP3    H145545   1.956   6.231   3.730 -0.3129 -0.4289 -0.2249
 8018TIP3    H245546   1.988   6.215   3.583 -0.4095 -1.3535 -0.1521
 8019TIP3   OH245547   1.062   0.587  15.412  0.1974  0.1258 -0.2132
 8019TIP3    H145548   1.041   0.668  15.458 -1.0011  0.8663 -1.9985
 8019TIP3    H245549   1.086   0.526  15.482 -1.7885  1.1166  1.4206
 8020TIP3   OH245550   2.800   3.226   4.165  0.3155  0.5407 -0.2371
 8020TIP3    H145551   2.770   3.317   4.165  2.1724  1.2073 -0.7298
 8020TIP3    H245552   2.816   3.206   4.073 -0.9461 -0.6243 -0.2234
 8021TIP3   OH245553   3.531   4.801  11.839 -0.2071 -0.0677 -0.3333
 8021TIP3    H145554   3.570   4.729  11.889 -0.2660 -0.6335 -1.0836
 8021TIP3    H245555   3.572   4.795  11.752  0.6906  1.5529 -0.0667
 8022TIP3   OH245556   3.143   6.305   3.942  0.0309  0.3024  0.2480
 8022TIP3    H145557   3.221   6.266   3.903 -0.9993 -1.1523 -0.4663
 8022TIP3    H245558   3.175   6.382   3.988  1.7909  0.0850 -0.5326
 8023TIP3   OH245559   5.350   2.269  16.332 -0.6394 -0.0338 -0.3423
 8023TIP3    H145560   5.421   2.281  16.268 -0.0952 -0.7968  0.0982
 8023TIP3    H245561   5.365   2.181  16.368 -0.6278  0.5626  1.1951
 8024TIP3   OH245562   1.439   1.681  16.250  0.5873  0.2878  0.4151
 8024TIP3    H145563   1.401   1.602  16.288 -3.5140  1.4313 -0.8797
 8024TIP3    H245564   1.461   1.736  16.325  0.3332 -0.7206  1.2433
 8025TIP3   OH245565   6.016   0.492   5.063  0.0182 -0.3332 -0.5019
 8025TIP3    H145566   6.016   0.541   5.145 -2.5841  2.2612 -1.8703
 8025TIP3    H245567   6.109   0.481   5.042  0.7403  1.0822  1.5887
 8026TIP3   OH245568   1.067   5.881  12.465  0.0808 -0.0722 -0.5219
 8026TIP3    H145569   1.006   5.810  12.486  0.7425 -0.7117 -0.7316
 8026TIP3    H245570   1.086   5.871  12.372  0.4232  0.1894 -0.4848
 8027TIP3   OH245571   5.971   0.188   6.028 -0.5445 -0.1944  0.1277
 8027TIP3    H145572   6.012   0.229   6.105 -1.6469  0.0104  0.6245
 8027TIP3    H245573   5.914   0.120   6.065 -1.6481  0.3906 -0.4364
 8028TIP3   OH245574   6.156   2.195  12.283 -0.0259 -0.9313 -0.3863
 8028TIP3    H145575   6.064   2.180  12.306 -0.1079  0.0107 -0.0535
 8028TIP3    H245576   6.166   2.152  12.198 -0.7726 -1.0352 -0.4333
 8029TIP3   OH245577   4.505   3.514  13.500  0.3023 -0.0853 -0.1635
 8029TIP3    H145578   4.479   3.422  13.494  1.3023 -0.3442 -0.8538
 8029TIP3    H245579   4.596   3.511  13.530 -0.3163  0.7802  2.0043
 8030TIP3   OH245580   6.328   0.724   0.243 -0.3349  0.2536  0.6692
 8030TIP3    H145581   6.293   0.729   0.154 -1.2417  1.5486  1.0718
 8030TIP3    H245582   6.302   0.807   0.283 -0.7531 -0.6831  2.4206
 8031TIP3   OH245583   1.269   0.296  15.117 -0.2153 -0.4442 -0.5075
 8031TIP3    H145584   1.266   0.204  15.090 -0.1006 -0.2700 -1.1329
 8031TIP3    H245585   1.179   0.318  15.139 -0.2276 -0.7328 -0.2715
 8032TIP3   OH245586   4.684   1.289   4.417 -0.1082  0.1789 -0.1290
 8032TIP3    H145587   4.603   1.263   4.462 -0.4862  0.4321 -0.6526
 8032TIP3    H245588   4.740   1.322   4.487  0.0366 -1.1878  0.4190
 8033TIP3   OH245589   1.197   0.806   6.242 -0.3085  0.2932  0.0205
 8033TIP3    H145590   1.176   0.831   6.332  0.1406  0.4489  0.0869
 8033TIP3    H245591   1.285   0.840   6.228  0.4124 -1.4202  0.1746
 8034TIP3   OH245592   4.517   4.804  15.717  0.3033  0.2460  0.4151
 8034TIP3    H145593   4.480   4.856  15.645 -0.4193 -1.0690 -0.2132
 8034TIP3    H245594   4.592   4.759  15.677 -1.2928 -2.0826 -0.1809
 8035TIP3   OH245595   0.016   1.386   1.764 -0.3541 -0.0700 -0.1596
 8035TIP3    H145596   0.067   1.447   1.817  0.4054 -1.9396  1.3834
 8035TIP3    H245597  -0.071   1.388   1.804 -0.0518 -0.7406  0.5461
 8036TIP3   OH245598   3.495   6.161  11.067 -0.1357  0.5202 -0.2512
 8036TIP3    H145599   3.567   6.187  11.010 -0.7582  1.6587 -0.5566
 8036TIP3    H245600   3.429   6.126  11.007  0.1577 -0.5355  0.0272
 8037TIP3   OH245601   5.504   5.996   0.341 -0.2443  0.0376 -0.8573
 8037TIP3    H145602   5.532   5.967   0.427 -0.2955 -0.0770 -0.8786
 8037TIP3    H245603   5.456   5.921   0.305 -0.9477  0.3755 -0.6501
 8038TIP3   OH245604   1.935   6.180  10.615 -0.0160 -0.7273  0.0660
 8038TIP3    H145605   1.965   6.179  10.706 -1.6882 -1.3358  0.6519
 8038TIP3    H245606   1.923   6.272  10.595  0.6313 -0.5711  0.3634
 8039TIP3   OH245607   2.679   5.740  14.476 -0.2953  0.0727  0.0981
 8039TIP3    H145608   2.742   5.720  14.545 -0.4952  1.2036  0.6391
 8039TIP3    H245609   2.711   5.822  14.438 -0.9980  0.2280 -0.1646
 8040TIP3   OH245610   3.477   2.648  15.320  0.0714 -0.2011  0.6465
 8040TIP3    H145611   3.468   2.718  15.255 -0.0549  0.5632  1.4560
 8040TIP3    H245612   3.529   2.688  15.390 -1.4729 -0.3143  1.9345
 8041TIP3   OH245613   6.528   5.452   0.141  0.5201  0.0365 -0.1357
 8041TIP3    H145614   6.504   5.544   0.131  2.1013  0.5333  0.3436
 8041TIP3    H245615   6.466   5.404   0.085  0.0825  1.4332 -0.8820
 8042TIP3   OH245616   4.458   2.376  12.929 -0.0603 -0.7843  0.1692
 8042TIP3    H145617   4.470   2.281  12.927  3.6817 -0.4840 -0.7541
 8042TIP3    H245618   4.394   2.394  12.860 -0.6498 -2.6053  0.1867
 8043TIP3   OH245619   5.784   6.767  11.614 -0.0308 -0.4792  1.2078
 8043TIP3    H145620   5.736   6.686  11.632  0.4353 -0.3171  3.4918
 8043TIP3    H245621   5.872   6.737  11.589 -0.3913 -0.6965  0.1554
 8044TIP3   OH245622   1.796   3.322  11.193 -0.4826  0.2512 -0.3382
 8044TIP3    H145623   1.780   3.362  11.108 -0.4574 -0.2285 -0.5724
 8044TIP3    H245624   1.879   3.359  11.222 -0.3616  0.2175 -0.6413
 8045TIP3   OH245625   4.181   6.808  14.351 -0.4522 -0.4750  0.2828
 8045TIP3    H145626   4.140   6.890  14.323  0.4495  0.2594  1.0225
 8045TIP3    H245627   4.204   6.763  14.269 -0.8592  0.0556 -0.1282
 8046TIP3   OH245628   3.232   4.401  13.986  0.1196 -0.1460  0.0580
 8046TIP3    H145629   3.225   4.495  13.967 -1.0047 -0.4308 -1.0160
 8046TIP3    H245630   3.147   4.365  13.963  0.5362 -1.4500  0.4719
 8047TIP3   OH245631   1.612   6.377  14.369  0.2944  0.1128 -0.2744
 8047TIP3    H145632   1.691   6.347  14.414  0.6572  4.0756  2.2977
 8047TIP3    H245633   1.548   6.387  14.439 -1.0726  1.0076 -1.5963
 8048TIP3   OH245634   0.971   0.758  11.502 -0.0039 -0.0534  0.5166
 8048TIP3    H145635   0.910   0.831  11.493  0.5921  0.7920  2.6619
 8048TIP3    H245636   0.968   0.713  11.418 -0.4685  2.3876 -0.8502
 8049TIP3   OH245637   1.422   4.869  11.160  0.0493 -0.6077 -0.2260
 8049TIP3    H145638   1.455   4.856  11.071 -2.4487  0.5394 -1.4166
 8049TIP3    H245639   1.457   4.954  11.186 -1.2034  0.2297 -1.1582
 8050TIP3   OH245640   4.508   6.500  15.354  0.0959 -0.5311 -0.7765
 8050TIP3    H145641   4.478   6.591  15.358  1.8653  0.0920 -0.8752
 8050TIP3    H245642   4.549   6.492  15.268 -0.1936 -1.4946 -0.8396
 8051TIP3   OH245643   1.888   0.459   3.521 -0.0218  0.5004 -0.1191
 8051TIP3    H145644   1.824   0.526   3.545  0.6046  1.8342 -1.9617
 8051TIP3    H245645   1.971   0.506   3.517  0.4999 -0.4748 -1.1037
 8052TIP3   OH245646   6.075   6.695  17.224  0.0689  0.3523  0.1408
 8052TIP3    H145647   6.146   6.631  17.229  1.4697  1.7366 -0.8458
 8052TIP3    H245648   6.047   6.693  17.132 -1.8377 -0.8010  0.6899
 8053TIP3   OH245649   2.917   2.843  14.884 -0.0813  0.2650 -0.0727
 8053TIP3    H145650   2.864   2.855  14.805  1.6985  2.6972 -1.0086
 8053TIP3    H245651   2.952   2.754  14.875 -2.2374 -0.6218 -0.4629
 8054TIP3   OH245652   2.336   1.362   5.527  0.3691 -0.5001  0.0537
 8054TIP3    H145653   2.334   1.448   5.569  0.4935 -0.3298 -0.2816
 8054TIP3    H245654   2.425   1.353   5.493  0.1499 -0.4373 -0.5587
 8055TIP3   OH245655   2.847   3.714   2.614 -0.5729  0.5497  0.3048
 8055TIP3    H145656   2.812   3.773   2.547  1.8794  1.5750 -0.1678
 8055TIP3    H245657   2.933   3.688   2.581  0.8433  1.2912  3.1009
 8056TIP3   OH245658   5.395   5.177   1.213  0.4347  0.2497 -0.0174
 8056TIP3    H145659   5.437   5.254   1.173 -0.7270  0.8745 -0.1050
 8056TIP3    H245660   5.329   5.214   1.272  0.2726 -0.6860  0.4019
 8057TIP3   OH245661   2.835   5.753   1.141  0.3992 -0.0979  0.0767
 8057TIP3    H145662   2.873   5.691   1.203 -2.5241 -2.1453 -0.0100
 8057TIP3    H245663   2.823   5.833   1.191  2.2326 -0.2245  0.8102
 8058TIP3   OH245664   2.297   4.549  16.859  0.1288 -0.3727 -0.8329
 8058TIP3    H145665   2.385   4.561  16.894  0.3349 -0.9223 -1.1661
 8058TIP3    H245666   2.294   4.458  16.829 -0.8895 -0.6788  0.1220
 8059TIP3   OH245667   2.860   1.633  14.577  0.4225  0.0245  0.5519
 8059TIP3    H145668   2.771   1.598  14.577  0.3922  0.0948  0.1262
 8059TIP3    H245669   2.874   1.663  14.667  0.0893 -0.1706  0.6703
 8060TIP3   OH245670   1.627   4.302   0.556 -0.2656 -0.1868 -0.2243
 8060TIP3    H145671   1.535   4.325   0.549 -0.3645 -0.7212 -0.7651
 8060TIP3    H245672   1.636   4.265   0.644 -0.5235  0.0646 -0.0947
 8061TIP3   OH245673   2.124   5.149  13.914 -0.1477  0.2522  0.4602
 8061TIP3    H145674   2.122   5.138  14.009 -1.5030  1.0802  0.5532
 8061TIP3    H245675   2.148   5.241  13.901  1.8975 -0.3111 -0.0707
 8062TIP3   OH245676   2.747   4.589  11.362  0.0070 -0.6503  0.3484
 8062TIP3    H145677   2.719   4.567  11.273 -1.8076 -2.6841  1.3268
 8062TIP3    H245678   2.832   4.548  11.372  0.0615 -0.7118 -0.3279
 8063TIP3   OH245679   4.804   0.750   4.059  0.3470 -0.4813  0.0352
 8063TIP3    H145680   4.722   0.748   4.108 -0.4408 -2.5709 -1.2610
 8063TIP3    H245681   4.787   0.810   3.986 -0.7082 -2.2413 -1.2354
 8064TIP3   OH245682   1.538   1.880  11.672 -0.2954 -0.3876 -0.2539
 8064TIP3    H145683   1.480   1.952  11.698 -1.0916 -0.7283 -1.0051
 8064TIP3    H245684   1.609   1.922  11.624  0.3410  0.0816  1.0468
 8065TIP3   OH245685   3.816   1.708  14.731  0.2179 -0.4629 -0.5944
 8065TIP3    H145686   3.722   1.695  14.745 -0.7993  4.2125 -1.3634
 8065TIP3    H245687   3.858   1.641  14.784 -3.5334 -1.2467  1.7466
 8066TIP3   OH245688   5.718   5.550  16.858 -0.1749 -0.2131  0.6727
 8066TIP3    H145689   5.691   5.476  16.804 -1.4642  0.2405  0.6710
 8066TIP3    H245690   5.647   5.613  16.850  2.3488  2.6918 -2.2884
 8067TIP3   OH245691   0.850   2.804   2.527 -0.3230 -0.8600  0.0749
 8067TIP3    H145692   0.783   2.772   2.587  0.3823  1.7137  2.4964
 8067TIP3    H245693   0.932   2.770   2.563 -0.0359 -1.2174 -0.8804
 8068TIP3   OH245694   3.982   6.674  17.134 -0.3422  0.0028 -0.4670
 8068TIP3    H145695   3.899   6.721  17.140  0.2974  1.0460  0.8185
 8068TIP3    H245696   3.996   6.639  17.222  0.4017 -0.5005 -0.7748
 8069TIP3   OH245697   5.980   5.549   1.186  0.4063 -0.0778  0.0745
 8069TIP3    H145698   5.902   5.537   1.241 -0.6731  0.4004 -1.3096
 8069TIP3    H245699   6.000   5.461   1.153 -0.6267  0.0522 -0.9571
 8070TIP3   OH245700   6.031   1.133   4.844 -0.1962  0.5336  0.2333
 8070TIP3    H145701   6.028   1.087   4.928  0.2497  0.1893  0.0662
 8070TIP3    H245702   6.125   1.137   4.823 -0.2979  0.7462 -0.1740
 8071TIP3   OH245703   5.926   6.496   0.473  0.1537  0.1515 -0.3418
 8071TIP3    H145704   5.953   6.539   0.554  1.0694  0.2282 -0.6760
 8071TIP3    H245705   5.960   6.553   0.403 -0.4557 -0.0148 -0.7811
 8072TIP3   OH245706   4.787   1.865   4.200 -0.3339 -0.3379  0.3795
 8072TIP3    H145707   4.718   1.816   4.245 -1.9289  2.5143  1.2538
 8072TIP3    H245708   4.746   1.895   4.119  0.6276 -0.4772 -0.1729
 8073TIP3   OH245709   1.093   1.351   2.376 -0.5795  0.0502  0.1918
 8073TIP3    H145710   1.098   1.417   2.306 -1.8980 -1.2613 -1.2186
 8073TIP3    H245711   1.183   1.324   2.391 -0.3413 -0.3724 -1.7736
 8074TIP3   OH245712   1.664   6.795  13.459  0.3804 -0.0750  0.0927
 8074TIP3    H145713   1.609   6.741  13.515  0.4613 -0.7314 -0.4507
 8074TIP3    H245714   1.603   6.848  13.408  0.2727 -0.3319 -0.0436
 8075TIP3   OH245715   2.531   1.801  13.293  0.0966 -0.3297  0.0893
 8075TIP3    H145716   2.522   1.868  13.226  0.3969  0.7876  1.1421
 8075TIP3    H245717   2.600   1.743  13.260 -2.2918 -2.0537 -2.3481
 8076TIP3   OH245718   4.563   3.250  11.890  0.5447  0.0833 -0.4415
 8076TIP3    H145719   4.528   3.304  11.819 -1.6252 -0.3110  0.2387
 8076TIP3    H245720   4.515   3.279  11.968 -0.2333 -2.3311  0.0549
 8077TIP3   OH245721   5.857   6.809  11.316  0.6183  0.2933 -1.0122
 8077TIP3    H145722   5.862   6.891  11.268  0.4107  0.1165 -1.3402
 8077TIP3    H245723   5.795   6.826  11.387  0.4921  0.3887 -1.1448
 8078TIP3   OH245724   0.228   2.601   0.137 -0.1884  0.4048  0.0840
 8078TIP3    H145725   0.303   2.610   0.196  0.5083 -0.4070 -0.6704
 8078TIP3    H245726   0.171   2.675   0.161  0.1351  0.1741  1.6759
 8079TIP3   OH245727   6.248   2.851  15.555 -0.0526 -0.1134 -0.2605
 8079TIP3    H145728   6.273   2.847  15.648  0.9832  1.3243 -0.4451
 8079TIP3    H245729   6.233   2.944  15.539  1.7590 -0.0573 -2.0065
 8080TIP3   OH245730   5.494   5.096  12.457 -0.8366  0.1208  0.2416
 8080TIP3    H145731   5.427   5.028  12.453 -1.0724  0.3518  0.2611
 8080TIP3    H245732   5.503   5.127  12.367 -0.7562  0.0933  0.2394
 8081TIP3   OH245733   4.006   2.703  15.067 -0.4423 -0.8909 -0.2659
 8081TIP3    H145734   3.994   2.789  15.027 -1.4298 -0.9605 -0.1452
 8081TIP3    H245735   4.049   2.650  14.999  0.2281 -0.2973 -0.3180
 8082TIP3   OH245736   0.234   1.237   1.601  0.1035  0.2153  0.0923
 8082TIP3    H145737   0.162   1.182   1.572 -0.6203  0.5154  1.2272
 8082TIP3    H245738   0.191   1.310   1.645  1.0840  0.9627 -0.1553
 8083TIP3   OH245739   1.028   2.240  14.691 -0.4528 -0.1895  0.3442
 8083TIP3    H145740   0.933   2.233  14.676 -0.4690  1.4494 -0.5222
 8083TIP3    H245741   1.055   2.315  14.639  1.7710 -2.0061 -1.3264
 8084TIP3   OH245742   6.473   0.028   2.531 -0.4403  0.6842  0.1569
 8084TIP3    H145743   6.393   0.069   2.498 -0.2859  0.1742 -0.9186
 8084TIP3    H245744   6.522   0.006   2.452 -0.6767 -1.9137  0.6428
 8085TIP3   OH245745   1.911   1.911  12.838 -0.3554  0.4656 -0.6098
 8085TIP3    H145746   1.896   1.837  12.897 -1.1272  1.9443  1.1424
 8085TIP3    H245747   2.003   1.903  12.814 -0.0076 -0.1989  0.8129
 8086TIP3   OH245748   2.168   3.228  13.371  0.0495 -0.5554  0.2618
 8086TIP3    H145749   2.150   3.164  13.302  1.3695  0.9715 -1.6065
 8086TIP3    H245750   2.261   3.249  13.360 -0.1346  0.9965  1.4211
 8087TIP3   OH245751   6.451   1.732  12.557 -0.1397  0.3637 -0.0920
 8087TIP3    H145752   6.420   1.796  12.621  2.0472 -0.2286  1.7071
 8087TIP3    H245753   6.398   1.748  12.479 -2.5914  1.4724  1.6765
 8088TIP3   OH245754   0.521   2.351  12.097  0.6728 -0.0232  0.1161
 8088TIP3    H145755   0.599   2.383  12.143  0.3049  1.4498 -0.2210
 8088TIP3    H245756   0.512   2.411  12.022  1.3532 -2.3979 -2.0206
 8089TIP3   OH245757   4.686   0.418  16.117 -0.5115  0.0093 -0.4802
 8089TIP3    H145758   4.661   0.471  16.192 -0.8954  0.5860 -1.0026
 8089TIP3    H245759   4.674   0.476  16.042  2.1079  0.2393 -0.8142
 8090TIP3   OH245760   4.135   4.365   1.923  0.1826  0.2546 -0.1342
 8090TIP3    H145761   4.218   4.325   1.899 -0.7986 -1.1955 -1.3252
 8090TIP3    H245762   4.120   4.431   1.854  0.7493  1.1664  0.5920
 8091TIP3   OH245763   5.016   1.342  11.798  0.0755  0.2740  0.2576
 8091TIP3    H145764   5.021   1.383  11.711 -1.0947 -0.4935 -0.1838
 8091TIP3    H245765   5.108   1.333  11.825  0.4136  1.7559 -0.2974
 8092TIP3   OH245766   5.534   0.287   2.091  0.1961  0.3774 -0.4937
 8092TIP3    H145767   5.550   0.213   2.032  1.3164  0.6412 -0.5492
 8092TIP3    H245768   5.459   0.260   2.144 -0.0490 -0.3759 -1.1983
 8093TIP3   OH245769   4.624   1.518  14.864 -0.7588 -0.0453  0.3415
 8093TIP3    H145770   4.658   1.563  14.787  1.0723 -1.6749  0.1310
 8093TIP3    H245771   4.583   1.439  14.829 -0.4094 -0.5178  0.9846
 8094TIP3   OH245772   5.357   5.745   2.473 -0.0841  0.5740 -0.6720
 8094TIP3    H145773   5.274   5.698   2.466  0.0728  0.1935 -0.0306
 8094TIP3    H245774   5.399   5.732   2.388  0.4908 -1.5002 -0.1276
 8095TIP3   OH245775   6.375   5.008  16.857 -0.3551 -0.3030 -0.5848
 8095TIP3    H145776   6.412   4.933  16.903 -0.3553  0.5357  0.8346
 8095TIP3    H245777   6.280   4.995  16.862 -0.3491 -0.3500 -0.5955
 8096TIP3   OH245778   5.667   0.644  13.704  0.8626 -0.2643 -0.1923
 8096TIP3    H145779   5.758   0.641  13.675  0.3534 -1.1253 -1.8351
 8096TIP3    H245780   5.618   0.671  13.627 -0.1315  1.9660  1.1319
 8097TIP3   OH245781   4.486   5.018  15.874 -0.4197 -0.5327  0.0859
 8097TIP3    H145782   4.436   5.062  15.805 -0.8758  1.0186  1.3450
 8097TIP3    H245783   4.503   4.931  15.839 -1.8038 -0.2519 -1.4277
 8098TIP3   OH245784   1.676   5.873  16.262 -0.3772  0.3335 -0.1109
 8098TIP3    H145785   1.754   5.922  16.287  0.7261 -1.3900  0.0123
 8098TIP3    H245786   1.633   5.928  16.197  1.9361  0.5597 -1.5628
 8099TIP3   OH245787   0.136   4.964  15.559  0.2095 -0.3585 -0.1827
 8099TIP3    H145788   0.088   4.886  15.586 -0.8392  0.3620  0.0842
 8099TIP3    H245789   0.214   4.930  15.514  0.3748 -1.5656  0.9385
 8100TIP3   OH245790   3.970   2.433   4.755  0.1252  0.2506 -0.9641
 8100TIP3    H145791   3.976   2.484   4.836  0.7656  0.2550 -1.0064
 8100TIP3    H245792   3.998   2.345   4.780 -1.6224 -0.2775 -0.7374
 8101TIP3   OH245793   5.592   6.220  16.004 -0.0959  0.0706  0.4112
 8101TIP3    H145794   5.510   6.255  16.039 -0.5476 -0.2951 -0.2674
 8101TIP3    H245795   5.656   6.289  16.022 -1.1964  1.8785 -1.9759
 8102TIP3   OH245796   1.575   2.558  17.132  0.3413  0.4775  0.0168
 8102TIP3    H145797   1.508   2.621  17.156 -0.5290 -0.2520 -0.4313
 8102TIP3    H245798   1.636   2.559  17.206 -0.9416  0.0964  1.1315
 8103TIP3   OH245799   5.803   5.433   0.350 -0.0797  0.4450  0.6319
 8103TIP3    H145800   5.757   5.517   0.344 -0.5098  0.3083  1.8078
 8103TIP3    H245801   5.804   5.400   0.260 -0.5963  1.3393  0.2819
 8104TIP3   OH245802   4.936   6.373   0.729  0.6313 -0.0633 -0.0693
 8104TIP3    H145803   4.954   6.311   0.799 -0.0399  2.4008  2.4735
 8104TIP3    H245804   5.021   6.415   0.712  0.2866  1.2710  1.3334
 8105TIP3   OH245805   5.024   3.682  11.642 -0.2084  0.0358 -0.0387
 8105TIP3    H145806   5.056   3.728  11.719  0.4285 -2.2249  1.1408
 8105TIP3    H245807   4.948   3.633  11.673 -0.5498 -0.1538 -1.1099
 8106TIP3   OH245808   6.035   3.254  12.517  0.7861 -0.1763  0.3762
 8106TIP3    H145809   6.086   3.173  12.520  0.7046 -0.2476 -0.0774
 8106TIP3    H245810   6.089   3.314  12.466  0.3286 -0.3195 -0.2893
 8107TIP3   OH245811   1.430   6.046  16.942 -0.3619  0.6218 -0.9935
 8107TIP3    H145812   1.459   6.082  16.859  2.1779 -1.4064 -1.0893
 8107TIP3    H245813   1.374   5.972  16.918 -0.1059  0.3936 -0.8866
 8108TIP3   OH245814   1.880   6.100  12.776  0.0970  0.3404  0.0855
 8108TIP3    H145815   1.886   6.141  12.863 -1.9260 -0.8717  0.8572
 8108TIP3    H245816   1.869   6.174  12.716  1.3461  1.1872  0.8499
 8109TIP3   OH245817   5.578   0.281  14.623  0.3475  0.5953 -0.2735
 8109TIP3    H145818   5.662   0.310  14.659  0.5208 -1.4220  1.1423
 8109TIP3    H245819   5.558   0.344  14.555  3.4153  0.7151 -1.2252
 8110TIP3   OH245820   0.256   1.643  11.994  0.1542  0.1038  0.4278
 8110TIP3    H145821   0.245   1.556  12.032  0.3819 -0.6697 -1.2024
 8110TIP3    H245822   0.175   1.689  12.016 -0.7129 -1.0963 -0.1420
 8111TIP3   OH245823   0.892   5.773  12.976  0.4190  0.5177 -0.2676
 8111TIP3    H145824   0.928   5.738  13.058  0.6555 -1.3568 -1.1214
 8111TIP3    H245825   0.806   5.730  12.968  1.5213 -1.5648 -2.3085
 8112TIP3   OH245826   0.837   5.682  12.156 -0.1719 -0.3912 -0.0161
 8112TIP3    H145827   0.870   5.598  12.124 -0.6620 -0.7122  0.3080
 8112TIP3    H245828   0.915   5.730  12.182  0.1314 -0.6514 -0.4349
 8113TIP3   OH245829   5.617   0.235   4.178 -0.2413  0.2591  0.1322
 8113TIP3    H145830   5.545   0.260   4.120  0.5674  0.0608 -0.9763
 8113TIP3    H245831   5.646   0.150   4.145 -0.7767 -0.6405  1.8109
 8114TIP3   OH245832   3.981   1.405  14.473  0.6772  0.6279  0.5518
 8114TIP3    H145833   4.032   1.324  14.472 -1.7772 -1.0136  1.7011
 8114TIP3    H245834   4.037   1.467  14.521  1.2014 -1.4023  2.7423
 8115TIP3   OH245835   2.441   0.772   2.536 -0.0608  0.4452 -0.1873
 8115TIP3    H145836   2.458   0.860   2.571 -1.0812  0.1890  1.0658
 8115TIP3    H245837   2.410   0.723   2.612 -1.8326 -0.3212 -1.3359
 8116TIP3   OH245838   0.768   2.476   5.268 -0.1412  0.3826  0.4996
 8116TIP3    H145839   0.830   2.412   5.302  1.8464  1.9269 -0.0185
 8116TIP3    H245840   0.709   2.493   5.341 -2.1391 -3.4690  0.0627
 8117TIP3   OH245841   1.954   3.032  13.262 -0.3182  0.3015  0.5654
 8117TIP3    H145842   2.013   2.988  13.201 -0.1082  2.3240 -0.8085
 8117TIP3    H245843   1.902   2.962  13.301  1.7368 -1.3700  0.4603
 8118TIP3   OH245844   3.464   1.945   6.164  0.1761  0.2558 -0.0740
 8118TIP3    H145845   3.549   1.925   6.204 -0.3811  1.9418  2.1067
 8118TIP3    H245846   3.401   1.941   6.236 -1.4860 -0.0794 -1.4752
 8119TIP3   OH245847   2.430   5.140  11.320 -0.1752  0.1863  0.5778
 8119TIP3    H145848   2.408   5.092  11.400 -1.8772 -0.2384 -0.0957
 8119TIP3    H245849   2.351   5.133  11.266  0.8047  0.7693 -0.9907
 8120TIP3   OH245850   6.105   4.280   2.918  0.5196  0.1283  0.1464
 8120TIP3    H145851   6.185   4.227   2.916 -0.6212 -1.8438  2.1924
 8120TIP3    H245852   6.035   4.220   2.892 -0.4595  1.5602 -0.6887
 8121TIP3   OH245853   2.550   4.953   1.599  0.2709  0.0195  0.2020
 8121TIP3    H145854   2.557   4.947   1.504 -0.3612 -1.7578  0.2391
 8121TIP3    H245855   2.476   4.897   1.621  0.5820  0.1977  1.7806
 8122TIP3   OH245856   3.959   2.516  12.834 -0.8444  0.4631  0.0061
 8122TIP3    H145857   3.977   2.595  12.885  2.1608 -0.6161  0.8761
 8122TIP3    H245858   4.010   2.527  12.753 -1.6613  0.0725 -0.5761
 8123TIP3   OH245859   6.638   2.795   3.097 -0.2408  0.0471  0.4909
 8123TIP3    H145860   6.668   2.775   3.008  1.7184 -0.7735  1.2596
 8123TIP3    H245861   6.543   2.799   3.091 -0.1467 -0.0200 -1.6310
 8124TIP3   OH245862   1.602   3.389   2.043  0.3398  0.0380 -0.1507
 8124TIP3    H145863   1.526   3.333   2.058  0.5248 -0.2044 -0.1172
 8124TIP3    H245864   1.565   3.475   2.023  0.0592  0.1835  0.9191
 8125TIP3   OH245865   5.655   0.996   4.423 -0.4776 -0.2949 -0.0008
 8125TIP3    H145866   5.572   1.006   4.469 -0.2893 -1.2063  0.5684
 8125TIP3    H245867   5.710   1.068   4.455 -1.2028  0.6260 -0.7743
 8126TIP3   OH245868   6.397   3.892   5.109 -0.0805 -0.1208 -0.0500
 8126TIP3    H145869   6.399   3.957   5.179 -1.4186 -0.2381  0.1244
 8126TIP3    H245870   6.307   3.858   5.110 -0.1721 -0.0260 -1.9320
 8127TIP3   OH245871   5.214   1.288  14.553 -0.0292 -0.2840  0.0236
 8127TIP3    H145872   5.146   1.275  14.486 -1.2567  2.4219  0.6142
 8127TIP3    H245873   5.296   1.286  14.504 -0.7618 -0.2130 -1.2690
 8128TIP3   OH245874   4.102   5.956   1.990  0.5134 -0.2643  0.2066
 8128TIP3    H145875   4.079   6.049   1.990 -0.3723 -0.4579 -1.0185
 8128TIP3    H245876   4.035   5.915   2.045  0.1575 -0.3355 -0.2762
 8129TIP3   OH245877   3.223   6.725   2.684  0.0990  0.4026 -0.2683
 8129TIP3    H145878   3.251   6.660   2.618  0.6323 -0.3669  0.6876
 8129TIP3    H245879   3.297   6.731   2.744 -0.9957 -0.1684  1.2058
 8130TIP3   OH245880   4.341   5.010  14.437 -0.9157  0.3037  0.1060
 8130TIP3    H145881   4.407   5.076  14.460 -0.8966 -0.0371  1.0753
 8130TIP3    H245882   4.378   4.966  14.361  0.2310 -0.2092  0.9311
 8131TIP3   OH245883   0.230   4.095   1.307  0.7137 -0.0222 -0.4579
 8131TIP3    H145884   0.274   4.099   1.391 -0.4854 -1.6931  0.3039
 8131TIP3    H245885   0.137   4.110   1.327  0.1575 -2.0955 -1.1637
 8132TIP3   OH245886   2.536   0.250   2.215 -0.0637  0.2310 -0.2014
 8132TIP3    H145887   2.560   0.160   2.191  0.0293  0.4025 -0.7761
 8132TIP3    H245888   2.500   0.243   2.303 -0.5103 -0.4477 -0.4294
 8133TIP3   OH245889   3.120   4.542   0.473  0.5731 -0.1705  0.0544
 8133TIP3    H145890   3.093   4.597   0.399  0.6298 -0.5268 -0.2357
 8133TIP3    H245891   3.041   4.536   0.527  0.4577 -0.1116 -0.1042
 8134TIP3   OH245892   6.188   4.551   5.061  0.1757  0.0345  0.2602
 8134TIP3    H145893   6.112   4.581   5.110 -0.3987 -1.2971  0.2130
 8134TIP3    H245894   6.263   4.585   5.111 -0.4197  0.2642  1.0178
 8135TIP3   OH245895   6.524   2.463   4.379  0.2430  0.2069 -0.0820
 8135TIP3    H145896   6.507   2.369   4.394  1.2175  0.0979  0.4575
 8135TIP3    H245897   6.476   2.484   4.299  0.8692 -1.0173 -0.8085
 8136TIP3   OH245898   4.272   2.027   0.723 -0.0310 -0.0180  0.0913
 8136TIP3    H145899   4.300   1.963   0.787 -0.6888 -1.4365 -0.9826
 8136TIP3    H245900   4.342   2.028   0.657 -1.1361 -1.5588 -1.1881
 8137TIP3   OH245901   2.068   0.139  17.064  0.1552 -0.4436 -0.2886
 8137TIP3    H145902   2.055   0.045  17.054 -0.2376 -0.3496 -0.7241
 8137TIP3    H245903   1.984   0.170  17.099  0.9800 -0.5479  1.9593
 8138TIP3   OH245904   2.753   1.090   3.720  0.2894 -0.1738  0.1771
 8138TIP3    H145905   2.750   0.995   3.717  2.3678 -0.2715 -1.5487
 8138TIP3    H245906   2.815   1.111   3.790 -0.8456 -0.0177  1.1671
 8139TIP3   OH245907   4.121   5.683  16.891  0.2529  0.7815 -0.2642
 8139TIP3    H145908   4.044   5.740  16.888 -0.1040  0.3106 -0.1588
 8139TIP3    H245909   4.135   5.656  16.800 -0.7807 -0.5303 -0.0740
 8140TIP3   OH245910   2.963   1.317   4.460  0.2723  0.2848 -0.3623
 8140TIP3    H145911   2.877   1.332   4.421 -0.1875  1.1626  0.9228
 8140TIP3    H245912   3.009   1.400   4.449  0.2286  0.4626  0.6856
 8141TIP3   OH245913   3.518   6.523   3.200  0.3163 -0.1358  0.1356
 8141TIP3    H145914   3.504   6.451   3.139 -1.5230  1.0407 -0.9375
 8141TIP3    H245915   3.440   6.579   3.190  1.1874  1.4775  1.6507
 8142TIP3   OH245916   4.593   0.763  16.000 -0.4966 -0.2784  0.0543
 8142TIP3    H145917   4.537   0.827  16.045 -0.3124 -0.7963  1.0469
 8142TIP3    H245918   4.679   0.805  15.995 -0.9606  0.5921 -1.6305
 8143TIP3   OH245919   6.339   5.657  14.300  0.2033 -0.3579 -0.2600
 8143TIP3    H145920   6.391   5.580  14.278  1.3826  0.2125  0.4496
 8143TIP3    H245921   6.366   5.724  14.237 -0.4051 -0.3518 -0.5180
 8144TIP3   OH245922   4.979   6.334   0.418  0.5029 -0.1561  0.0917
 8144TIP3    H145923   4.976   6.251   0.464 -0.5765 -0.5818 -0.6955
 8144TIP3    H245924   4.897   6.336   0.367  0.3322  1.5392  0.3773
 8145TIP3   OH245925   0.822   5.610   2.757  0.5026 -0.2539  0.2596
 8145TIP3    H145926   0.893   5.653   2.804  1.5453 -1.3980 -0.2285
 8145TIP3    H245927   0.866   5.549   2.698 -0.8874 -0.9065 -0.1320
 8146TIP3   OH245928   5.662   3.742  12.012  0.9126  0.4990 -0.1475
 8146TIP3    H145929   5.667   3.726  11.917 -0.5459  0.2132 -0.2113
 8146TIP3    H245930   5.580   3.699  12.038  1.5973  0.0742  1.3563
 8147TIP3   OH245931   5.014   6.169   5.338 -0.3927  0.2707 -0.2821
 8147TIP3    H145932   5.096   6.164   5.289 -0.2460 -0.5221  0.0359
 8147TIP3    H245933   4.980   6.080   5.337  0.1685 -0.0381  1.9990
 8148TIP3   OH245934   5.013   4.961  13.068  0.5746  0.3383  0.0166
 8148TIP3    H145935   4.976   5.046  13.044  0.8387 -0.0083 -1.7371
 8148TIP3    H245936   5.088   4.950  13.010  0.3845 -1.2054  0.0333
 8149TIP3   OH245937   4.172   5.662  10.561 -0.4191 -0.5962 -0.1692
 8149TIP3    H145938   4.226   5.654  10.481  1.1140  1.1224  0.6131
 8149TIP3    H245939   4.236   5.672  10.631 -1.7449  1.7356  0.7957
 8150TIP3   OH245940   1.009   0.695   6.081 -0.4982 -0.1563 -0.0821
 8150TIP3    H145941   0.954   0.689   6.159  1.3116 -0.8737  1.2402
 8150TIP3    H245942   1.091   0.734   6.113  0.0725  0.1128 -1.7650
 8151TIP3   OH245943   3.896   6.452   2.470  0.4369  0.7580 -0.4446
 8151TIP3    H145944   3.913   6.359   2.484  2.7724  1.3392  1.1372
 8151TIP3    H245945   3.962   6.479   2.406  0.3494  1.5035 -0.2264
 8152TIP3   OH245946   2.265   3.037  15.949 -0.2371 -0.2299  0.6070
 8152TIP3    H145947   2.358   3.018  15.952  0.1875  1.4586 -0.4068
 8152TIP3    H245948   2.228   2.991  16.024  1.3303 -1.2848  0.7641
 8153TIP3   OH245949   6.259   2.311   1.064  0.4788  0.1863  0.0037
 8153TIP3    H145950   6.217   2.229   1.090  0.1375  0.6121  0.8446
 8153TIP3    H245951   6.189   2.359   1.019  0.2482  0.5999  0.7789
 8154TIP3   OH245952   2.833   3.659   1.275 -0.0962  0.0114 -0.3493
 8154TIP3    H145953   2.880   3.672   1.193  0.6764 -1.1145 -0.1018
 8154TIP3    H245954   2.752   3.710   1.264  0.3563  0.5297 -1.4796
 8155TIP3   OH245955   1.690   4.704  10.706 -0.3392 -0.2978  0.0497
 8155TIP3    H145956   1.658   4.624  10.665  0.0125 -0.2404 -0.3453
 8155TIP3    H245957   1.763   4.676  10.761 -0.2819 -0.2653 -0.0084
 8156TIP3   OH245958   1.043   4.428  12.380  0.4427  0.3518 -0.0239
 8156TIP3    H145959   1.067   4.448  12.470  0.0433  0.2679  0.1004
 8156TIP3    H245960   1.110   4.473  12.327  0.7250  0.3326  0.3118
 8157TIP3   OH245961   4.820   3.768   3.627 -0.3732 -0.3321  0.9961
 8157TIP3    H145962   4.911   3.796   3.639  0.2634 -0.4982 -2.4426
 8157TIP3    H245963   4.769   3.848   3.640  0.4879  0.2626  0.8357
 8158TIP3   OH245964   4.763   1.241   1.688 -0.0053  0.0372  0.2808
 8158TIP3    H145965   4.799   1.267   1.773  0.8012 -0.7420  0.1961
 8158TIP3    H245966   4.715   1.318   1.657 -2.9549 -0.6093  2.8202
 8159TIP3   OH245967   5.993   2.209   6.373  0.1883 -0.1257 -0.3983
 8159TIP3    H145968   5.984   2.287   6.318 -0.0721  0.0064 -0.1696
 8159TIP3    H245969   5.949   2.140   6.324  0.2243 -0.0770 -0.4988
 8160TIP3   OH245970   6.179   6.396   1.935  0.6250 -0.5326  0.6469
 8160TIP3    H145971   6.257   6.408   1.991  2.1660  1.8741 -1.7732
 8160TIP3    H245972   6.125   6.472   1.954  1.6706  0.8970 -1.7486
 8161TIP3   OH245973   3.349   2.612   4.358 -0.8674 -0.4686  0.2482
 8161TIP3    H145974   3.404   2.666   4.301  0.2491  0.2897  1.9679
 8161TIP3    H245975   3.405   2.538   4.381 -1.3251 -0.7813  0.3666
 8162TIP3   OH245976   0.461   2.318  16.278  0.2521  0.2413 -0.2563
 8162TIP3    H145977   0.545   2.362  16.291 -0.5102  1.5309  0.5965
 8162TIP3    H245978   0.475   2.229  16.309  1.2803  0.4804 -0.0155
 8163TIP3   OH245979   6.541   1.218   0.804  0.6433  0.6658  0.5564
 8163TIP3    H145980   6.518   1.128   0.784 -0.9369  0.9315  1.0182
 8163TIP3    H245981   6.633   1.226   0.779  0.3003 -0.5380 -1.2898
 8164TIP3   OH245982   2.440   2.638   1.092  0.7514  0.5719  0.5684
 8164TIP3    H145983   2.446   2.625   1.186 -1.5810  1.6624  0.9452
 8164TIP3    H245984   2.442   2.733   1.080  1.0373  0.4528 -0.5031
 8165TIP3   OH245985   0.909   4.595  14.553  0.6180  0.2335  0.1723
 8165TIP3    H145986   0.943   4.571  14.639  3.6374 -0.8800 -1.1763
 8165TIP3    H245987   0.973   4.656  14.518 -0.6171  0.7700 -1.2583
 8166TIP3   OH245988   1.087   2.831  14.915  0.1457  0.3113 -0.4326
 8166TIP3    H145989   1.115   2.788  14.995 -1.7848  0.3932  0.3536
 8166TIP3    H245990   1.087   2.762  14.849 -1.8413 -0.7385  0.5611
 8167TIP3   OH245991   4.341   1.879  12.630 -0.0223  0.7004  0.2406
 8167TIP3    H145992   4.252   1.860  12.660  0.2058  1.1038  1.2148
 8167TIP3    H245993   4.344   1.974  12.621 -0.4378  0.5502 -2.2884
 8168TIP3   OH245994   5.904   4.452  14.669  0.0316 -0.9581 -0.0709
 8168TIP3    H145995   5.825   4.505  14.667 -0.3208 -1.4935 -0.9059
 8168TIP3    H245996   5.974   4.513  14.645 -0.1872 -0.5873  0.2208
 8169TIP3   OH245997   2.569   4.585  16.999 -0.6051 -0.0146  0.0958
 8169TIP3    H145998   2.561   4.572  16.904  1.4521 -1.0854  0.0213
 8169TIP3    H245999   2.661   4.570  17.018 -1.3908 -2.3989  2.6579
 8170TIP3   OH246000   4.322   5.608   4.499  0.3367  0.0052  0.1812
 8170TIP3    H146001   4.378   5.678   4.467 -0.3092  0.6730  0.4884
 8170TIP3    H246002   4.239   5.651   4.521  0.8092 -0.3241  3.0173
 8171TIP3   OH246003   3.480   3.487   4.792  0.5394  0.0089 -0.6225
 8171TIP3    H146004   3.430   3.421   4.838  0.0993  0.6206 -0.2194
 8171TIP3    H246005   3.539   3.437   4.735  1.5527 -0.7853  1.0456
 8172TIP3   OH246006   0.765   2.198  16.542  0.0555 -0.1451 -0.0756
 8172TIP3    H146007   0.853   2.180  16.509  0.1713 -0.6877  0.5113
 8172TIP3    H246008   0.709   2.138  16.493  0.2551 -1.1096  0.8296
 8173TIP3   OH246009   3.192   2.614   0.481  0.1468 -0.0550 -0.3782
 8173TIP3    H146010   3.284   2.606   0.507 -0.1636 -0.7825  0.5498
 8173TIP3    H246011   3.165   2.699   0.516 -0.3486 -1.1330  2.1043
 8174TIP3   OH246012   5.049   2.299   3.520 -0.1864  0.2088 -0.1024
 8174TIP3    H146013   4.990   2.233   3.556  0.1186 -0.2910 -0.4989
 8174TIP3    H246014   5.031   2.378   3.570 -1.7833  0.2902 -0.7626
 8175TIP3   OH246015   5.293   6.051  10.877 -0.5536  0.3989 -0.1288
 8175TIP3    H146016   5.216   6.106  10.893 -0.2602  1.2701 -1.5313
 8175TIP3    H246017   5.333   6.088  10.799  0.2295 -1.2234 -0.5418
 8176TIP3   OH246018   1.340   5.510   0.165 -0.2269  0.0314  0.0692
 8176TIP3    H146019   1.323   5.556   0.246  0.5226 -1.4711  1.1258
 8176TIP3    H246020   1.431   5.530   0.144 -0.5845  0.8850 -0.7444
 8177TIP3   OH246021   5.923   0.223   4.250  0.0755  0.2632 -0.3132
 8177TIP3    H146022   5.852   0.271   4.292 -1.3320 -0.9273 -1.2282
 8177TIP3    H246023   5.906   0.131   4.272  2.3942  0.0467  0.9600
 8178TIP3   OH246024   6.115   5.595  15.160 -0.2213 -0.1870  0.4039
 8178TIP3    H146025   6.055   5.668  15.153 -1.3789 -0.9465  1.6958
 8178TIP3    H246026   6.202   5.633  15.151 -0.8476  1.1479 -0.1115
 8179TIP3   OH246027   4.052   1.852   5.128  0.2922 -0.1072  0.1550
 8179TIP3    H146028   4.112   1.813   5.192  1.1369 -1.0681 -1.1705
 8179TIP3    H246029   4.092   1.936   5.107  0.9068 -0.5151 -0.3306
 8180TIP3   OH246030   3.012   1.316  12.368  0.3266  0.0201 -0.2377
 8180TIP3    H146031   3.007   1.411  12.357 -0.5094  0.0509  0.3529
 8180TIP3    H246032   3.096   1.301  12.412  1.0131  0.3714 -1.3691
 8181TIP3   OH246033   1.879   0.187   4.317  0.2597  0.1165  0.3508
 8181TIP3    H146034   1.827   0.267   4.316  2.9594  2.0528 -1.3526
 8181TIP3    H246035   1.915   0.182   4.228  3.0957 -0.8807  1.4489
 8182TIP3   OH246036   2.275   5.768  14.629 -0.1383  0.1160  0.3716
 8182TIP3    H146037   2.317   5.776  14.543 -1.2729  0.6587 -0.1576
 8182TIP3    H246038   2.348   5.766  14.691  0.6734  2.0336 -0.4216
 8183TIP3   OH246039   3.892   4.612  11.445  0.3307  0.3372 -0.6742
 8183TIP3    H146040   3.893   4.688  11.504  0.8472 -1.0140  1.1190
 8183TIP3    H246041   3.821   4.631  11.384  0.6841  2.4389 -0.5320
 8184TIP3   OH246042   4.168   0.811   4.749  0.0866 -0.6521 -0.1819
 8184TIP3    H146043   4.111   0.810   4.672 -0.6600  0.1824  0.3499
 8184TIP3    H246044   4.165   0.721   4.783 -0.8696 -0.6305 -0.1926
 8185TIP3   OH246045   2.382   5.915  12.573  0.5846  0.4600  0.3658
 8185TIP3    H146046   2.426   5.931  12.656  0.1784  0.1945  0.6348
 8185TIP3    H246047   2.347   6.001  12.548 -1.0529  0.1668  1.4964
 8186TIP3   OH246048   0.185   4.674  10.956  0.0645  0.3656  0.1606
 8186TIP3    H146049   0.104   4.623  10.957 -0.8561  1.7729 -0.4809
 8186TIP3    H246050   0.252   4.613  10.989 -0.7020 -1.7265 -1.8403
 8187TIP3   OH246051   4.014   4.705   5.299  0.7845  0.4031  0.8434
 8187TIP3    H146052   3.981   4.775   5.355  2.3837  0.6598  1.5255
 8187TIP3    H246053   3.943   4.641   5.297  0.4524  0.6357  2.7367
 8188TIP3   OH246054   0.589   5.455  14.331 -0.3004  0.1500 -0.0828
 8188TIP3    H146055   0.583   5.483  14.240  2.7191  1.1388 -0.0639
 8188TIP3    H246056   0.652   5.514  14.371  0.3157 -1.7975  2.0351
 8189TIP3   OH246057   6.446   5.741   0.078 -0.0510  0.0120 -0.1790
 8189TIP3    H146058   6.374   5.801   0.098 -0.4504 -1.1056  2.0113
 8189TIP3    H246059   6.525   5.792   0.100 -0.3072  0.2879  0.1213
 8190TIP3   OH246060   6.029   3.822   5.872 -0.4275  0.7456  0.3991
 8190TIP3    H146061   6.075   3.741   5.850  0.0883  1.5109 -1.6055
 8190TIP3    H246062   6.098   3.884   5.892 -0.8537  0.4652  3.0477
 8191TIP3   OH246063   3.901   6.323  16.963 -0.0542 -0.6265 -0.6746
 8191TIP3    H146064   3.854   6.378  16.900  1.3920 -1.4262 -2.5503
 8191TIP3    H246065   3.833   6.266  16.999 -1.1276  0.6322 -0.6076
 8192TIP3   OH246066   1.878   6.720   4.032  0.2332  0.1398 -0.0832
 8192TIP3    H146067   1.862   6.734   3.939 -0.1509  1.4818  0.1722
 8192TIP3    H246068   1.965   6.757   4.048  1.2815 -2.0616 -0.3168
 8193TIP3   OH246069   3.354   3.154  14.504  0.0396  0.3945 -0.4026
 8193TIP3    H146070   3.439   3.113  14.514  0.1206  1.0540  2.3258
 8193TIP3    H246071   3.294   3.081  14.486  1.0234 -0.1299 -1.7729
 8194TIP3   OH246072   1.903   4.411   0.113 -0.3815  0.1153 -0.0157
 8194TIP3    H146073   1.849   4.334   0.100 -1.6817  1.1254 -0.8870
 8194TIP3    H246074   1.883   4.468   0.038  1.4942  0.7651 -0.0868
 8195TIP3   OH246075   3.721   0.374  11.741  0.2052  0.3590 -0.3178
 8195TIP3    H146076   3.767   0.290  11.749  1.4045  0.9199 -1.0704
 8195TIP3    H246077   3.791   0.440  11.743 -0.6939  1.3266 -0.0718
 8196TIP3   OH246078   5.872   0.508  12.394 -0.0003 -0.5893 -0.1532
 8196TIP3    H146079   5.809   0.442  12.420  1.6630 -1.8030  1.0030
 8196TIP3    H246080   5.942   0.459  12.351  0.9351  0.5001  0.0642
 8197TIP3   OH246081   5.535   2.957   4.199 -0.1594  0.0183 -0.5283
 8197TIP3    H146082   5.576   2.916   4.123  0.6910 -1.3565  0.6285
 8197TIP3    H246083   5.569   3.046   4.199  1.7991 -0.6793 -0.3909
 8198TIP3   OH246084   0.225   3.720   2.770  0.6777 -0.0953 -0.0111
 8198TIP3    H146085   0.173   3.685   2.842  0.7738 -2.1782 -0.8887
 8198TIP3    H246086   0.316   3.701   2.795  0.7125 -0.8095 -0.6530
 8199TIP3   OH246087   0.109   3.046   2.794  0.3979 -0.1096 -0.7768
 8199TIP3    H146088   0.025   3.000   2.788 -0.3967  1.3579 -1.4714
 8199TIP3    H246089   0.111   3.078   2.884  0.2480 -0.2076 -0.7362
 8200TIP3   OH246090   1.978   2.618   6.622 -0.3526  0.3661 -0.2192
 8200TIP3    H146091   2.001   2.603   6.531 -0.5956  0.7283 -0.3424
 8200TIP3    H246092   2.022   2.548   6.670  0.9168  0.9822 -0.4487
 8201TIP3   OH246093   0.649   5.290  13.903 -0.4810  0.6752 -0.5907
 8201TIP3    H146094   0.689   5.246  13.978 -0.5548  2.0585  0.2993
 8201TIP3    H246095   0.557   5.265  13.906 -0.0174 -1.3620 -1.7941
 8202TIP3   OH246096   1.264   5.546  11.456 -0.4328 -0.3102 -0.1535
 8202TIP3    H146097   1.270   5.451  11.470  0.1760 -0.1485  0.8066
 8202TIP3    H246098   1.180   5.559  11.413 -1.5679 -1.0863  1.6918
 8203TIP3   OH246099   2.298   4.857   3.526 -0.3247 -0.6390  0.0351
 8203TIP3    H146100   2.359   4.828   3.459 -0.3479 -1.8959  0.5206
 8203TIP3    H246101   2.215   4.869   3.479  0.5785  2.7021 -0.9564
 8204TIP3   OH246102   4.369   6.306  15.723  0.1337 -0.2521  0.4557
 8204TIP3    H146103   4.318   6.387  15.726 -1.6938 -1.3043 -0.3780
 8204TIP3    H246104   4.305   6.237  15.736  1.5233 -1.6266  0.3296
 8205TIP3   OH246105   2.478   3.044   5.254 -0.5991  0.7202  0.5181
 8205TIP3    H146106   2.561   3.080   5.223 -0.9786  2.7581  1.6362
 8205TIP3    H246107   2.414   3.114   5.239 -2.1085 -0.7403 -0.1728
 8206TIP3   OH246108   6.554   1.719  14.304 -0.7361 -0.4081  0.1213
 8206TIP3    H146109   6.595   1.674  14.378  0.6896  0.5123 -0.0783
 8206TIP3    H246110   6.500   1.787  14.345  0.0934  0.1350  0.3335
 8207TIP3   OH246111   6.305   3.342  17.267  0.6003  0.5325 -0.6927
 8207TIP3    H146112   6.309   3.319  17.174  0.5850 -0.3364 -0.4805
 8207TIP3    H246113   6.214   3.368  17.280  0.4397  0.0272 -0.7786
 8208TIP3   OH246114   4.632   0.047   3.416 -0.2373  0.6446  0.2491
 8208TIP3    H146115   4.692   0.061   3.490 -0.7836  0.7210  0.6847
 8208TIP3    H246116   4.547   0.034   3.457 -0.5163  0.5147 -0.3666
 8209TIP3   OH246117   4.354   4.004   5.737  0.0700 -0.0870  0.3248
 8209TIP3    H146118   4.336   3.923   5.784  1.7791  0.7930  2.7186
 8209TIP3    H246119   4.268   4.041   5.719 -0.8021 -2.7098 -1.5972
 8210TIP3   OH246120   1.990   4.664  16.000  0.1794 -0.0623  0.2271
 8210TIP3    H146121   1.910   4.665  15.948 -0.2284 -0.3797  0.8328
 8210TIP3    H246122   1.991   4.749  16.043 -2.3195 -1.6045  3.8498
 8211TIP3   OH246123   4.170   1.043  11.491  0.0387 -0.6620  0.1379
 8211TIP3    H146124   4.202   0.974  11.548 -0.6141 -0.8410  0.2962
 8211TIP3    H246125   4.087   1.009  11.456  0.1918 -0.3630 -0.5427
 8212TIP3   OH246126   4.947   4.266   4.736  0.5073  0.2108  0.4838
 8212TIP3    H146127   4.893   4.210   4.792  0.7192  0.3298  0.8153
 8212TIP3    H246128   4.988   4.327   4.797 -1.2672  2.0579 -0.0768
 8213TIP3   OH246129   2.268   5.026   1.905 -0.5758 -0.2512 -0.2283
 8213TIP3    H146130   2.197   5.069   1.952  0.0708 -0.0702  0.6142
 8213TIP3    H246131   2.307   5.095   1.851  0.6303  0.3487  1.3226
 8214TIP3   OH246132   5.680   0.020  13.142  0.0923  0.7252  0.1376
 8214TIP3    H146133   5.595   0.061  13.162 -1.0214 -0.6218 -1.4989
 8214TIP3    H246134   5.711   0.067  13.065 -0.9574 -1.0393 -1.4508
 8215TIP3   OH246135   1.911   0.476  12.679 -0.1420 -0.9537  0.0668
 8215TIP3    H146136   1.863   0.396  12.660 -0.4635 -0.5475 -0.9158
 8215TIP3    H246137   1.850   0.546  12.657  1.3187 -0.3788 -2.6506
 8216TIP3   OH246138   4.102   2.136   5.258 -0.2769 -0.4434  0.4001
 8216TIP3    H146139   4.033   2.194   5.289  0.3332 -0.0920  1.1361
 8216TIP3    H246140   4.173   2.146   5.322  0.6949 -0.3376 -0.6542
 8217TIP3   OH246141   5.206   6.527   3.729 -0.4902 -0.2062  0.7035
 8217TIP3    H146142   5.227   6.596   3.667 -0.5747 -1.7877 -1.1758
 8217TIP3    H246143   5.168   6.457   3.676 -1.2763 -1.3446  2.6534
 8218TIP3   OH246144   3.023   4.158  12.407 -0.2307 -0.4223  0.4694
 8218TIP3    H146145   2.968   4.096  12.454  0.2481 -1.2526 -0.0548
 8218TIP3    H246146   3.111   4.144  12.442  0.4441 -2.1811 -1.7279
 8219TIP3   OH246147   4.179   0.721   5.448 -0.4212  0.6339 -0.0179
 8219TIP3    H146148   4.196   0.792   5.387 -0.2527 -0.1218 -0.8814
 8219TIP3    H246149   4.265   0.685   5.469 -0.3881  1.5204  1.4786
 8220TIP3   OH246150   4.226   3.499   1.860  0.0444  0.0010 -0.9324
 8220TIP3    H146151   4.252   3.588   1.839  1.5343 -0.2333 -0.2178
 8220TIP3    H246152   4.262   3.446   1.789  1.2710 -0.2750 -0.1505
 8221TIP3   OH246153   2.162   0.303  13.026 -0.6406 -0.5018 -0.2054
 8221TIP3    H146154   2.177   0.316  13.120 -2.1297 -1.1779  0.1592
 8221TIP3    H246155   2.204   0.378  12.984 -0.9509  0.4330  1.0934
 8222TIP3   OH246156   4.659   2.957   6.324  0.2103  0.0258  0.1556
 8222TIP3    H146157   4.617   2.980   6.407 -0.5692  0.6331 -0.3973
 8222TIP3    H246158   4.698   2.871   6.340 -1.1889 -0.5249  0.7043
 8223TIP3   OH246159   6.739   2.559  15.767 -0.4442 -0.1900 -0.3553
 8223TIP3    H146160   6.820   2.559  15.817 -0.0111  2.8826 -0.8631
 8223TIP3    H246161   6.756   2.501  15.693  1.1968  0.1709 -0.2959
 8224TIP3   OH246162   3.453   0.053   2.503  0.1631 -0.4334  0.4568
 8224TIP3    H146163   3.505   0.081   2.579  0.8056  1.1941 -0.5226
 8224TIP3    H246164   3.368   0.094   2.517  0.4356  0.2792  0.0770
 8225TIP3   OH246165   0.670   4.194  12.366  0.1960  0.3296  0.1129
 8225TIP3    H146166   0.582   4.187  12.403  1.1750 -2.5767  2.2477
 8225TIP3    H246167   0.712   4.264  12.416 -0.5448  1.0062 -0.1966
 8226TIP3   OH246168   2.059   4.963   0.050 -0.5744 -0.1320  0.1296
 8226TIP3    H146169   2.018   5.001   0.128 -1.7295 -0.9066 -0.0669
 8226TIP3    H246170   2.080   4.873   0.075 -1.9566 -0.7346 -0.7545
 8227TIP3   OH246171   1.940   5.060   5.777  0.0549 -0.0004 -0.1898
 8227TIP3    H146172   2.024   5.035   5.816 -0.6405 -1.0946  0.6695
 8227TIP3    H246173   1.963   5.090   5.689  1.4199  0.4078  0.2768
 8228TIP3   OH246174   6.052   3.302   6.308 -0.1025  0.5336 -0.0357
 8228TIP3    H146175   6.030   3.395   6.318 -0.3187  0.4492  0.2906
 8228TIP3    H246176   6.145   3.301   6.286  0.1128  0.7872  0.8280
 8229TIP3   OH246177   6.211   2.314  11.158  0.1557 -0.7964 -0.4151
 8229TIP3    H146178   6.204   2.284  11.068  0.0253 -1.3010 -0.2466
 8229TIP3    H246179   6.274   2.254  11.198  0.0067 -0.7506 -0.1034
 8230TIP3   OH246180   4.620   3.447  11.579 -0.8253 -0.4009  0.0901
 8230TIP3    H146181   4.674   3.485  11.509 -0.8816  0.9816  0.7532
 8230TIP3    H246182   4.530   3.468  11.554 -0.7672  1.6543  1.3802
 8231TIP3   OH246183   2.246   5.099   3.200 -0.5596 -0.2586  0.0942
 8231TIP3    H146184   2.305   5.151   3.146 -0.0086  0.4627  1.3250
 8231TIP3    H246185   2.243   5.013   3.159  3.0173 -0.9886  1.0860
 8232TIP3   OH246186   4.761   0.253   3.260  0.0851 -0.0021 -0.0091
 8232TIP3    H146187   4.760   0.311   3.336 -2.3439  0.5149 -0.3505
 8232TIP3    H246188   4.694   0.186   3.279 -1.3660  0.7457 -2.0532
 8233TIP3   OH246189   3.729   0.520   5.790  0.5179  0.0564 -0.0716
 8233TIP3    H146190   3.669   0.534   5.716  0.8955  1.5257 -0.1278
 8233TIP3    H246191   3.755   0.428   5.782  0.5155  0.1587 -1.7566
 8234TIP3   OH246192   4.904   2.693  16.409 -0.0173  0.3872  0.6940
 8234TIP3    H146193   4.973   2.703  16.475 -0.0317 -1.7488  1.1084
 8234TIP3    H246194   4.844   2.765  16.426  0.6609  0.6391  2.1923
 8235TIP3   OH246195   2.978   3.342  12.002 -0.1375  0.6888  0.1756
 8235TIP3    H146196   2.937   3.286  12.068  1.4478  1.5157  1.9322
 8235TIP3    H246197   2.927   3.325  11.922 -1.4840 -1.0945  1.3271
 8236TIP3   OH246198   1.115   0.427  11.900 -0.5724 -0.5500  0.5606
 8236TIP3    H146199   1.087   0.502  11.847  0.2210 -0.3195  0.4476
 8236TIP3    H246200   1.092   0.452  11.989 -1.1926 -0.5932  0.4127
 8237TIP3   OH246201   3.338   1.021   5.580 -0.3800 -0.4467  0.4363
 8237TIP3    H146202   3.242   1.022   5.580 -0.3787  0.4670 -0.1200
 8237TIP3    H246203   3.362   1.062   5.663 -0.5079  3.3056 -1.1756
 8238TIP3   OH246204   5.382   4.570   1.085 -0.1962 -0.2166 -0.5191
 8238TIP3    H146205   5.312   4.537   1.142 -0.0128 -0.3832 -0.3876
 8238TIP3    H246206   5.405   4.655   1.123 -1.2448  0.4592 -1.3500
 8239TIP3   OH246207   3.682   4.334   4.750 -0.0706 -0.5192 -0.6924
 8239TIP3    H146208   3.728   4.353   4.832 -0.0284 -1.3698 -0.5045
 8239TIP3    H246209   3.637   4.251   4.767 -1.0148 -0.1104 -1.1531
 8240TIP3   OH246210   4.219   0.777  11.616  1.2489  0.2920  0.0069
 8240TIP3    H146211   4.132   0.768  11.656  1.2936  1.4944  0.4312
 8240TIP3    H246212   4.222   0.709  11.550  1.1856 -1.8197  2.0532
 8241TIP3   OH246213   3.846   2.299  16.975 -0.5619 -0.1698 -0.2151
 8241TIP3    H146214   3.775   2.288  17.038 -1.0459 -0.5335 -0.8126
 8241TIP3    H246215   3.926   2.283  17.026 -0.9454 -0.4881  0.2982
 8242TIP3   OH246216   5.648   0.736   0.743  0.3120  0.2428  0.2768
 8242TIP3    H146217   5.606   0.749   0.658 -0.1187  0.6421  0.5516
 8242TIP3    H246218   5.643   0.821   0.786 -0.2223 -0.1604  1.0436
 8243TIP3   OH246219   6.071   6.060  11.863 -0.6255 -0.2324  0.1059
 8243TIP3    H146220   6.142   6.005  11.831 -0.7641 -0.5645  0.3693
 8243TIP3    H246221   6.003   6.055  11.795  0.6831  2.3405 -1.5805
 8244TIP3   OH246222   3.019   1.625  16.027  0.6576  0.3475  0.0191
 8244TIP3    H146223   2.998   1.532  16.024  0.3339  0.4341 -0.5640
 8244TIP3    H246224   3.111   1.630  16.000  1.3390  0.0149  2.1063
 8245TIP3   OH246225   0.229   0.308   0.394  0.3538 -0.4069 -0.6211
 8245TIP3    H146226   0.258   0.397   0.414  0.0999 -0.2586 -0.8939
 8245TIP3    H246227   0.267   0.254   0.463 -0.7683  0.1213  0.4515
 8246TIP3   OH246228   3.709   3.844  13.081  0.1327 -0.4477  0.0497
 8246TIP3    H146229   3.752   3.828  13.166  3.5461  2.0773 -0.9963
 8246TIP3    H246230   3.646   3.914  13.099  0.6958 -0.0645  0.5955
 8247TIP3   OH246231   3.109   1.491   3.898 -0.3010  0.3575  0.1980
 8247TIP3    H146232   3.104   1.539   3.815 -0.7620  1.8858  1.0723
 8247TIP3    H246233   3.092   1.557   3.965  1.4248 -0.5465  1.6157
 8248TIP3   OH246234   6.107   1.789   2.259 -0.9712  0.0832 -0.3371
 8248TIP3    H146235   6.032   1.835   2.221  0.6325  1.2063 -2.2789
 8248TIP3    H246236   6.112   1.823   2.349 -1.0628  2.1970 -1.0770
 8249TIP3   OH246237   4.210   5.985  14.018 -0.3277 -0.2852  0.1449
 8249TIP3    H146238   4.188   6.052  14.083 -1.8290 -0.4832 -0.1119
 8249TIP3    H246239   4.130   5.932  14.011  0.0901 -0.7666 -1.2559
 8250TIP3   OH246240   5.777   4.182  12.473  0.0163  0.8904 -0.4728
 8250TIP3    H146241   5.811   4.098  12.442  1.5269  0.9479  0.8816
 8250TIP3    H246242   5.705   4.203  12.413 -0.3407 -1.3097 -0.8924
 8251TIP3   OH246243   3.200   1.473   2.605  0.3343  0.3756  0.8952
 8251TIP3    H146244   3.105   1.472   2.613  0.2427 -1.5676  0.1313
 8251TIP3    H246245   3.220   1.397   2.550  2.2455  1.3966  0.0712
 8252TIP3   OH246246   0.247   2.899   2.577  0.1529 -0.5933  0.5330
 8252TIP3    H146247   0.190   2.920   2.651 -0.9749 -1.0768 -0.1875
 8252TIP3    H246248   0.230   2.968   2.513  3.2040  1.5402  1.7352
 8253TIP3   OH246249   2.557   6.420   1.868  0.4841  0.2407 -0.4017
 8253TIP3    H146250   2.472   6.404   1.828  0.1614 -0.0559  0.3784
 8253TIP3    H246251   2.544   6.398   1.961  1.3339  0.4528 -0.2264
 8254TIP3   OH246252   5.114   6.747  11.378  0.4685 -0.8848 -0.1830
 8254TIP3    H146253   5.083   6.686  11.445  0.3172 -0.6558 -0.0399
 8254TIP3    H246254   5.049   6.740  11.308 -2.0120  2.1685  1.5515
 8255TIP3   OH246255   3.207   5.388  14.124 -0.0552  0.3124 -0.0203
 8255TIP3    H146256   3.232   5.296  14.113  2.1510  1.0200 -1.4616
 8255TIP3    H246257   3.283   5.438  14.093 -1.3145  2.6426  0.4201
 8256TIP3   OH246258   3.031   3.454   5.681 -0.5163 -0.3942  0.1324
 8256TIP3    H146259   2.951   3.436   5.633 -0.2266  1.1618 -1.0070
 8256TIP3    H246260   3.013   3.536   5.728  0.1185 -0.4832  0.5439
 8257TIP3   OH246261   3.570   6.258  15.146 -0.5086 -0.2769  0.3934
 8257TIP3    H146262   3.611   6.192  15.092  0.8962  1.6225 -1.0092
 8257TIP3    H246263   3.502   6.296  15.090 -1.9750 -1.1457  1.5245
 8258TIP3   OH246264   1.434   2.052  15.821 -0.0313  0.0206  0.2054
 8258TIP3    H146265   1.480   2.046  15.905 -0.0530  1.8368  0.3852
 8258TIP3    H246266   1.499   2.023  15.756  0.7760  0.8112  0.6413
 8259TIP3   OH246267   0.853   5.562  14.802  0.1942 -0.1288 -0.6178
 8259TIP3    H146268   0.904   5.620  14.858 -0.9085  0.0120  0.2718
 8259TIP3    H246269   0.905   5.482  14.796 -0.1645 -0.5905  1.5759
 8260TIP3   OH246270   0.426   2.896   5.107 -0.5122 -0.0786 -0.2046
 8260TIP3    H146271   0.505   2.847   5.085 -0.6795 -0.2591 -0.4120
 8260TIP3    H246272   0.442   2.929   5.196  0.5598  1.4464 -0.9121
 8261TIP3   OH246273   2.316   2.520   6.205 -0.3032 -0.3006  0.1622
 8261TIP3    H146274   2.359   2.446   6.162 -0.3455 -1.3256  1.8104
 8261TIP3    H246275   2.324   2.502   6.299  0.6694  2.3534  0.6731
 8262TIP3   OH246276   0.492   3.160  16.032  0.3383 -0.5529  0.0286
 8262TIP3    H146277   0.554   3.233  16.023 -0.7029  0.2880 -0.6599
 8262TIP3    H246278   0.454   3.150  15.945  1.3220 -2.7741 -0.2175
 8263TIP3   OH246279   2.890   1.556  10.530 -0.3863 -0.3618  0.4916
 8263TIP3    H146280   2.797   1.563  10.509 -0.5921  0.5726  1.6187
 8263TIP3    H246281   2.926   1.643  10.511  0.3695 -0.8455 -0.3897
 8264TIP3   OH246282   2.076   6.257  16.226 -0.2933 -0.1299  0.3979
 8264TIP3    H146283   2.099   6.349  16.237 -1.6896  0.2662  0.1699
 8264TIP3    H246284   2.160   6.213  16.211  0.2486  1.3690 -1.2819
 8265TIP3   OH246285   0.991   0.513  13.857 -0.1224 -0.0931 -0.2127
 8265TIP3    H146286   1.021   0.447  13.796 -0.5113 -0.8877  0.4323
 8265TIP3    H246287   1.057   0.582  13.852  0.7660 -0.9194 -0.2477
 8266TIP3   OH246288   1.121   0.928   0.166  0.0908  0.1326  0.0903
 8266TIP3    H146289   1.191   0.928   0.231  0.7851  0.6533 -0.6376
 8266TIP3    H246290   1.160   0.968   0.088 -1.3655  1.5496  0.0440
 8267TIP3   OH246291   0.900   1.679  14.705  0.0365  0.2509 -0.9290
 8267TIP3    H146292   0.848   1.757  14.685 -0.5139  0.4642  1.0697
 8267TIP3    H246293   0.990   1.705  14.690 -0.1690  1.1960 -0.5879
 8268TIP3   OH246294   0.520   3.506   6.610  0.1825  0.8008  0.1311
 8268TIP3    H146295   0.484   3.567   6.674 -0.4697  1.0799 -0.4837
 8268TIP3    H246296   0.529   3.424   6.658 -0.9130  0.8296  0.4215
 8269TIP3   OH246297   2.248   4.350  15.328 -0.6095  0.1650  0.0016
 8269TIP3    H146298   2.304   4.276  15.353 -0.3698  0.3493  0.0053
 8269TIP3    H246299   2.238   4.341  15.233 -1.9039 -0.8098  0.1890
 8270TIP3   OH246300   2.300   3.319  14.793 -0.2649  0.2916  0.4857
 8270TIP3    H146301   2.256   3.236  14.776  0.9691 -0.2811 -0.0213
 8270TIP3    H246302   2.230   3.384  14.795 -1.5139 -1.0096  2.8627
 8271TIP3   OH246303   6.322   6.663   5.504  0.2469  0.1149 -0.5430
 8271TIP3    H146304   6.257   6.605   5.464 -1.5758  0.9329  1.0876
 8271TIP3    H246305   6.286   6.684   5.590  2.2261  1.4129  0.0350
 8272TIP3   OH246306   6.755   0.540   1.272  0.7507  0.5068  0.4054
 8272TIP3    H146307   6.783   0.502   1.189 -2.3731 -0.8849 -0.1617
 8272TIP3    H246308   6.751   0.466   1.332  0.9764  1.1509  1.2430
 8273TIP3   OH246309   3.117   4.718  11.467 -0.1165 -0.0765 -0.0168
 8273TIP3    H146310   3.096   4.642  11.412 -1.9166  0.8108 -0.6688
 8273TIP3    H246311   3.151   4.681  11.548  0.4184 -1.5087 -0.8527
 8274TIP3   OH246312   5.387   6.195   0.188  0.2749 -0.2210  0.4183
 8274TIP3    H146313   5.447   6.150   0.246  0.9374  2.2756  1.7949
 8274TIP3    H246314   5.403   6.288   0.203 -2.7237  0.5611 -0.4215
 8275TIP3   OH246315   3.719   6.095  12.959 -0.3371 -0.4390 -0.2613
 8275TIP3    H146316   3.736   6.154  13.033  0.9606 -2.1085  0.8713
 8275TIP3    H246317   3.674   6.020  12.999  2.4943 -2.4788 -0.5874
 8276TIP3   OH246318   0.223   2.765  16.797 -0.2147 -0.3954 -0.4607
 8276TIP3    H146319   0.246   2.783  16.706  0.1421 -3.0167 -0.9579
 8276TIP3    H246320   0.275   2.828  16.847 -1.6836  2.2554 -2.0649
 8277TIP3   OH246321   5.953   1.692   3.217 -0.4198  0.5771  0.0569
 8277TIP3    H146322   5.862   1.698   3.190 -0.0614 -0.8560 -1.6165
 8277TIP3    H246323   6.003   1.728   3.144  0.3688  3.6225  1.8755
 8278TIP3   OH246324   2.515   4.015   1.509 -0.4818  0.3420 -0.0593
 8278TIP3    H146325   2.441   3.985   1.456 -1.1195  0.1553  0.8873
 8278TIP3    H246326   2.527   3.945   1.574 -2.4821  2.3366  2.6763
 8279TIP3   OH246327   1.486   4.087   0.162 -0.2048 -0.7647  0.1955
 8279TIP3    H146328   1.558   4.106   0.102  1.1623  0.0165  1.9692
 8279TIP3    H246329   1.520   4.018   0.220 -0.4769  0.2558  1.6420
 8280TIP3   OH246330   4.666   4.579  12.498 -0.1685  0.6824  0.7129
 8280TIP3    H146331   4.694   4.622  12.417  1.8104 -2.3297 -0.3957
 8280TIP3    H246332   4.572   4.594  12.503  0.0777  3.2076 -0.6496
 8281TIP3   OH246333   6.399   5.669   2.724  0.5210  0.0033  0.1580
 8281TIP3    H146334   6.340   5.676   2.649  1.2132 -0.4243 -0.4341
 8281TIP3    H246335   6.438   5.582   2.716 -0.7012 -0.7652  2.0056
 8282TIP3   OH246336   0.374   1.735   0.885 -0.3171  0.1342 -0.5716
 8282TIP3    H146337   0.300   1.756   0.829 -0.1669  0.0734 -0.7938
 8282TIP3    H246338   0.338   1.675   0.951 -0.1895 -0.8779 -1.4110
 8283TIP3   OH246339   1.937   5.944   6.075 -0.6852  0.1645 -0.2971
 8283TIP3    H146340   1.948   6.017   6.015  0.4026 -0.0440 -0.3741
 8283TIP3    H246341   1.849   5.912   6.058 -0.1229 -0.4130 -2.3806
 8284TIP3   OH246342   1.749   1.656   2.836 -0.3184  0.2864 -0.3202
 8284TIP3    H146343   1.669   1.628   2.880 -0.7003  0.4720 -0.8864
 8284TIP3    H246344   1.810   1.675   2.907 -0.2412 -1.3730  0.0952
 8285TIP3   OH246345   2.054   5.576   5.360  0.1908  0.2900 -0.0576
 8285TIP3    H146346   2.058   5.484   5.336 -1.5037  0.4999 -1.3775
 8285TIP3    H246347   2.040   5.622   5.277 -1.3568  1.4919  0.8154
 8286TIP3   OH246348   6.029   2.202   3.143  0.2178 -0.2219 -0.4399
 8286TIP3    H146349   6.086   2.154   3.203 -1.6085 -1.3818  0.4437
 8286TIP3    H246350   6.004   2.281   3.192  2.3568  1.2104 -1.4882
 8287TIP3   OH246351   5.873   6.450  12.154  0.0252 -0.4018 -0.1278
 8287TIP3    H146352   5.964   6.425  12.135 -0.1199 -0.8918 -0.1888
 8287TIP3    H246353   5.831   6.369  12.181  0.1750  0.1962  2.1470
 8288TIP3   OH246354   3.450   4.792  16.304 -0.7267 -0.2784  0.1076
 8288TIP3    H146355   3.440   4.724  16.371  1.1943 -1.8265 -1.0409
 8288TIP3    H246356   3.378   4.777  16.243 -1.4775  0.0273  0.9140
 8289TIP3   OH246357   3.085   5.473   1.932 -0.0611  0.4722 -0.3253
 8289TIP3    H146358   3.102   5.463   1.838  0.4821 -0.5534 -0.1397
 8289TIP3    H246359   3.141   5.407   1.973 -1.0773  0.1840  0.6519
 8290TIP3   OH246360   6.329   5.414  16.394  0.5462  0.0129 -0.1648
 8290TIP3    H146361   6.292   5.502  16.401 -1.8950 -1.0279  1.0686
 8290TIP3    H246362   6.325   5.394  16.300  0.6374  1.0162 -0.3919
 8291TIP3   OH246363   5.557   0.820   2.845  0.0405 -0.3052 -0.4089
 8291TIP3    H146364   5.522   0.904   2.815 -0.0163 -0.4337 -0.7035
 8291TIP3    H246365   5.495   0.755   2.811  0.1579 -0.4770 -0.2951
 8292TIP3   OH246366   5.374   1.273  16.198  0.0958 -0.3309  0.1936
 8292TIP3    H146367   5.421   1.194  16.174  0.8334 -0.7056  2.5796
 8292TIP3    H246368   5.289   1.243  16.230  0.1684 -0.1173  0.5971
 8293TIP3   OH246369   0.110   6.268   0.447 -0.2828 -0.2621 -0.2474
 8293TIP3    H146370   0.168   6.298   0.517 -1.9501 -0.0267  1.1046
 8293TIP3    H246371   0.113   6.172   0.452  0.0630 -0.2524 -0.2580
 8294TIP3   OH246372   1.317   0.265   3.014 -0.2535  0.5173 -0.1730
 8294TIP3    H146373   1.287   0.187   3.062 -1.4745  1.4281  0.6168
 8294TIP3    H246374   1.349   0.231   2.931 -0.0182 -0.9079  0.4742
 8295TIP3   OH246375   1.366   0.885  10.436 -0.0874  0.6699  0.1354
 8295TIP3    H146376   1.342   0.977  10.430 -0.0760  0.6390 -0.5845
 8295TIP3    H246377   1.461   0.885  10.437 -0.0899  0.6863  0.6736
 8296TIP3   OH246378   1.331   3.776  14.701 -0.2656 -0.0220  0.3834
 8296TIP3    H146379   1.280   3.805  14.777 -1.5524 -2.4456  0.5416
 8296TIP3    H246380   1.299   3.828  14.628  0.1213  1.4747  1.2416
 8297TIP3   OH246381   5.630   2.226  15.865 -0.4760 -0.9348 -0.8386
 8297TIP3    H146382   5.605   2.183  15.947 -0.1559 -1.8484 -1.2062
 8297TIP3    H246383   5.630   2.155  15.800  1.7876 -0.7515 -1.1054
 8298TIP3   OH246384   1.383   3.504  15.431 -0.1755 -0.6903 -0.0657
 8298TIP3    H146385   1.433   3.503  15.512 -0.1121  1.5182 -0.0075
 8298TIP3    H246386   1.443   3.543  15.367 -0.9197 -0.4757 -0.6436
 8299TIP3   OH246387   4.079   0.912   1.473  0.4360  0.2332  0.0778
 8299TIP3    H146388   4.056   0.955   1.556 -1.8013 -1.5067  0.4508
 8299TIP3    H246389   4.160   0.956   1.445 -0.0084  2.4674  1.9747
 8300TIP3   OH246390   3.093   2.814  16.764 -0.7340 -0.0447 -0.4362
 8300TIP3    H146391   3.147   2.871  16.709  0.5334 -0.5126  0.2590
 8300TIP3    H246392   3.078   2.866  16.844 -1.2560  0.0512 -0.5939
 8301TIP3   OH246393   2.575   5.464   5.701  0.3828 -0.5334  0.2374
 8301TIP3    H146394   2.547   5.488   5.790 -0.3603 -2.5803  0.6317
 8301TIP3    H246395   2.519   5.515   5.643  0.5953  0.5292  0.9503
 8302TIP3   OH246396   5.127   4.330  12.644  0.6379  0.3256  0.5608
 8302TIP3    H146397   5.171   4.333  12.559 -0.4594  0.0355 -0.0389
 8302TIP3    H246398   5.034   4.335  12.622  0.2047 -2.1038  1.5765
 8303TIP3   OH246399   3.342   5.568  16.359  0.4103 -0.2577 -0.0848
 8303TIP3    H146400   3.354   5.473  16.356  0.1404 -0.2734 -0.5836
 8303TIP3    H246401   3.377   5.600  16.276 -0.3529 -0.0097 -0.3144
 8304TIP3   OH246402   1.410   4.427  16.196  0.1149  0.4515  0.0055
 8304TIP3    H146403   1.327   4.455  16.235 -0.6363 -1.3778 -0.1738
 8304TIP3    H246404   1.440   4.356  16.254  0.6231 -0.1011 -0.9160
 8305TIP3   OH246405   1.801   4.260  13.017  0.1646 -0.1496  0.6475
 8305TIP3    H146406   1.748   4.243  12.940  2.0651  0.9484 -1.0120
 8305TIP3    H246407   1.813   4.174  13.057 -0.0968 -0.9074 -0.8287
 8306TIP3   OH246408   3.883   3.429  13.320 -0.1190  0.1240  0.0645
 8306TIP3    H146409   3.815   3.435  13.253 -0.6574 -0.9618  0.4894
 8306TIP3    H246410   3.965   3.444  13.273 -0.4807 -0.6873 -0.8575
 8307TIP3   OH246411   4.163   5.852  11.219 -0.1715  0.3136 -0.5366
 8307TIP3    H146412   4.199   5.920  11.276 -0.8918  0.8331 -0.6827
 8307TIP3    H246413   4.110   5.798  11.278  1.7947 -1.2147 -0.0687
 8308TIP3   OH246414   2.987   2.699   5.702 -0.1863 -0.2828 -0.3777
 8308TIP3    H146415   2.899   2.731   5.682 -0.3164 -0.6466 -0.3893
 8308TIP3    H246416   3.005   2.635   5.633  0.0040 -0.3598 -0.2557
 8309TIP3   OH246417   6.441   0.836   1.160  0.0524  0.2433  0.2151
 8309TIP3    H146418   6.386   0.816   1.084 -0.1253  0.1863  0.3580
 8309TIP3    H246419   6.459   0.930   1.153  0.8087  0.0629 -0.4052
 8310TIP3   OH246420   4.794   5.449  15.342  0.1537 -0.3115  0.1507
 8310TIP3    H146421   4.847   5.475  15.266  1.5729 -0.0854  1.1720
 8310TIP3    H246422   4.858   5.431  15.411 -1.0886 -0.6858  1.2517
 8311TIP3   OH246423   6.153   5.189   3.630  0.1996 -0.5688  0.0861
 8311TIP3    H146424   6.179   5.281   3.637 -2.8547  0.3397  0.6401
 8311TIP3    H246425   6.134   5.176   3.537 -1.4277  0.0267  0.3108
 8312TIP3   OH246426   4.598   3.587  12.709 -0.4592 -0.4619  0.4715
 8312TIP3    H146427   4.542   3.646  12.658  0.8908  0.5159  0.0525
 8312TIP3    H246428   4.577   3.607  12.800 -0.7912 -0.1013  0.3179
 8313TIP3   OH246429   0.581   4.426  15.130  0.3760  0.3686  0.6280
 8313TIP3    H146430   0.487   4.428  15.110  0.5006  0.1163 -0.0001
 8313TIP3    H246431   0.623   4.455  15.049  0.8164  1.0990  1.1103
 8314TIP3   OH246432   6.205   3.032   3.792  0.4572 -0.6923  0.4326
 8314TIP3    H146433   6.119   3.034   3.750 -0.7841 -1.0868  2.7783
 8314TIP3    H246434   6.258   3.092   3.740 -1.9583  1.5530  0.3582
 8315TIP3   OH246435   4.011   6.101  14.985 -1.1568 -0.0466 -1.1477
 8315TIP3    H146436   4.082   6.038  14.972 -0.9752 -0.5042  1.5933
 8315TIP3    H246437   3.931   6.048  14.978 -1.1069 -0.1232 -1.1348
 8316TIP3   OH246438   6.712   2.188  10.194  0.2092 -0.4557  0.2924
 8316TIP3    H146439   6.713   2.124  10.266 -1.2734  0.8079  1.5369
 8316TIP3    H246440   6.729   2.272  10.237 -1.1369  0.3887 -0.7381
 8317TIP3   OH246441   1.828   6.522  16.857 -0.0773 -0.2049  0.9851
 8317TIP3    H146442   1.791   6.481  16.935 -0.6999 -1.0955  0.2342
 8317TIP3    H246443   1.889   6.458  16.822 -0.5296 -0.2309  0.2014
 8318TIP3   OH246444   3.818   3.008  14.824 -0.4798 -0.3896  0.2130
 8318TIP3    H146445   3.864   2.993  14.906 -1.1974  0.7882  0.8629
 8318TIP3    H246446   3.737   3.052  14.850 -1.5961 -1.6482 -0.9707
 8319TIP3   OH246447   5.545   6.439   5.175 -0.4504  0.1549  0.4420
 8319TIP3    H146448   5.559   6.503   5.245  0.4536  0.7606 -0.2713
 8319TIP3    H246449   5.471   6.474   5.125 -1.1678 -0.3327  1.1253
 8320TIP3   OH246450   5.962   6.265   2.481 -0.7292 -0.1313 -0.1546
 8320TIP3    H146451   6.030   6.304   2.536 -0.0719 -1.4161 -0.0358
 8320TIP3    H246452   5.909   6.340   2.453 -0.8006  0.6255  1.8214
 8321TIP3   OH246453   6.046   5.622  15.569  0.0376  0.1680  0.5621
 8321TIP3    H146454   5.976   5.584  15.622  0.7377 -1.3021  0.4882
 8321TIP3    H246455   6.102   5.548  15.547  1.2001  1.1849 -0.0268
 8322TIP3   OH246456   6.266   3.363  14.920  0.0911 -0.2951 -0.1890
 8322TIP3    H146457   6.287   3.309  14.996 -1.8255  0.3142  0.8373
 8322TIP3    H246458   6.228   3.301  14.857 -1.6888 -0.2951  0.8116
 8323TIP3   OH246459   0.426   1.075   1.467 -0.2345  0.1959 -0.9637
 8323TIP3    H146460   0.447   0.994   1.514  2.2973  0.8867 -0.7760
 8323TIP3    H246461   0.380   1.128   1.532  0.6343 -0.0007 -0.1624
 8324TIP3   OH246462   2.033   2.378   4.803 -0.0629  0.0430 -0.6525
 8324TIP3    H146463   2.114   2.328   4.808  0.7032  1.2475 -0.5929
 8324TIP3    H246464   1.996   2.356   4.718  0.0798 -0.8612 -0.4957
 8325TIP3   OH246465   2.631   5.285  16.985  0.0205  0.3423 -0.4147
 8325TIP3    H146466   2.707   5.234  16.957  0.0745  0.4592 -0.4814
 8325TIP3    H246467   2.572   5.221  17.024 -0.6916 -0.0725 -2.0861
 8326TIP3   OH246468   3.919   3.502  12.459  0.0446 -0.4051  0.3000
 8326TIP3    H146469   3.832   3.539  12.448  0.4222  0.1652 -0.9295
 8326TIP3    H246470   3.945   3.474  12.371  1.2186 -0.2829  0.5911
 8327TIP3   OH246471   2.773   2.614  14.408 -0.4548  0.0652  0.0856
 8327TIP3    H146472   2.683   2.582  14.417 -0.4795 -0.2348 -1.0471
 8327TIP3    H246473   2.770   2.673  14.333  0.3628 -0.1873 -0.1502
 8328TIP3   OH246474   5.506   2.436   1.911  0.2611  0.2663 -0.4301
 8328TIP3    H146475   5.484   2.431   1.818  1.8101  0.0118 -0.8191
 8328TIP3    H246476   5.575   2.502   1.916  1.4031 -0.9128  0.2645
 8329TIP3   OH246477   4.204   4.273   4.343 -0.5219 -0.0197 -0.7036
 8329TIP3    H146478   4.209   4.297   4.435 -0.6911  0.0536 -0.7127
 8329TIP3    H246479   4.138   4.204   4.340  1.0523 -1.6082 -0.4536
 8330TIP3   OH246480   6.286   4.679   4.730  0.2731 -0.3803  0.2672
 8330TIP3    H146481   6.330   4.648   4.810 -2.3741 -0.9619  1.6117
 8330TIP3    H246482   6.339   4.642   4.659  1.0141 -2.4978  1.7826
 8331TIP3   OH246483   5.536   5.277   1.700  0.0921 -0.5598  0.7835
 8331TIP3    H146484   5.481   5.212   1.655 -0.3813  0.3048  0.0650
 8331TIP3    H246485   5.623   5.236   1.704  0.0751 -0.7995 -0.6708
 8332TIP3   OH246486   3.066   5.655   4.481  0.2259  0.3044  0.2378
 8332TIP3    H146487   3.102   5.743   4.491  3.4374 -1.0016  1.3320
 8332TIP3    H246488   3.141   5.596   4.491 -2.0257 -2.6690  1.2910
 8333TIP3   OH246489   0.670   3.119  12.232 -0.2535  0.5179 -0.2157
 8333TIP3    H146490   0.719   3.192  12.195 -1.7530  1.3553 -0.6330
 8333TIP3    H246491   0.664   3.056  12.160  2.6643 -0.9556  0.6824
 8334TIP3   OH246492   0.232   0.877  14.189 -0.4469  0.3136 -0.0624
 8334TIP3    H146493   0.211   0.886  14.282 -0.9855  1.0935 -0.2515
 8334TIP3    H246494   0.323   0.904  14.182  0.5798 -2.6021  0.6870
 8335TIP3   OH246495   6.575   6.805   0.316  0.0274  0.4303 -0.2427
 8335TIP3    H146496   6.600   6.876   0.375 -0.0566 -0.1411  0.4863
 8335TIP3    H246497   6.493   6.772   0.351 -0.6060  0.7895 -1.3124
 8336TIP3   OH246498   3.814   4.524   5.320 -0.2802 -0.3405  0.0136
 8336TIP3    H146499   3.729   4.566   5.310 -0.6486 -0.4716  2.0653
 8336TIP3    H246500   3.793   4.432   5.336  0.1718 -0.2092  1.4771
 8337TIP3   OH246501   1.237   2.045   3.354 -0.0047 -0.3935  0.2552
 8337TIP3    H146502   1.260   2.132   3.388  0.5233 -0.5580  0.3411
 8337TIP3    H246503   1.264   2.047   3.262  0.4315 -0.6061  0.3705
 8338TIP3   OH246504   6.192   5.699   0.310  0.0715  0.0512 -0.3776
 8338TIP3    H146505   6.115   5.743   0.346  1.4054  2.4749 -0.2330
 8338TIP3    H246506   6.232   5.765   0.253  2.3741 -0.8727  0.0743
 8339TIP3   OH246507   3.851   2.235   0.933 -0.2049 -0.1127  0.0710
 8339TIP3    H146508   3.876   2.301   0.998 -1.0031  0.7057 -0.4158
 8339TIP3    H246509   3.844   2.154   0.982  2.8380 -0.3281  0.3388
 8340TIP3   OH246510   1.691   4.031  15.908  0.0912  0.5299  0.3727
 8340TIP3    H146511   1.704   3.936  15.899  0.8680  0.5781  0.8683
 8340TIP3    H246512   1.597   4.044  15.895 -0.0592 -0.3374  0.5328
 8341TIP3   OH246513   5.192   2.493  16.393 -0.7292  0.0549  0.0802
 8341TIP3    H146514   5.155   2.490  16.481  1.2474 -1.5550  0.9446
 8341TIP3    H246515   5.212   2.401  16.373 -1.5703  0.3229 -2.2682
 8342TIP3   OH246516   5.512   5.377   5.106 -0.2273  0.3749  0.0110
 8342TIP3    H146517   5.573   5.331   5.164 -1.3424  1.0576  1.8294
 8342TIP3    H246518   5.491   5.457   5.153 -1.4502  0.8029 -1.2058
 8343TIP3   OH246519   3.555   0.144   4.332  0.2942 -0.3746 -0.3398
 8343TIP3    H146520   3.499   0.078   4.373 -0.6685  0.7474  0.2572
 8343TIP3    H246521   3.558   0.121   4.240 -1.5121 -0.2556 -0.4557
 8344TIP3   OH246522   4.883   5.106  14.231  0.0437  0.1300  0.2061
 8344TIP3    H146523   4.944   5.078  14.299  0.3174 -1.6613 -0.7170
 8344TIP3    H246524   4.829   5.029  14.215 -0.5540  0.7871 -1.0273
 8345TIP3   OH246525   0.274   2.718  13.817 -0.0122  0.5622 -0.1755
 8345TIP3    H146526   0.220   2.735  13.895  0.3123  0.1249  0.1521
 8345TIP3    H246527   0.282   2.803  13.774  1.6712  1.3073  1.4599
 8346TIP3   OH246528   2.647   0.247  16.501  0.2021 -0.0074  0.1861
 8346TIP3    H146529   2.622   0.335  16.531  0.2727  0.4322 -0.9809
 8346TIP3    H246530   2.582   0.189  16.541  0.7824  0.4149  1.8450
 8347TIP3   OH246531   5.274   1.432  13.182  0.0691  0.2888  0.0889
 8347TIP3    H146532   5.322   1.481  13.114  2.0606  1.4566  2.1812
 8347TIP3    H246533   5.272   1.342  13.150  0.5406  0.8656 -1.6953
 8348TIP3   OH246534   1.517   0.575   5.148  0.8154  0.3906 -0.6215
 8348TIP3    H146535   1.565   0.532   5.078 -0.6532  0.4182 -1.6898
 8348TIP3    H246536   1.543   0.528   5.227  2.7031  0.5287 -1.1092
 8349TIP3   OH246537   0.993   4.647  13.649  1.1232 -0.5339  0.0145
 8349TIP3    H146538   1.018   4.583  13.716  0.4146  0.1594  0.9796
 8349TIP3    H246539   0.916   4.608  13.606 -0.7172  0.5460  2.0903
 8350TIP3   OH246540   3.619   2.945   1.150  0.4104  0.0022 -0.1935
 8350TIP3    H146541   3.673   3.000   1.206 -0.6508 -0.5837  1.4534
 8350TIP3    H246542   3.589   2.874   1.206 -0.6657 -0.6439 -1.5068
 8351TIP3   OH246543   5.594   5.061   5.159  0.0380 -0.5769 -0.1601
 8351TIP3    H146544   5.638   5.102   5.084  1.8881 -0.6088  0.8390
 8351TIP3    H246545   5.625   5.110   5.235  1.1319 -2.8005  0.9323
 8352TIP3   OH246546   5.169   1.455   4.965  0.6257 -0.4974  0.7074
 8352TIP3    H146547   5.150   1.393   4.895  1.6242 -2.1952  1.8605
 8352TIP3    H246548   5.264   1.465   4.964  0.4090  3.1452 -1.1087
 8353TIP3   OH246549   1.891   5.335   0.565 -0.0083 -0.1750  0.2335
 8353TIP3    H146550   1.926   5.397   0.501 -2.0972 -1.0800 -1.9637
 8353TIP3    H246551   1.892   5.383   0.648 -0.8079  2.5657 -1.1990
 8354TIP3   OH246552   5.610   1.615   1.012 -0.5281  0.1295 -0.0886
 8354TIP3    H146553   5.656   1.650   0.936  2.3481  0.1980  1.5466
 8354TIP3    H246554   5.590   1.524   0.989  0.8035 -0.0164 -0.7736
 8355TIP3   OH246555   2.823   4.228   3.369  0.0249 -0.2126  0.2516
 8355TIP3    H146556   2.847   4.269   3.286 -2.3950  0.7886 -0.0569
 8355TIP3    H246557   2.838   4.296   3.434  2.2710 -1.1176  0.7551
 8356TIP3   OH246558   1.081   4.769  15.330  0.1918 -0.0676 -0.2469
 8356TIP3    H146559   1.132   4.695  15.299 -1.4323 -2.4770  2.3801
 8356TIP3    H246560   1.039   4.804  15.251  0.7463 -2.1575 -1.5424
 8357TIP3   OH246561   1.250   6.736  17.123  0.3693  0.0405 -0.0349
 8357TIP3    H146562   1.201   6.748  17.204 -1.2330 -0.7150 -0.8417
 8357TIP3    H246563   1.208   6.661  17.080  0.2123  1.2982 -2.2477
 8358TIP3   OH246564   1.675   0.979  12.246 -0.0616  0.2354  0.0595
 8358TIP3    H146565   1.620   1.011  12.317 -0.6093 -1.1125  0.2925
 8358TIP3    H246566   1.620   0.990  12.167  0.4252  1.4446 -0.1165
 8359TIP3   OH246567   3.768   1.623   4.769 -0.2835  0.0282  0.1371
 8359TIP3    H146568   3.777   1.717   4.751 -2.3160  0.1886 -0.2926
 8359TIP3    H246569   3.796   1.613   4.860 -3.4418  1.7594  1.4521
 8360TIP3   OH246570   3.833   1.686   3.444 -0.1160 -1.0312  0.2737
 8360TIP3    H146571   3.896   1.620   3.473  0.7257  0.0244  0.9414
 8360TIP3    H246572   3.777   1.700   3.521  0.0918 -0.5273  0.3311
 8361TIP3   OH246573   6.262   5.350   2.173 -0.5000 -0.0818 -0.2435
 8361TIP3    H146574   6.339   5.406   2.187 -0.2446 -0.0244 -1.7488
 8361TIP3    H246575   6.271   5.282   2.240 -0.5224  1.3232  1.2652
 8362TIP3   OH246576   5.834   5.538   5.272  0.4183  0.3629 -0.1377
 8362TIP3    H146577   5.814   5.579   5.356  1.0333  0.5272 -0.0614
 8362TIP3    H246578   5.880   5.457   5.295 -0.1058  0.0125 -0.3046
 8363TIP3   OH246579   5.464   2.503  10.840  0.5038  0.2342 -0.0418
 8363TIP3    H146580   5.434   2.592  10.860  2.2277  0.4526  1.8610
 8363TIP3    H246581   5.557   2.513  10.822  0.2129 -0.8655 -2.5845
 8364TIP3   OH246582   2.220   3.483  12.006  0.5039  0.1320 -0.2831
 8364TIP3    H146583   2.156   3.502  12.075  1.4933 -0.2662  0.7777
 8364TIP3    H246584   2.254   3.569  11.981 -0.0963  0.3067 -0.5306
 8365TIP3   OH246585   0.478   4.910  15.576 -0.0524  0.4121  0.0008
 8365TIP3    H146586   0.425   4.833  15.597  2.1678 -1.2766 -0.2299
 8365TIP3    H246587   0.482   4.958  15.658 -0.4444 -0.3877  0.5067
 8366TIP3   OH246588   1.570   3.276   2.503 -0.1107  0.0837  0.3078
 8366TIP3    H146589   1.547   3.353   2.451 -0.9318  0.6985  1.5527
 8366TIP3    H246590   1.533   3.202   2.454  0.8336  0.4286 -0.9900
 8367TIP3   OH246591   3.081   1.424  11.238  0.2871  0.4350 -0.3128
 8367TIP3    H146592   3.092   1.497  11.299 -1.3494  1.0868 -0.7650
 8367TIP3    H246593   3.127   1.452  11.159 -1.0812  1.3910 -0.7968
 8368TIP3   OH246594   4.000   2.715  14.195 -0.1550 -0.5490  0.1309
 8368TIP3    H146595   4.088   2.697  14.162  0.1117  2.1361 -0.8687
 8368TIP3    H246596   4.014   2.773  14.269 -1.0138  3.9820 -2.8804
 8369TIP3   OH246597   2.758   0.322   4.433 -0.5448  0.2018 -0.1806
 8369TIP3    H146598   2.794   0.333   4.521  0.8696  0.5066 -0.7818
 8369TIP3    H246599   2.825   0.356   4.375 -1.9782  1.1671 -1.3390
 8370TIP3   OH246600   4.384   4.710   3.630 -0.1603  0.3021  0.4209
 8370TIP3    H146601   4.469   4.686   3.667 -0.4149 -0.6521  0.3929
 8370TIP3    H246602   4.400   4.715   3.536  0.3563  2.2027  0.5630
 8371TIP3   OH246603   3.406   4.014   2.177 -0.4921 -0.5874  0.0858
 8371TIP3    H146604   3.443   4.101   2.196 -0.7601 -0.3179 -0.5834
 8371TIP3    H246605   3.317   4.033   2.146 -0.6425 -1.1225  0.1880
 8372TIP3   OH246606   4.567   1.927  10.686  0.2783 -0.0412 -0.1774
 8372TIP3    H146607   4.531   1.897  10.602 -2.5014  1.2077  0.4454
 8372TIP3    H246608   4.572   1.847  10.739 -1.8674 -0.3144 -0.2818
 8373TIP3   OH246609   4.858   5.870   3.174  0.1737 -0.0677 -0.1218
 8373TIP3    H146610   4.768   5.903   3.173 -0.2268 -1.0861  0.7545
 8373TIP3    H246611   4.865   5.822   3.256  1.3904 -0.3836 -0.3898
 8374TIP3   OH246612   0.191   1.985  14.426 -0.1992  0.2371  0.5603
 8374TIP3    H146613   0.115   2.031  14.390 -0.4230 -1.7044 -1.7098
 8374TIP3    H246614   0.193   2.010  14.518 -2.0480  2.3440  0.1245
 8375TIP3   OH246615   4.139   0.726   4.281  0.3033  1.1068  0.2247
 8375TIP3    H146616   4.172   0.685   4.201  0.3587  2.7280 -0.6227
 8375TIP3    H246617   4.082   0.660   4.320  0.0443  0.3802 -1.3047
 8376TIP3   OH246618   0.364   0.458  14.549  0.3088 -1.4635  0.2869
 8376TIP3    H146619   0.275   0.439  14.520 -0.0543  0.9306 -0.3646
 8376TIP3    H246620   0.354   0.488  14.640  0.2075  0.1576 -0.2202
 8377TIP3   OH246621   1.523   4.059  13.219 -0.6380 -0.8828 -0.0890
 8377TIP3    H146622   1.431   4.032  13.223 -0.5157 -1.5506 -1.4274
 8377TIP3    H246623   1.538   4.082  13.128 -0.1921  1.9389  0.5994
 8378TIP3   OH246624   1.572   6.192  12.186  0.4547  0.3500 -0.0242
 8378TIP3    H146625   1.541   6.112  12.142 -0.8531  0.2116  1.0974
 8378TIP3    H246626   1.611   6.162  12.268 -0.0561  0.8679  0.4143
 8379TIP3   OH246627   0.879   5.218  16.158  0.0497 -0.2587  0.1677
 8379TIP3    H146628   0.970   5.206  16.184  0.3094 -0.5979 -0.8741
 8379TIP3    H246629   0.865   5.313  16.167  0.4946 -0.2058  0.3562
 8380TIP3   OH246630   4.719   4.691   3.476 -0.1556 -0.4432  0.0887
 8380TIP3    H146631   4.678   4.673   3.560 -0.6996  0.0134 -0.0658
 8380TIP3    H246632   4.793   4.631   3.471  0.2297 -0.0714  1.1468
 8381TIP3   OH246633   0.258   5.134   0.835 -0.2575 -0.4483 -0.4558
 8381TIP3    H146634   0.172   5.103   0.864 -0.8081  0.6100 -0.8955
 8381TIP3    H246635   0.241   5.174   0.750  0.2726  1.6292  0.3584
 8382TIP3   OH246636   3.827   1.380  10.508 -0.3275  0.8557 -0.0230
 8382TIP3    H146637   3.805   1.323  10.581 -0.5512  2.0137  0.8426
 8382TIP3    H246638   3.742   1.406  10.472 -0.2377  0.9590 -0.1605
 8383TIP3   OH246639   3.323   1.795   1.279 -0.8143  0.3843 -0.2164
 8383TIP3    H146640   3.251   1.780   1.341 -0.1518 -0.1200  0.4459
 8383TIP3    H246641   3.359   1.708   1.262  0.6084  0.7762  0.6434
 8384TIP3   OH246642   1.653   3.684  16.176 -0.6809  0.0305 -0.6103
 8384TIP3    H146643   1.652   3.638  16.260  0.4865  0.1479 -0.5148
 8384TIP3    H246644   1.623   3.773  16.197 -0.9278 -0.0998 -0.4154
 8385TIP3   OH246645   5.735   0.803  16.200 -0.0695 -0.7569  0.5067
 8385TIP3    H146646   5.766   0.716  16.222  1.6822  0.2570  2.3590
 8385TIP3    H246647   5.760   0.815  16.108 -0.2199 -2.1204  0.2697
 8386TIP3   OH246648   1.254   4.919   2.985  0.0310 -0.1467  0.0449
 8386TIP3    H146649   1.265   4.866   3.064  2.7474  1.8135  1.1364
 8386TIP3    H246650   1.341   4.921   2.945 -0.3993  1.9492 -0.9544
 8387TIP3   OH246651   0.889   5.097  13.003  0.2985  0.1164 -0.3709
 8387TIP3    H146652   0.869   5.017  12.954 -1.3002 -0.0602  0.4850
 8387TIP3    H246653   0.860   5.168  12.945 -0.6336 -0.0517 -0.1386
 8388TIP3   OH246654   1.077   1.228  11.271 -0.0628  0.3314 -0.0183
 8388TIP3    H146655   1.025   1.278  11.207 -1.4129 -2.3270 -1.1414
 8388TIP3    H246656   1.030   1.239  11.353 -0.9171  0.0952 -0.4640
 8389TIP3   OH246657   1.293   1.416  12.518  0.2375 -0.3502  0.1096
 8389TIP3    H146658   1.310   1.477  12.590  0.1685 -0.6348  0.3638
 8389TIP3    H246659   1.291   1.330  12.559  1.1959 -0.6222 -0.3810
 8390TIP3   OH246660   3.979   1.757   0.472 -0.6173  0.2325  0.4105
 8390TIP3    H146661   4.026   1.834   0.439  1.0316 -1.2487 -0.8800
 8390TIP3    H246662   3.889   1.771   0.446 -0.4123  1.8590  0.4645
 8391TIP3   OH246663   4.894   4.212   1.701  0.2433 -0.2731 -0.0698
 8391TIP3    H146664   4.948   4.144   1.741  0.9686  0.3756  0.0795
 8391TIP3    H246665   4.843   4.248   1.773 -0.2724 -0.7626 -0.1793
 8392TIP3   OH246666   2.338   4.829   1.039 -0.1015 -0.0408  0.3759
 8392TIP3    H146667   2.282   4.754   1.058  1.1900 -1.2025 -0.2084
 8392TIP3    H246668   2.419   4.790   1.005  1.3729  1.4995  1.9032
 8393TIP3   OH246669   6.546   6.437   4.742  0.3059 -0.4300 -0.0704
 8393TIP3    H146670   6.554   6.364   4.680  0.6243  0.4118 -1.0418
 8393TIP3    H246671   6.475   6.410   4.800  0.2882 -1.4324 -0.5282
 8394TIP3   OH246672   6.440   2.217  16.935  0.1442  0.0643  0.4981
 8394TIP3    H146673   6.475   2.136  16.899  1.2886  1.2293 -1.1610
 8394TIP3    H246674   6.373   2.244  16.872 -0.6696  0.1155  1.3582
 8395TIP3   OH246675   4.019   0.203  14.310  0.0374 -0.0927  0.3920
 8395TIP3    H146676   4.011   0.268  14.239  1.6575  1.9342  1.9619
 8395TIP3    H246677   3.934   0.208  14.355  0.0470  0.7625  0.3409
 8396TIP3   OH246678   1.909   5.665   5.584  0.6515  0.0469  0.3416
 8396TIP3    H146679   1.953   5.651   5.501  1.7181 -1.8864  1.1812
 8396TIP3    H246680   1.876   5.755   5.579 -1.6223 -0.7864 -3.1810
 8397TIP3   OH246681   1.442   1.042  12.926  0.4926  0.3557 -0.6391
 8397TIP3    H146682   1.384   0.987  12.873 -0.3430  1.5217 -0.9835
 8397TIP3    H246683   1.390   1.064  13.003  0.2394  1.8339 -1.1886
 8398TIP3   OH246684   4.975   4.161   3.684 -0.3357 -0.1210 -1.0550
 8398TIP3    H146685   5.019   4.246   3.683  1.7308 -1.0907  0.3735
 8398TIP3    H246686   4.893   4.176   3.729 -0.0984  1.1554 -1.0210
 8399TIP3   OH246687   4.231   0.075   4.014 -0.0150  0.4595  0.0908
 8399TIP3    H146688   4.273   0.041   4.094  0.0914 -0.6255 -0.4115
 8399TIP3    H246689   4.137   0.070   4.033  0.0180  0.6000  0.3017
 8400TIP3   OH246690   0.627   4.365  14.304  0.3364  0.2605 -0.0161
 8400TIP3    H146691   0.578   4.282  14.301  2.6219 -1.3312  2.3225
 8400TIP3    H246692   0.559   4.432  14.311 -1.6078 -1.3319 -2.0777
 8401TIP3   OH246693   5.288   6.189  16.982  0.0358 -0.3226 -0.0852
 8401TIP3    H146694   5.322   6.279  16.981 -0.3598 -0.1481  1.1518
 8401TIP3    H246695   5.328   6.149  17.058 -0.5208 -0.9082 -0.0923
 8402TIP3   OH246696   5.156   5.072   5.058 -0.3735 -0.7053 -0.2954
 8402TIP3    H146697   5.078   5.016   5.060 -2.5631  2.0033  3.0885
 8402TIP3    H246698   5.215   5.033   5.122 -0.5268 -0.8499 -0.2391
 8403TIP3   OH246699   3.190   5.459   4.885  0.6570 -0.3496 -0.4262
 8403TIP3    H146700   3.281   5.440   4.860  1.2485  0.9985  0.5329
 8403TIP3    H246701   3.199   5.505   4.969 -1.0169 -1.6175  0.4994
 8404TIP3   OH246702   4.562   6.479  15.975 -0.4928 -0.4932 -0.6392
 8404TIP3    H146703   4.614   6.519  15.905  1.4842 -1.3269  0.2660
 8404TIP3    H246704   4.593   6.389  15.979 -2.2796 -1.1226 -0.2494
 8405TIP3   OH246705   4.190   4.827  12.030 -0.6553 -0.6233  0.4184
 8405TIP3    H146706   4.223   4.766  12.095 -1.3965 -1.4627  0.0185
 8405TIP3    H246707   4.168   4.773  11.954  1.4190  0.4400 -1.0770
 8406TIP3   OH246708   5.973   2.369   5.214 -0.3498  0.2447 -0.0015
 8406TIP3    H146709   6.046   2.366   5.275  0.4519 -0.8486 -0.9664
 8406TIP3    H246710   5.985   2.451   5.166  1.7925 -1.0701 -1.9097
 8407TIP3   OH246711   6.659   5.875   3.691  0.3447 -0.1043  0.3621
 8407TIP3    H146712   6.639   5.855   3.782 -0.6270  1.2138  0.4825
 8407TIP3    H246713   6.743   5.920   3.694  0.2681  0.0223  0.6258
 8408TIP3   OH246714   1.728   6.074  15.087 -0.7934 -0.2532 -0.9603
 8408TIP3    H146715   1.753   5.999  15.034 -2.7494 -1.1146 -0.7281
 8408TIP3    H246716   1.651   6.046  15.135 -0.7217  1.4336  0.2521
 8409TIP3   OH246717   6.796   6.564   2.424  0.1270 -0.4074  0.3984
 8409TIP3    H146718   6.769   6.569   2.516  0.5533 -0.3076  0.5196
 8409TIP3    H246719   6.849   6.643   2.410  0.1358 -0.4665  0.0879
 8410TIP3   OH246720   2.042   0.807  15.140 -0.1965  0.2552 -0.3641
 8410TIP3    H146721   1.964   0.834  15.188 -0.7019  0.5886 -1.3419
 8410TIP3    H246722   2.080   0.889  15.107  0.7202  0.1226  0.3121
 8411TIP3   OH246723   1.924   2.638  14.205  0.4254  0.2417  0.3017
 8411TIP3    H146724   1.999   2.692  14.230  1.4896 -0.2839 -1.5805
 8411TIP3    H246725   1.902   2.666  14.117 -0.4181 -0.8840  0.1372
 8412TIP3   OH246726   2.349   0.932   4.735 -0.2679  0.8194 -0.6928
 8412TIP3    H146727   2.391   1.006   4.778  1.0663  0.2971 -1.0441
 8412TIP3    H246728   2.294   0.893   4.803  0.2621  1.1841 -0.0465
 8413TIP3   OH246729   0.063   6.266  12.219  0.4789  0.0736 -0.1286
 8413TIP3    H146730  -0.016   6.269  12.272 -0.1594  0.6859 -1.0891
 8413TIP3    H246731   0.134   6.251  12.282 -0.1213  1.8637  1.0357
 8414TIP3   OH246732   2.048   3.190   4.822  0.5419  0.4935  0.4574
 8414TIP3    H146733   2.124   3.233   4.781  1.3476 -1.7339 -0.5013
 8414TIP3    H246734   2.085   3.137   4.893 -0.3632  0.8242  1.2065
 8415TIP3   OH246735   3.293   2.270  13.035 -0.2745 -0.3440  0.1591
 8415TIP3    H146736   3.329   2.265  13.123  0.6486  1.6908 -0.0356
 8415TIP3    H246737   3.335   2.347  12.996  0.1983 -1.7979 -2.4579
 8416TIP3   OH246738   6.456   0.060  16.914 -0.4586  0.4243  0.1399
 8416TIP3    H146739   6.509   0.099  16.844  1.1089  0.4310  1.2921
 8416TIP3    H246740   6.439  -0.029  16.884  0.9083  0.1642  0.1205
 8417TIP3   OH246741   5.960   5.438  15.730  0.2261 -0.6194 -1.2486
 8417TIP3    H146742   5.947   5.407  15.819 -2.1201  1.2952 -0.8317
 8417TIP3    H246743   6.001   5.364  15.685  0.2094 -2.1288  1.0377
 8418TIP3   OH246744   5.449   1.221  14.449  0.0028 -0.6527 -0.1786
 8418TIP3    H146745   5.510   1.172  14.503 -0.2500  0.1106  0.8211
 8418TIP3    H246746   5.495   1.235  14.366  1.0392 -0.4009  0.4311
 8419TIP3   OH246747   5.321   1.474  15.106 -0.3540 -0.0520 -0.6355
 8419TIP3    H146748   5.387   1.407  15.124  0.0007 -0.0560 -1.8316
 8419TIP3    H246749   5.241   1.441  15.147 -0.1519 -1.1534 -1.0937
 8420TIP3   OH246750   4.771   0.981  14.661 -0.0973 -0.2398 -0.2064
 8420TIP3    H146751   4.763   0.893  14.696  0.5374 -0.1289  0.2345
 8420TIP3    H246752   4.765   1.038  14.737  0.2240  0.0564 -0.3961
 8421TIP3   OH246753   4.924   2.726   3.317  0.1868 -0.0374 -0.0703
 8421TIP3    H146754   5.000   2.673   3.339 -0.1994 -0.0532  1.2912
 8421TIP3    H246755   4.954   2.816   3.324 -0.2030 -0.0084  1.7075
 8422TIP3   OH246756   4.879   2.936   3.954  0.5351  0.2666 -0.3653
 8422TIP3    H146757   4.953   2.972   3.905  1.6784 -1.3833  0.0823
 8422TIP3    H246758   4.862   3.001   4.022  1.8552  0.4906 -0.2135
 8423TIP3   OH246759   6.197   3.826  15.685 -0.2138  0.2955  0.4633
 8423TIP3    H146760   6.192   3.893  15.754  0.8319  0.1503  0.6915
 8423TIP3    H246761   6.124   3.768  15.703  0.1982  0.1092  1.6205
 8424TIP3   OH246762   6.651   2.110   6.033  0.1692 -0.2015  0.2000
 8424TIP3    H146763   6.708   2.187   6.026 -1.0404  0.7137  0.0435
 8424TIP3    H246764   6.602   2.124   6.114 -0.6869 -0.3720 -0.2800
 8425TIP3   OH246765   5.744   1.460  15.307 -0.0423  0.3367 -0.2650
 8425TIP3    H146766   5.755   1.365  15.309  1.1590  0.4332 -1.1633
 8425TIP3    H246767   5.831   1.495  15.327 -0.9422  1.3053  2.4124
 8426TIP3   OH246768   0.230   6.596   2.832 -0.0388  0.2989  0.0680
 8426TIP3    H146769   0.287   6.656   2.880 -0.7229 -0.3784  1.8010
 8426TIP3    H246770   0.285   6.560   2.763  1.9887 -1.0114  2.2092
 8427TIP3   OH246771   5.205   0.682  10.116  0.1636  0.0502  0.0700
 8427TIP3    H146772   5.116   0.690  10.150  0.8926  0.9209  1.9376
 8427TIP3    H246773   5.227   0.590  10.126 -0.4465 -0.1353 -0.2340
 8428TIP3   OH246774   0.512   3.439  13.635 -0.3104  0.4664  0.5607
 8428TIP3    H146775   0.599   3.406  13.611 -0.1434  0.9838  0.4420
 8428TIP3    H246776   0.460   3.360  13.651  0.3441  0.1585  1.2310
 8429TIP3   OH246777   4.133   0.057  11.407 -0.8424 -0.4293  0.1938
 8429TIP3    H146778   4.173   0.120  11.348 -0.6556 -0.6070  0.1327
 8429TIP3    H246779   4.083  -0.002  11.350  0.3715 -1.3789  0.0890
 8430TIP3   OH246780   0.447   2.617  14.019 -0.0124 -0.0932  0.0693
 8430TIP3    H146781   0.483   2.699  14.051 -0.1626 -0.2506  0.6566
 8430TIP3    H246782   0.411   2.638  13.932 -0.5841  0.6017  0.4608
 8431TIP3   OH246783   3.671   0.612   3.496 -0.0460 -0.0572  0.4798
 8431TIP3    H146784   3.641   0.700   3.473  0.6872 -0.1863 -1.1155
 8431TIP3    H246785   3.761   0.608   3.464 -0.8597 -2.2099 -1.9068
 8432TIP3   OH246786   0.171   4.469  14.471  0.1266  0.0864  0.0866
 8432TIP3    H146787   0.110   4.454  14.398 -1.0917  0.4628  0.9988
 8432TIP3    H246788   0.121   4.444  14.549  0.1228  2.9569  1.1289
 8433TIP3   OH246789   1.551   3.845   5.857  0.1493 -0.4935 -0.1373
 8433TIP3    H146790   1.470   3.795   5.873  0.2899 -0.5843  0.3123
 8433TIP3    H246791   1.532   3.897   5.779 -0.6871  0.2058  0.5122
 8434TIP3   OH246792   2.484   2.187  15.756  0.1578 -0.0738 -0.3671
 8434TIP3    H146793   2.491   2.195  15.661  0.1221 -0.5130 -0.4062
 8434TIP3    H246794   2.536   2.110  15.778  1.5955  1.0040  0.1617
 8435TIP3   OH246795   5.650   0.379  11.459  0.1272 -0.1760  0.2888
 8435TIP3    H146796   5.554   0.375  11.464  0.0890 -0.9635 -0.7613
 8435TIP3    H246797   5.676   0.420  11.541 -1.0880 -0.3752  0.8029
 8436TIP3   OH246798   6.194   0.883   1.308  0.4705  0.0333  0.5886
 8436TIP3    H146799   6.194   0.813   1.242 -0.2478  2.2762 -2.0079
 8436TIP3    H246800   6.275   0.869   1.358  0.7359 -2.1558 -0.3303
 8437TIP3   OH246801   0.681   0.948  14.072 -0.1061 -0.3750  0.0185
 8437TIP3    H146802   0.709   0.860  14.097 -0.9197 -1.1363 -1.5454
 8437TIP3    H246803   0.592   0.956  14.106  0.0769 -0.0254  0.4242
 8438TIP3   OH246804   0.046   0.205   1.469  0.1221  0.1455  0.0028
 8438TIP3    H146805  -0.013   0.274   1.496  1.0230  0.7430  0.5133
 8438TIP3    H246806   0.000   0.159   1.399 -2.0114 -0.9795  2.0041
 8439TIP3   OH246807   5.372   1.561  16.667  0.2883 -0.6935 -0.0437
 8439TIP3    H146808   5.461   1.570  16.700  0.5937  2.1449 -1.3006
 8439TIP3    H246809   5.380   1.506  16.589  1.0969  0.1671 -0.5825
 8440TIP3   OH246810   5.491   3.033   0.998  0.5521 -0.8487  0.5312
 8440TIP3    H146811   5.548   3.072   0.932  3.0894 -2.1158  1.8430
 8440TIP3    H246812   5.441   3.107   1.033  1.9506  0.4642 -0.1373
 8441TIP3   OH246813   5.435   3.765  12.282  0.1619  0.6929  0.0906
 8441TIP3    H146814   5.518   3.736  12.319 -0.2186 -2.2773 -1.1292
 8441TIP3    H246815   5.440   3.861  12.283  2.7679  0.6251  1.7698
 8442TIP3   OH246816   5.954   4.466   3.818  0.3331  0.1729  0.6189
 8442TIP3    H146817   6.044   4.490   3.839  0.5193  3.4801 -2.9408
 8442TIP3    H246818   5.962   4.385   3.768  1.7089  1.5522 -1.5660
 8443TIP3   OH246819   6.196   6.091   3.458 -0.2063 -0.2139 -0.0478
 8443TIP3    H146820   6.236   6.159   3.403 -0.0145  0.4606  0.9077
 8443TIP3    H246821   6.267   6.062   3.515 -0.9326  0.6850  1.3740
 8444TIP3   OH246822   3.768   5.488   1.450 -0.0952 -0.2568  0.3561
 8444TIP3    H146823   3.843   5.548   1.445  0.3413 -0.8144  0.1247
 8444TIP3    H246824   3.782   5.426   1.378 -1.7333  0.7165 -0.8702
 8445TIP3   OH246825   0.588   0.297  14.088 -0.3302  0.3338  0.0385
 8445TIP3    H146826   0.622   0.247  14.163 -1.9142 -1.3860 -0.3250
 8445TIP3    H246827   0.666   0.340  14.051  0.5431  1.0164  2.4629
 8446TIP3   OH246828   0.222   4.494   2.104  0.4862  0.2921  0.4356
 8446TIP3    H146829   0.248   4.531   2.020  0.5430  0.2762  0.4459
 8446TIP3    H246830   0.127   4.486   2.098  0.4635  0.5491  0.4800
 8447TIP3   OH246831   6.062   5.727  11.259  0.7947 -0.4850 -0.1452
 8447TIP3    H146832   6.148   5.720  11.219  1.4550 -0.8558  1.2804
 8447TIP3    H246833   6.071   5.796  11.325  0.6776 -2.0238  1.5679
 8448TIP3   OH246834   0.126   2.366  13.755  0.1862  0.2768 -0.6461
 8448TIP3    H146835   0.068   2.366  13.831  3.3203  3.4782  2.1013
 8448TIP3    H246836   0.104   2.447  13.708  1.2386  0.6876 -0.4692
 8449TIP3   OH246837   6.473   2.393  11.727 -0.1474  0.6757  0.3388
 8449TIP3    H146838   6.560   2.433  11.723 -0.9081  2.3427 -0.4143
 8449TIP3    H246839   6.447   2.399  11.818 -0.5488  2.6748  0.1325
 8450TIP3   OH246840   3.584   4.157   6.041  0.9224  0.1587 -0.4837
 8450TIP3    H146841   3.663   4.204   6.015  0.9238 -0.0874 -0.9401
 8450TIP3    H246842   3.607   4.065   6.034  0.7388  0.0894 -0.1672
 8451TIP3   OH246843   2.468   5.813   2.634 -0.6136 -0.1949  0.2932
 8451TIP3    H146844   2.553   5.813   2.678 -0.6971  1.8082  0.5361
 8451TIP3    H246845   2.430   5.899   2.654 -1.7868 -0.2183 -1.5557
 8452TIP3   OH246846   2.949   0.036  12.147  0.1131  0.3681 -0.0224
 8452TIP3    H146847   2.873   0.008  12.198 -0.8352  1.5742 -0.7274
 8452TIP3    H246848   2.919   0.035  12.056  0.5668  1.9096 -0.2227
 8453TIP3   OH246849   4.952   4.730   2.311  0.7365 -0.6371  0.2625
 8453TIP3    H146850   5.027   4.700   2.260  0.0575 -1.9489  0.0047
 8453TIP3    H246851   4.878   4.681   2.276  0.1832 -1.2952  2.2326
 8454TIP3   OH246852   5.584   3.194  14.967 -0.7482 -0.0533 -0.1287
 8454TIP3    H146853   5.610   3.108  14.935 -3.4606 -0.2684 -2.0574
 8454TIP3    H246854   5.635   3.256  14.915 -1.1720 -0.4784 -1.0548
 8455TIP3   OH246855   2.954   4.895   2.197 -0.1851 -0.1361  0.3409
 8455TIP3    H146856   2.976   4.824   2.136 -1.0938  0.3147 -0.5629
 8455TIP3    H246857   2.860   4.908   2.184 -0.1477  0.8131  0.9416
 8456TIP3   OH246858   3.254   0.667  14.664  0.5009  0.2802  0.4243
 8456TIP3    H146859   3.341   0.649  14.699  0.7803  0.6983 -0.0433
 8456TIP3    H246860   3.232   0.754  14.698  0.1129  0.0329  0.8243
 8457TIP3   OH246861   2.638   3.124   1.931 -0.1392 -0.3185  0.0031
 8457TIP3    H146862   2.712   3.163   1.979 -0.8357 -0.1755  0.9878
 8457TIP3    H246863   2.618   3.044   1.980 -0.6033 -0.3818 -0.2883
 8458TIP3   OH246864   5.118   5.960   5.648  0.1669 -0.0708 -0.4043
 8458TIP3    H146865   5.153   6.046   5.623  1.6592 -0.5718 -0.1526
 8458TIP3    H246866   5.178   5.897   5.608 -1.5175 -1.0616 -1.5030
 8459TIP3   OH246867   0.378   2.811  11.400  0.2080  0.3203  0.0305
 8459TIP3    H146868   0.404   2.775  11.485 -0.0590 -2.4197 -0.9481
 8459TIP3    H246869   0.285   2.832  11.410 -0.2359 -1.4762  0.0218
 8460TIP3   OH246870   2.784   3.105   0.781 -0.7287  0.0640  0.2627
 8460TIP3    H146871   2.843   3.181   0.789 -2.0459  1.1480 -0.0377
 8460TIP3    H246872   2.781   3.069   0.870 -0.7560  0.8837  0.6039
 8461TIP3   OH246873   5.286   6.458  12.942 -0.6078 -0.6318 -0.2537
 8461TIP3    H146874   5.330   6.534  12.981  0.5839 -0.8357 -1.1560
 8461TIP3    H246875   5.347   6.386  12.952 -0.5570 -0.8472 -1.8384
 8462TIP3   OH246876   2.021   1.641   4.130  0.0498 -0.3407 -0.2599
 8462TIP3    H146877   2.000   1.734   4.129 -1.9364 -0.7392 -0.7098
 8462TIP3    H246878   2.001   1.612   4.219  0.6788 -0.3360 -0.1154
 8463TIP3   OH246879   6.455   3.748  14.395  0.1995 -0.3448 -0.2502
 8463TIP3    H146880   6.531   3.698  14.365  0.6361  0.5183 -0.6263
 8463TIP3    H246881   6.491   3.809  14.459 -0.4932 -1.1754  0.9698
 8464TIP3   OH246882   2.672   6.249   4.575 -0.7736  0.1040  0.5253
 8464TIP3    H146883   2.690   6.331   4.529  0.6853 -0.6336 -0.2896
 8464TIP3    H246884   2.577   6.242   4.577 -0.8883  1.2149 -0.4677
 8465TIP3   OH246885   5.053   2.402   2.339  0.7011  0.6158  0.8401
 8465TIP3    H146886   5.105   2.323   2.351 -1.6925 -1.2857 -0.4099
 8465TIP3    H246887   5.078   2.458   2.412  2.9156 -1.0261  1.4476
 8466TIP3   OH246888   5.192   1.391  11.172 -0.4827 -0.1081  0.5133
 8466TIP3    H146889   5.285   1.392  11.149 -0.4776  0.8497  0.5551
 8466TIP3    H246890   5.167   1.483  11.177 -1.5526 -0.3513  0.0256
 8467TIP3   OH246891   5.281   1.216  15.942  0.2700  0.0246 -0.1799
 8467TIP3    H146892   5.187   1.208  15.954  0.2571 -0.6301 -0.6824
 8467TIP3    H246893   5.309   1.273  16.013 -0.1666 -1.6684  1.4391
 8468TIP3   OH246894   2.472   4.326  12.477 -0.2663 -0.0150  0.3543
 8468TIP3    H146895   2.566   4.312  12.467  0.0953 -0.3337  3.2069
 8468TIP3    H246896   2.433   4.277  12.405  1.6746 -1.8903  0.4630
 8469TIP3   OH246897   1.344   5.761   2.774  0.0743 -0.3826  0.3833
 8469TIP3    H146898   1.440   5.769   2.775  0.0176  1.2765 -1.0885
 8469TIP3    H246899   1.316   5.801   2.856  0.6181  0.3338  0.2358
 8470TIP3   OH246900   4.808   6.171   2.528  0.3507  0.2841  0.2549
 8470TIP3    H146901   4.716   6.199   2.526 -0.6556 -2.0514  4.1520
 8470TIP3    H246902   4.845   6.214   2.605  2.0658 -0.1487 -0.2862
 8471TIP3   OH246903   4.787   6.574   1.268 -0.8586 -0.5804 -0.5487
 8471TIP3    H146904   4.723   6.516   1.311 -0.2859  0.1438  1.3715
 8471TIP3    H246905   4.816   6.633   1.337 -0.3254  1.0760 -2.1121
 8472TIP3   OH246906   1.867   3.538   5.272 -0.1106 -0.8273 -0.1032
 8472TIP3    H146907   1.864   3.452   5.312  1.0629 -0.1984  1.4441
 8472TIP3    H246908   1.925   3.589   5.329 -0.9823  1.0558 -0.8100
 8473TIP3   OH246909   1.640   0.556  12.932  0.0803 -0.2832 -0.4390
 8473TIP3    H146910   1.693   0.507  12.995  2.3470  1.7159 -0.6492
 8473TIP3    H246911   1.625   0.494  12.861  1.6856 -1.1364 -0.0892
 8474TIP3   OH246912   3.988   0.361   0.957  0.2996  0.1343  0.4328
 8474TIP3    H146913   4.038   0.357   0.876  2.0091 -0.5681  1.4832
 8474TIP3    H246914   3.983   0.454   0.979 -0.7810  0.3956 -0.7949
 8475TIP3   OH246915   1.471   2.858  15.420  0.3623  0.5102 -0.1641
 8475TIP3    H146916   1.459   2.860  15.515  0.6729  2.3563 -0.1220
 8475TIP3    H246917   1.564   2.843  15.407  0.0119 -2.0195 -0.2722
 8476TIP3   OH246918   6.189   6.196  12.269  0.4934 -0.1212 -0.1664
 8476TIP3    H146919   6.162   6.241  12.349 -1.1209 -0.8322 -0.2759
 8476TIP3    H246920   6.216   6.109  12.298  0.2982 -0.2406 -0.3380
 8477TIP3   OH246921   5.612   5.343  15.822 -0.1600  0.1076 -0.1339
 8477TIP3    H146922   5.626   5.335  15.727 -1.8889 -0.4337 -0.3828
 8477TIP3    H246923   5.591   5.435  15.835  1.7651  0.5599  0.0058
 8478TIP3   OH246924   2.164   2.450   0.357  0.0684  0.4039 -0.2549
 8478TIP3    H146925   2.225   2.489   0.294 -0.7060  0.2072 -1.1400
 8478TIP3    H246926   2.207   2.462   0.441 -0.4326  3.8669 -0.3525
 8479TIP3   OH246927   0.423   3.359   1.177  0.5805 -0.7142 -0.1383
 8479TIP3    H146928   0.429   3.327   1.267 -0.0745 -0.6980 -0.0836
 8479TIP3    H246929   0.467   3.291   1.125 -0.3247 -1.4561  0.0377
 8480TIP3   OH246930   1.354   2.043   3.099  0.7845 -0.1449  0.6339
 8480TIP3    H146931   1.336   2.118   3.043  0.0727 -2.9619 -3.2762
 8480TIP3    H246932   1.449   2.033   3.097  0.7139 -0.6508 -0.7404
 8481TIP3   OH246933   5.665   2.240  14.940  0.2911  0.2817 -0.0862
 8481TIP3    H146934   5.588   2.295  14.949  0.2300  0.2548 -0.4234
 8481TIP3    H246935   5.704   2.266  14.856  0.2186 -0.2306 -0.2880
 8482TIP3   OH246936   2.704   4.076   3.028 -0.3929 -0.4231  0.3324
 8482TIP3    H146937   2.736   4.015   3.094 -2.0280 -2.8948 -0.9931
 8482TIP3    H246938   2.636   4.126   3.072  2.2790  2.1010  2.0171
 8483TIP3   OH246939   4.701   3.167  13.877  0.2931  0.4475  0.1876
 8483TIP3    H146940   4.773   3.127  13.926  0.6876  0.8658 -0.0445
 8483TIP3    H246941   4.730   3.256  13.859 -0.2160  0.5728 -0.0526
 8484TIP3   OH246942   1.445   2.739  16.882 -0.2004  0.0810  0.6004
 8484TIP3    H146943   1.506   2.725  16.809  1.7246 -0.5107  2.2258
 8484TIP3    H246944   1.376   2.794  16.846  0.7253 -0.1263 -1.6286
 8485TIP3   OH246945   2.752   2.130   0.658  0.1235 -0.1679  0.4666
 8485TIP3    H146946   2.790   2.071   0.724  0.3745 -1.5410 -0.8369
 8485TIP3    H246947   2.661   2.140   0.685 -0.0242 -1.4783  0.5487
 8486TIP3   OH246948   3.082   2.709  15.405  0.1606 -0.0650  0.2882
 8486TIP3    H146949   3.165   2.756  15.415 -0.1357  0.6620 -0.5573
 8486TIP3    H246950   3.057   2.686  15.494 -0.0786  2.0936  0.8263
 8487TIP3   OH246951   1.387   4.690   2.209  0.2996  0.7921  0.1492
 8487TIP3    H146952   1.472   4.655   2.184  0.8049  0.8931  1.6600
 8487TIP3    H246953   1.335   4.614   2.232 -0.5009  0.6055 -2.0119
 8488TIP3   OH246954   1.985   1.496  11.825  0.5744 -0.4340 -0.1558
 8488TIP3    H146955   1.985   1.512  11.919  1.7822 -1.3973  0.0522
 8488TIP3    H246956   1.952   1.576  11.786 -2.4328 -0.8987  1.1840
 8489TIP3   OH246957   5.342   2.132   6.069  0.2185 -0.1382 -0.1202
 8489TIP3    H146958   5.324   2.148   6.162  1.0401  0.8431 -0.1113
 8489TIP3    H246959   5.418   2.187   6.050  0.6108 -1.0196 -1.1555
 8490TIP3   OH246960   6.603   3.208  14.766  0.2994 -0.0260 -0.2015
 8490TIP3    H146961   6.577   3.121  14.796  0.2285 -0.4082 -1.3358
 8490TIP3    H246962   6.695   3.198  14.741  0.7537  0.6192  1.1047
 8491TIP3   OH246963   0.338   2.457  15.357  0.6982  0.1776  0.1014
 8491TIP3    H146964   0.248   2.473  15.384  0.7793  0.5519  0.1614
 8491TIP3    H246965   0.386   2.442  15.439  0.4797 -1.1982  0.0075
 8492TIP3   OH246966   0.316   4.051  11.852  0.3759  0.2216 -0.3218
 8492TIP3    H146967   0.349   4.024  11.938 -0.1625  0.2606 -0.1031
 8492TIP3    H246968   0.338   3.978  11.795 -1.4633 -0.9095  0.3479
 8493TIP3   OH246969   2.150   2.560   1.917  0.6359  0.4159  0.3931
 8493TIP3    H146970   2.206   2.524   1.986 -0.9825 -1.2434  0.9390
 8493TIP3    H246971   2.139   2.489   1.855 -0.0489  1.0289 -0.2138
 8494TIP3   OH246972   1.540   6.161  12.473 -0.7756  0.0055 -0.1574
 8494TIP3    H146973   1.457   6.114  12.464 -1.2853  0.4905  1.5419
 8494TIP3    H246974   1.514   6.250  12.498  0.2681  0.0877  0.6835
 8495TIP3   OH246975   1.252   1.196   0.986 -0.1247  0.0099  0.5498
 8495TIP3    H146976   1.240   1.133   1.057  0.0743 -0.3145  0.2962
 8495TIP3    H246977   1.339   1.178   0.951 -0.2747  0.0710  0.1324
 8496TIP3   OH246978   4.241   2.542   0.009  0.2699 -0.2107 -0.7342
 8496TIP3    H146979   4.263   2.537   0.102  0.4380  2.0376 -0.6118
 8496TIP3    H246980   4.147   2.521   0.006  0.4464 -1.1656 -0.2025
 8497TIP3   OH246981   3.427   1.186  16.521  0.5844  0.2769 -0.1545
 8497TIP3    H146982   3.442   1.134  16.601  0.9502  1.2565  0.4331
 8497TIP3    H246983   3.478   1.141  16.454  0.6637 -0.2956  0.2744
 8498TIP3   OH246984   2.959   3.037  13.499 -0.2681  0.1866  0.7060
 8498TIP3    H146985   2.984   2.989  13.578  0.0768 -0.0985  0.4293
 8498TIP3    H246986   2.966   3.129  13.523  2.2588  0.1746  0.3190
 8499TIP3   OH246987   2.249   5.215  12.827  0.2731  0.1706 -0.3639
 8499TIP3    H146988   2.264   5.252  12.914 -0.6146 -0.4156  0.0477
 8499TIP3    H246989   2.199   5.135  12.843  0.7068 -0.3155 -1.3642
 8500TIP3   OH246990   4.344   5.007   2.792  0.3272 -0.1198  0.1634
 8500TIP3    H146991   4.286   4.960   2.732 -1.4702 -1.3606  2.6666
 8500TIP3    H246992   4.428   4.963   2.785 -0.0772 -0.7549 -0.8659
 8501TIP3   OH246993   6.621   5.751  16.699  0.4042  0.6668 -0.5705
 8501TIP3    H146994   6.715   5.747  16.685  0.2789 -2.6314 -1.3568
 8501TIP3    H246995   6.583   5.714  16.619 -1.1886 -3.0252  1.6142
 8502TIP3   OH246996   4.650   2.059  11.702  1.0730 -0.5700  0.4123
 8502TIP3    H146997   4.715   1.999  11.738  2.0757 -0.2876 -0.8440
 8502TIP3    H246998   4.587   2.072  11.772  3.2802  0.5095  2.3309
 8503TIP3   OH246999   5.696   2.678  13.910  0.5035  0.4519 -0.1884
 8503TIP3    H147000   5.770   2.663  13.968  0.8019  1.7872 -0.1947
 8503TIP3    H247001   5.625   2.625  13.947  1.1668 -0.0205  0.4139
 8504TIP3   OH247002   0.968   5.218  12.359 -0.2433 -0.0998  0.8081
 8504TIP3    H147003   0.894   5.162  12.386 -2.3397  1.7246 -0.7681
 8504TIP3    H247004   0.978   5.280  12.431  0.0051 -0.5694  1.1840
 8505TIP3   OH247005   3.696   4.910  16.382 -0.1840 -0.5923 -0.1033
 8505TIP3    H147006   3.603   4.886  16.375 -0.9215  2.2451 -1.7443
 8505TIP3    H247007   3.699   4.971  16.455  0.3048 -0.3820 -0.2977
 8506TIP3   OH247008   2.351   1.883   4.783 -0.7738  0.2720  0.5669
 8506TIP3    H147009   2.393   1.945   4.724 -1.3204 -1.4234 -1.7508
 8506TIP3    H247010   2.384   1.906   4.870  1.9951  1.3794 -0.6631
 8507TIP3   OH247011   4.326   5.277   1.271 -0.3767  0.4251 -0.0605
 8507TIP3    H147012   4.237   5.295   1.301 -0.5634 -2.7811  1.7930
 8507TIP3    H247013   4.379   5.346   1.311 -1.7467  1.1254  0.6372
 8508TIP3   OH247014   6.497   0.100   2.041  0.1043  0.1185 -0.0278
 8508TIP3    H147015   6.490   0.109   1.946  2.2641 -2.2232 -0.5278
 8508TIP3    H247016   6.472   0.185   2.076 -0.6406  1.0690 -2.7029
 8509TIP3   OH247017   5.533   6.194   2.690  0.2706 -0.4485 -0.5950
 8509TIP3    H147018   5.530   6.242   2.773  2.1227  0.8943 -1.2351
 8509TIP3    H247019   5.453   6.142   2.690 -0.1535  0.0728  1.6902
 8510TIP3   OH247020   5.239   2.770   0.506  0.0990  0.3525 -0.3596
 8510TIP3    H147021   5.174   2.761   0.575 -0.7955  0.5491 -1.1560
 8510TIP3    H247022   5.304   2.830   0.543 -0.4212  0.5402  0.2751
 8511TIP3   OH247023   4.468   1.281  16.104  0.5978  0.5829  0.0901
 8511TIP3    H147024   4.413   1.222  16.052  0.0265  1.0731  0.1238
 8511TIP3    H247025   4.442   1.264  16.194  0.9009  0.4245  0.1499
 8512TIP3   OH247026   3.336   6.138  10.274  0.1532 -0.4041 -0.5554
 8512TIP3    H147027   3.266   6.179  10.324  0.7756  0.3978 -0.3211
 8512TIP3    H247028   3.394   6.210  10.250  1.3833 -1.1488  0.0510
 8513TIP3   OH247029   5.694   4.886  10.999  0.3027  0.3320 -0.0296
 8513TIP3    H147030   5.704   4.812  11.059  0.8025  1.2621  1.0553
 8513TIP3    H247031   5.781   4.901  10.963  0.4300  1.0416  0.5502
 8514TIP3   OH247032   1.027   4.559  14.821  0.0547  0.0380 -0.1114
 8514TIP3    H147033   1.046   4.652  14.830  0.6993 -0.1549  0.5461
 8514TIP3    H247034   0.978   4.537  14.900  1.2841 -0.5230  0.5196
 8515TIP3   OH247035   2.775   5.397   3.403 -0.3892 -0.0304  0.1342
 8515TIP3    H147036   2.860   5.427   3.436 -0.6436  0.8820 -0.0305
 8515TIP3    H247037   2.797   5.337   3.332  0.1128  0.2175  0.0751
 8516TIP3   OH247038   5.595   3.054  16.359 -0.4144 -0.3182  0.1437
 8516TIP3    H147039   5.570   2.995  16.288 -1.7040  1.4054 -0.9147
 8516TIP3    H247040   5.592   3.141  16.319 -3.5674  1.0071  2.8324
 8517TIP3   OH247041   4.367   3.131  12.520 -0.3627  0.6489  0.7268
 8517TIP3    H147042   4.392   3.191  12.591 -2.3282  2.0262  0.3325
 8517TIP3    H247043   4.272   3.137  12.517 -0.4605 -1.0285 -0.6594
 8518TIP3   OH247044   1.589   3.769  14.523 -0.0569  0.3117 -0.2366
 8518TIP3    H147045   1.517   3.771  14.459  0.3527  0.3028 -0.7077
 8518TIP3    H247046   1.546   3.764  14.608 -0.6446  1.2727 -0.4547
 8519TIP3   OH247047   1.753   5.993  15.457 -0.4636 -0.2832  0.0502
 8519TIP3    H147048   1.840   5.994  15.417 -0.4655 -1.7595 -0.0568
 8519TIP3    H247049   1.742   6.081  15.493  0.1590  0.6093 -1.8358
 8520TIP3   OH247050   0.154   1.292   3.290  0.5747  0.0201 -0.4576
 8520TIP3    H147051   0.080   1.239   3.261  0.2805 -0.3375  0.8872
 8520TIP3    H247052   0.176   1.346   3.214 -1.2164  0.3015 -0.8188
 8521TIP3   OH247053   5.089   4.846  12.053  0.1518 -0.7805 -0.3958
 8521TIP3    H147054   5.131   4.929  12.072  1.5835 -1.6032  0.1833
 8521TIP3    H247055   5.068   4.850  11.960 -1.1620  0.7979 -0.0694
 8522TIP3   OH247056   3.783   3.924  15.253  0.3276  0.2606  0.7283
 8522TIP3    H147057   3.690   3.947  15.262  0.8744  2.0123  3.2033
 8522TIP3    H247058   3.820   3.995  15.200  0.3822 -0.0344  0.3710
 8523TIP3   OH247059   5.989   5.146  13.975  0.2803 -0.3361 -0.5007
 8523TIP3    H147060   6.068   5.096  13.991  0.4958 -0.0207 -0.5636
 8523TIP3    H247061   6.019   5.225  13.930  0.1278  0.4974  0.7865
 8524TIP3   OH247062   4.525   6.619   5.702 -0.1290  0.2002  0.0966
 8524TIP3    H147063   4.450   6.677   5.686 -1.4406 -1.3333  0.3838
 8524TIP3    H247064   4.518   6.552   5.634  0.5822 -0.3542  0.5636
 8525TIP3   OH247065   3.897   0.692   3.353  0.6539 -0.2761  0.5507
 8525TIP3    H147066   3.986   0.704   3.320  0.4908 -0.2998  0.1006
 8525TIP3    H247067   3.892   0.751   3.429  1.7651 -1.9203  1.9710
 8526TIP3   OH247068   5.500   4.619   0.636 -0.7169 -0.0366 -0.9817
 8526TIP3    H147069   5.448   4.638   0.714 -0.9061  1.5301 -1.4491
 8526TIP3    H247070   5.564   4.554   0.665 -0.0547  1.3339  0.7819
 8527TIP3   OH247071   5.787   6.091  17.250 -0.3492  0.0140  0.1504
 8527TIP3    H147072   5.775   6.029  17.322  0.5001 -0.9471 -0.4921
 8527TIP3    H247073   5.769   6.040  17.171 -0.2049  0.7452 -0.3660
 8528TIP3   OH247074   4.424   6.768   4.485  0.2055 -0.2590  0.0513
 8528TIP3    H147075   4.402   6.751   4.394  0.8502 -0.7235 -0.0234
 8528TIP3    H247076   4.436   6.681   4.523 -1.0522 -0.1176  0.8398
 8529TIP3   OH247077   0.122   1.556  15.668  0.1873  0.0310 -0.2994
 8529TIP3    H147078   0.213   1.572  15.645  0.2474  0.2339  0.0643
 8529TIP3    H247079   0.072   1.593  15.595  0.4324 -2.1724 -1.6513
 8530TIP3   OH247080   5.227   1.041   3.507 -0.2784 -0.3010  0.0291
 8530TIP3    H147081   5.188   0.966   3.463 -0.0712 -0.1653 -0.3976
 8530TIP3    H247082   5.218   1.113   3.444  1.2082 -0.4072 -0.3361
 8531TIP3   OH247083   3.726   0.297   4.033 -0.9151 -0.1635 -0.1765
 8531TIP3    H147084   3.705   0.204   4.040 -1.8041  0.0584  0.2395
 8531TIP3    H247085   3.764   0.319   4.118  0.1302 -0.3372 -0.5836
 8532TIP3   OH247086   4.942   6.750   5.754  0.0702  0.5281  0.1482
 8532TIP3    H147087   4.848   6.764   5.765  0.0108  0.8598 -0.6766
 8532TIP3    H247088   4.958   6.663   5.790 -0.5948  0.3685  0.0724
 8533TIP3   OH247089   6.291   1.212  13.696 -0.2324 -0.4517  0.3461
 8533TIP3    H147090   6.306   1.283  13.759 -0.3883  1.9869 -2.1765
 8533TIP3    H247091   6.197   1.213  13.680 -0.4864 -2.3410  1.3543
 8534TIP3   OH247092   2.005   0.435   0.305  0.5371 -0.1684 -0.1673
 8534TIP3    H147093   1.941   0.375   0.268 -1.3171  1.2875  0.5065
 8534TIP3    H247094   1.967   0.461   0.389  1.8869  0.9630  0.1244
 8535TIP3   OH247095   5.969   0.083   1.874  1.0826 -0.1744 -0.3683
 8535TIP3    H147096   5.879   0.091   1.903  1.4782 -1.0021  1.1730
 8535TIP3    H247097   5.975   0.141   1.798 -0.1925  1.5145  0.7523
 8536TIP3   OH247098   4.045   2.162  11.860 -0.1258 -1.0271 -0.1056
 8536TIP3    H147099   4.010   2.178  11.948 -1.5521  0.2627 -0.8588
 8536TIP3    H247100   4.000   2.083  11.830 -3.3900  1.0949 -1.4162
 8537TIP3   OH247101   0.132   5.073   3.417 -0.3936  0.4845 -0.2519
 8537TIP3    H147102   0.179   5.078   3.500  0.7665 -0.4484 -0.8221
 8537TIP3    H247103   0.142   4.982   3.388 -2.3413  0.3134 -0.5452
 8538TIP3   OH247104   4.135   5.313  11.376 -0.0960 -0.0615  1.0306
 8538TIP3    H147105   4.123   5.264  11.295  2.9746  1.7936 -0.7597
 8538TIP3    H247106   4.191   5.258  11.430 -0.3062 -0.3646  0.9413
 8539TIP3   OH247107   2.433   0.022   3.872  0.1717  0.1341 -0.4464
 8539TIP3    H147108   2.492   0.095   3.854  0.1464  0.4813  0.7973
 8539TIP3    H247109   2.468  -0.051   3.821  2.6727 -0.1487  1.4673
 8540TIP3   OH247110   2.053   4.321   4.340  0.2289 -0.3916  0.4359
 8540TIP3    H147111   2.051   4.233   4.376  0.0632  0.4915  2.7196
 8540TIP3    H247112   2.073   4.308   4.247 -1.0880 -2.8805  0.4195
 8541TIP3   OH247113   1.137   1.538   5.565 -0.9046 -0.1981 -0.3818
 8541TIP3    H147114   1.205   1.519   5.500  0.9032  2.6300  0.5037
 8541TIP3    H247115   1.123   1.632   5.560 -2.6233 -0.2642  1.5417
 8542TIP3   OH247116   5.623   3.622   0.685  0.1752 -0.0694 -0.5312
 8542TIP3    H147117   5.575   3.697   0.649  2.7082  0.8970 -2.2277
 8542TIP3    H247118   5.561   3.579   0.743 -2.2079  1.8829 -1.4505
 8543TIP3   OH247119   3.687   2.606  14.836  0.6505  0.6646 -0.3795
 8543TIP3    H147120   3.639   2.635  14.914  1.2486 -0.6789  0.5233
 8543TIP3    H247121   3.719   2.519  14.859 -1.5779 -1.0612 -3.1569
 8544TIP3   OH247122   2.185   0.436   4.325 -0.4836  0.4898 -0.1183
 8544TIP3    H147123   2.206   0.392   4.242 -0.3105 -0.1486  0.2554
 8544TIP3    H247124   2.169   0.364   4.386  1.0649  0.9105  0.8370
 8545TIP3   OH247125   6.780   1.469  11.395  0.1320 -0.1991  0.3404
 8545TIP3    H147126   6.763   1.472  11.301 -0.6264  0.5636  0.4817
 8545TIP3    H247127   6.874   1.483  11.404  0.1473  0.1292 -0.2918
 8546TIP3   OH247128   2.257   2.774  11.227  0.2607 -0.3983 -0.1580
 8546TIP3    H147129   2.259   2.814  11.314  0.9275  2.5887 -1.4353
 8546TIP3    H247130   2.173   2.800  11.190 -0.0465 -1.7012 -0.4447
 8547TIP3   OH247131   6.240   1.809   4.663  0.1673 -0.0989  0.2207
 8547TIP3    H147132   6.246   1.822   4.568  1.2775  1.1669  0.4299
 8547TIP3    H247133   6.200   1.723   4.673 -0.3922 -0.0594 -1.3908
 8548TIP3   OH247134   1.961   0.500   5.014 -0.1709  0.1558  0.3751
 8548TIP3    H147135   1.930   0.590   5.001  1.3643  0.5198 -0.9614
 8548TIP3    H247136   2.042   0.494   4.964  1.2696 -1.1458  2.6794
 8549TIP3   OH247137   2.547   6.399   3.669  0.3205  0.1470 -0.4796
 8549TIP3    H147138   2.543   6.490   3.697  0.5537  0.0242 -0.0406
 8549TIP3    H247139   2.455   6.372   3.662  0.1540  1.1209 -2.9819
 8550TIP3   OH247140   5.945   4.288  14.893 -0.0519 -0.2801  0.0282
 8550TIP3    H147141   6.039   4.305  14.897  0.3460 -1.9002 -1.0912
 8550TIP3    H247142   5.918   4.321  14.807  0.0228 -1.9283 -0.6650
 8551TIP3   OH247143   3.818   0.561   1.906  0.4665 -0.5161  0.2761
 8551TIP3    H147144   3.743   0.562   1.846  1.2666 -1.2156 -0.7618
 8551TIP3    H247145   3.779   0.572   1.993 -0.6070  2.4920 -0.4586
 8552TIP3   OH247146   2.770   1.885  13.436 -0.1358  0.6146 -0.0660
 8552TIP3    H147147   2.723   1.887  13.519 -0.0330 -0.2448  0.0280
 8552TIP3    H247148   2.735   1.808  13.390  0.6876  0.3451 -0.2759
 8553TIP3   OH247149   2.040   2.478   0.666 -0.1898 -0.0584 -0.1848
 8553TIP3    H147150   1.999   2.562   0.647 -1.5509 -1.1734 -2.6759
 8553TIP3    H247151   2.133   2.490   0.645 -0.8007  0.1911 -3.1179
 8554TIP3   OH247152   4.768   3.759   4.297 -1.0222  0.2013 -0.5955
 8554TIP3    H147153   4.707   3.825   4.328 -0.5428  0.8364 -0.9730
 8554TIP3    H247154   4.838   3.809   4.255 -0.1706 -0.5039 -0.0443
 8555TIP3   OH247155   4.427   5.495   5.663 -0.0834  0.2927 -0.2746
 8555TIP3    H147156   4.415   5.402   5.683  1.1998  0.3389  0.8989
 8555TIP3    H247157   4.520   5.511   5.680 -0.0168  1.5452 -1.5848
 8556TIP3   OH247158   2.930   4.746   4.531  0.4717  0.2158  0.1505
 8556TIP3    H147159   2.913   4.774   4.441 -0.2455 -0.0144  0.2071
 8556TIP3    H247160   3.018   4.777   4.550  1.2212 -1.0201 -1.1389
 8557TIP3   OH247161   3.623   5.218  13.294  0.6438  0.4144 -0.0793
 8557TIP3    H147162   3.678   5.274  13.240  0.9634  0.2396  0.0603
 8557TIP3    H247163   3.646   5.242  13.384 -0.9070  1.7217  0.0174
 8558TIP3   OH247164   0.636   2.501  15.253 -0.0812 -0.1652  0.0708
 8558TIP3    H147165   0.638   2.529  15.162 -1.6045  0.3238  0.1525
 8558TIP3    H247166   0.637   2.582  15.304  0.9269 -0.4399  0.5053
 8559TIP3   OH247167   0.634   3.122   1.862  0.2659 -0.0865 -0.6082
 8559TIP3    H147168   0.567   3.062   1.830 -0.9814  0.7178  0.3753
 8559TIP3    H247169   0.716   3.076   1.848 -0.4127 -0.7984 -2.5336
 8560TIP3   OH247170   3.944   6.479  13.346 -0.0039  0.3613  0.0513
 8560TIP3    H147171   3.908   6.424  13.276  0.1289  0.2843  0.0439
 8560TIP3    H247172   4.033   6.498  13.319  0.2812 -0.2511  0.5374
 8561TIP3   OH247173   0.301   6.279  14.825  0.7283 -0.0625 -0.0520
 8561TIP3    H147174   0.364   6.252  14.758 -1.4052 -1.5933 -1.5911
 8561TIP3    H247175   0.240   6.337  14.779 -0.2659 -0.4117  0.7845
 8562TIP3   OH247176   5.224   6.680  12.041 -0.4320 -0.1676 -0.0290
 8562TIP3    H147177   5.219   6.776  12.047 -1.5591 -0.2069 -0.1636
 8562TIP3    H247178   5.141   6.650  12.077  0.7527 -1.2052  1.9557
 8563TIP3   OH247179   3.051   1.778   5.185  0.5954  0.6281  0.4622
 8563TIP3    H147180   3.095   1.859   5.159  2.0011 -0.8824 -2.4358
 8563TIP3    H247181   2.960   1.791   5.158  1.2908  0.4821 -2.2741
 8564TIP3   OH247182   1.189   6.216  13.306  0.0250  0.6772  0.0784
 8564TIP3    H147183   1.246   6.232  13.382 -0.3863  0.7077  0.3856
 8564TIP3    H247184   1.145   6.133  13.327  0.2990  0.4195 -0.3674
 8565TIP3   OH247185   0.401   2.750  15.591 -0.2122  0.4027  0.4479
 8565TIP3    H147186   0.358   2.787  15.668 -2.8442  2.0260 -1.6202
 8565TIP3    H247187   0.390   2.656  15.600 -1.2475  0.6131  1.6242
 8566TIP3   OH247188   4.619   4.416  12.829 -0.3674 -0.2375 -0.6943
 8566TIP3    H147189   4.671   4.358  12.884  0.1091  1.4079  0.6706
 8566TIP3    H247190   4.545   4.362  12.800  0.2796 -1.6316  0.1609
 8567TIP3   OH247191   4.706   6.597  15.799 -0.2115  0.5000  0.3267
 8567TIP3    H147192   4.667   6.656  15.735 -0.5415 -0.4280 -0.3325
 8567TIP3    H247193   4.797   6.587  15.771 -0.6596 -0.8676 -0.7289
 8568TIP3   OH247194   0.893   4.699  16.588  0.3116  0.7296  0.1150
 8568TIP3    H147195   0.856   4.741  16.510 -1.5905  2.3006  1.7645
 8568TIP3    H247196   0.893   4.767  16.655 -0.0330 -1.0793  2.0698
 8569TIP3   OH247197   4.900   3.898  17.007 -0.0327 -0.5549 -0.2622
 8569TIP3    H147198   4.867   3.819  16.963  0.5915 -0.8443 -0.2222
 8569TIP3    H247199   4.995   3.895  16.995  0.0024  0.1800 -0.2333
 8570TIP3   OH247200   3.521   2.318  14.369  0.4258 -0.2063  0.1799
 8570TIP3    H147201   3.548   2.239  14.322  0.6002  0.3565 -0.7015
 8570TIP3    H247202   3.577   2.387  14.332 -0.8618  0.6277 -0.2633
 8571TIP3   OH247203   4.380   0.888   2.549 -0.0816  0.5207  0.0165
 8571TIP3    H147204   4.327   0.895   2.469 -0.2135  0.2568  0.0804
 8571TIP3    H247205   4.407   0.978   2.567 -0.4314  0.6467 -0.0698
 8572TIP3   OH247206   2.658   1.954  15.678  0.3157  0.6603  0.0413
 8572TIP3    H147207   2.603   1.991  15.609  1.0498  0.1957 -0.8229
 8572TIP3    H247208   2.599   1.900  15.730 -0.3890  1.5656  0.1946
 8573TIP3   OH247209   6.258   0.970  14.198  0.2648 -0.2822 -0.3913
 8573TIP3    H147210   6.269   0.928  14.283  1.2479  0.2016 -0.2644
 8573TIP3    H247211   6.326   1.037  14.195  0.5179 -0.5607 -1.7280
 8574TIP3   OH247212   0.229   4.448  15.971  0.0055  0.1880 -0.3503
 8574TIP3    H147213   0.214   4.539  15.998 -0.5788  0.0623 -0.2376
 8574TIP3    H247214   0.195   4.395  16.044  1.1686 -0.1214 -0.0025
 8575TIP3   OH247215   1.262   3.176  12.454 -0.0170 -0.1109  0.3295
 8575TIP3    H147216   1.278   3.161  12.361  1.3459  1.0044  0.3576
 8575TIP3    H247217   1.224   3.094  12.485 -0.4789 -0.5096 -1.1926
 8576TIP3   OH247218   3.746   6.137  13.666 -0.4716 -0.0672 -0.3161
 8576TIP3    H147219   3.805   6.213  13.665 -0.8170  0.2110  0.0527
 8576TIP3    H247220   3.797   6.069  13.710 -0.7266  0.4426  0.8311
 8577TIP3   OH247221   2.090   1.824   4.634 -0.7446 -0.2790 -0.3464
 8577TIP3    H147222   2.011   1.872   4.661 -0.2060 -0.1441  1.0375
 8577TIP3    H247223   2.157   1.851   4.695 -0.7754 -3.9416  1.6042
 8578TIP3   OH247224   0.526   1.560   2.019  0.0502  0.0056 -0.1351
 8578TIP3    H147225   0.483   1.633   2.065 -0.0049  0.0657 -0.2818
 8578TIP3    H247226   0.526   1.489   2.083 -0.5212 -0.0831 -0.2270
 8579TIP3   OH247227   1.507   6.527  14.839 -0.1297 -0.2216  0.1300
 8579TIP3    H147228   1.500   6.489  14.927 -0.9042  0.5519  0.4171
 8579TIP3    H247229   1.517   6.621  14.854  0.9120 -0.1989 -0.5897
 8580TIP3   OH247230   5.788   2.413  16.450 -0.3072  0.0961  0.1984
 8580TIP3    H147231   5.699   2.432  16.480 -0.3888  0.2829 -0.1639
 8580TIP3    H247232   5.817   2.341  16.506 -0.8092 -0.1941  0.0892
 8581TIP3   OH247233   0.720   6.139  16.910  0.1927 -0.4497  0.1513
 8581TIP3    H147234   0.732   6.048  16.938  0.9511  0.1227  1.8553
 8581TIP3    H247235   0.735   6.137  16.816  3.1387 -1.6695  0.5293
 8582TIP3   OH247236   4.939   1.451  11.521  0.1033 -0.3844 -0.3387
 8582TIP3    H147237   5.007   1.501  11.477  0.1998 -0.4860 -0.3071
 8582TIP3    H247238   4.870   1.440  11.456  0.8192 -1.7068 -0.9124
 8583TIP3   OH247239   5.560   3.491   1.469  0.2051  0.0480  0.2158
 8583TIP3    H147240   5.625   3.421   1.480  1.0127  0.7221 -0.1625
 8583TIP3    H247241   5.545   3.524   1.557 -1.2907 -1.5400  0.6215
 8584TIP3   OH247242   3.418   2.573  14.976  0.0524  0.0174 -0.4408
 8584TIP3    H147243   3.336   2.623  14.973  0.3014  0.3958 -1.1697
 8584TIP3    H247244   3.440   2.558  14.884  0.4084 -0.7397 -0.2412
 8585TIP3   OH247245   3.128   2.354   2.144  0.4000 -0.2012  0.5625
 8585TIP3    H147246   3.131   2.355   2.240 -0.8030 -0.5632  0.6284
 8585TIP3    H247247   3.086   2.271   2.122 -0.5913  0.4778 -0.2108
 8586TIP3   OH247248   5.354   2.731  10.453  0.1797 -0.3352  0.3455
 8586TIP3    H147249   5.347   2.635  10.458  1.8386 -0.5062 -0.0836
 8586TIP3    H247250   5.299   2.762  10.525  1.2293 -1.7001  1.8265
 8587TIP3   OH247251   3.341   0.383  11.020 -0.2688 -0.1234  0.0618
 8587TIP3    H147252   3.419   0.419  11.063 -0.0876 -0.5678  0.1136
 8587TIP3    H247253   3.333   0.295  11.057 -0.6010 -0.2006 -0.1966
 8588TIP3   OH247254   6.091   3.156   5.693 -0.0663 -0.0195  0.2759
 8588TIP3    H147255   6.068   3.197   5.610  2.0161 -0.4942 -0.6097
 8588TIP3    H247256   6.064   3.218   5.760  0.6792  1.6259 -0.9003
 8589TIP3   OH247257   5.211   5.627   3.257  0.0387  0.6195 -0.3431
 8589TIP3    H147258   5.263   5.698   3.220  2.8328 -1.4921 -0.7993
 8589TIP3    H247259   5.225   5.633   3.352  0.5660  0.5153 -0.4088
 8590TIP3   OH247260   4.618   3.850   0.160  0.0127 -0.1538  0.2154
 8590TIP3    H147261   4.634   3.815   0.073 -1.6866 -0.2572 -0.0982
 8590TIP3    H247262   4.522   3.855   0.166  0.0139 -1.7464  2.6992
 8591TIP3   OH247263   1.952   3.609  11.561  0.4463  0.1349 -0.4024
 8591TIP3    H147264   1.904   3.690  11.580 -1.6701 -1.2546  0.5725
 8591TIP3    H247265   1.885   3.541  11.561  2.4821 -2.0266  1.4204
 8592TIP3   OH247266   6.279   4.896  16.470  0.0906 -0.6864  0.1394
 8592TIP3    H147267   6.229   4.972  16.501 -2.2152 -2.4673  1.0355
 8592TIP3    H247268   6.350   4.886  16.535 -0.0775  0.1912  0.4746
 8593TIP3   OH247269   5.728   3.473   5.536  0.3132  0.4451  0.0579
 8593TIP3    H147270   5.673   3.498   5.461 -0.1869 -0.5334  0.0877
 8593TIP3    H247271   5.706   3.537   5.603  0.7535  1.3279 -0.6106
 8594TIP3   OH247272   2.869   0.170  14.808  0.5296 -0.5625 -0.9445
 8594TIP3    H147273   2.797   0.199  14.752  0.0880 -1.2352 -0.7437
 8594TIP3    H247274   2.876   0.238  14.875 -0.2627 -0.7341 -0.6756
 8595TIP3   OH247275   2.014   2.075  16.312 -0.1629 -0.1233  0.1960
 8595TIP3    H147276   1.970   2.047  16.392  0.1977 -3.2927 -0.5912
 8595TIP3    H247277   2.056   1.996  16.278  1.3914  1.5327 -2.0911
 8596TIP3   OH247278   0.762   5.892   1.642  0.1022 -0.4796  0.4600
 8596TIP3    H147279   0.691   5.891   1.706 -0.8095  1.4037 -0.4255
 8596TIP3    H247280   0.727   5.847   1.565  0.0809 -0.0998  0.2435
 8597TIP3   OH247281   5.823   2.879  11.231 -0.6062  0.1989 -0.4653
 8597TIP3    H147282   5.776   2.802  11.201 -0.0858  0.1891 -1.2790
 8597TIP3    H247283   5.754   2.942  11.254 -1.0730 -0.9239  1.4413
 8598TIP3   OH247284   1.314   4.356   0.579  0.6813 -0.4431  0.1812
 8598TIP3    H147285   1.257   4.421   0.620  0.2907  0.7030 -2.0791
 8598TIP3    H247286   1.285   4.272   0.617  0.2940  0.5015  2.1239
 8599TIP3   OH247287   3.965   5.206   6.436  0.8891 -0.3629  0.0582
 8599TIP3    H147288   3.877   5.200   6.398  0.6053 -1.0322  0.7823
 8599TIP3    H247289   3.956   5.270   6.507  1.3529  0.6804 -0.7952
 8600TIP3   OH247290   3.936   3.612  10.910 -0.0276  0.4229 -0.6018
 8600TIP3    H147291   3.999   3.671  10.952  0.0902  1.3342 -2.0143
 8600TIP3    H247292   3.981   3.527  10.909  0.5375  0.7063 -0.1710
 8601TIP3   OH247293   1.955   2.956   5.273 -0.4745 -0.0522  0.2753
 8601TIP3    H147294   1.987   2.880   5.321  0.2530 -1.1467 -1.8383
 8601TIP3    H247295   1.972   2.936   5.181 -2.3434  1.6953 -0.5290
 8602TIP3   OH247296   0.782   1.556   3.572  0.3228 -0.1494  0.1378
 8602TIP3    H147297   0.818   1.536   3.486 -3.2812 -2.7619 -1.0254
 8602TIP3    H247298   0.712   1.619   3.554  0.4271  0.3422  1.3720
 8603TIP3   OH247299   3.580   5.540   0.443 -0.0547 -0.3560 -0.4653
 8603TIP3    H147300   3.666   5.523   0.403 -0.1529  1.1810 -1.3991
 8603TIP3    H247301   3.576   5.635   0.451 -2.1361 -0.3231 -1.4710
 8604TIP3   OH247302   3.642   0.812  12.476  0.1363 -0.2235  1.0187
 8604TIP3    H147303   3.641   0.731  12.527 -0.9093 -0.7150  0.2576
 8604TIP3    H247304   3.733   0.839  12.475  0.4453 -1.2133  1.5795
 8605TIP3   OH247305   3.467   1.500   5.968  0.3050  0.0745 -0.5917
 8605TIP3    H147306   3.533   1.559   6.004  1.0340 -0.6217 -0.7454
 8605TIP3    H247307   3.426   1.460   6.044  0.2693  0.3011 -0.4948
 8606TIP3   OH247308   3.666   1.973  15.505  0.2845  0.1113  0.0663
 8606TIP3    H147309   3.690   2.039  15.570 -0.3438 -0.7082  1.1497
 8606TIP3    H247310   3.611   1.911  15.552  2.4930 -2.3384 -0.3826
 8607TIP3   OH247311   4.272   6.455  14.138  0.6421 -0.2511 -0.3833
 8607TIP3    H147312   4.179   6.470  14.121  0.2307 -1.6632  0.4173
 8607TIP3    H247313   4.313   6.540  14.124 -0.8659  0.5575 -0.1081
 8608TIP3   OH247314   1.018   6.493   1.195  0.3075 -0.8127  0.2908
 8608TIP3    H147315   0.936   6.511   1.241  0.4520 -0.8559  0.5664
 8608TIP3    H247316   1.080   6.558   1.228  0.1541 -0.2178 -0.5577
 8609TIP3   OH247317   4.324   5.816  12.330 -0.1585 -0.6769 -0.2096
 8609TIP3    H147318   4.255   5.880  12.350  0.5450  0.2037 -0.5233
 8609TIP3    H247319   4.359   5.791  12.415 -1.9817 -2.4692  0.1058
 8610TIP3   OH247320   4.193   0.712  10.199 -0.0970 -0.1156  0.5878
 8610TIP3    H147321   4.233   0.697  10.285  0.4499  0.8898  0.5294
 8610TIP3    H247322   4.108   0.751  10.219 -0.2892 -0.5695  0.6769
 8611TIP3   OH247323   5.244   3.901   5.991 -0.1446 -0.1129 -0.1352
 8611TIP3    H147324   5.196   3.979   6.019 -1.8547 -0.7233 -1.1859
 8611TIP3    H247325   5.190   3.828   6.019 -0.9119 -0.7933 -2.9923
 8612TIP3   OH247326   3.250   4.257   1.730 -0.4329  0.4987  0.3319
 8612TIP3    H147327   3.219   4.325   1.670  0.3966  1.8910  1.4231
 8612TIP3    H247328   3.341   4.280   1.748 -0.2331 -0.7203  1.0019
 8613TIP3   OH247329   4.040   3.579   3.367  0.0834 -0.0695 -0.6813
 8613TIP3    H147330   4.009   3.667   3.344  1.3364  0.1181 -1.7429
 8613TIP3    H247331   3.963   3.523   3.355 -0.4842  0.7307 -0.8858
 8614TIP3   OH247332   3.409   2.198   2.163  0.4057 -0.7186 -0.3132
 8614TIP3    H147333   3.338   2.231   2.108  0.5787 -0.6934 -0.5244
 8614TIP3    H247334   3.384   2.107   2.183 -0.0204 -0.4956  0.1868
 8615TIP3   OH247335   3.532   5.054   0.293 -0.1530  0.8339  0.1435
 8615TIP3    H147336   3.614   5.016   0.327 -1.1260 -0.7152  0.8856
 8615TIP3    H247337   3.483   5.077   0.372 -2.6805 -3.2856  0.0742
 8616TIP3   OH247338   0.731   4.280  14.729  0.0110  0.0604 -0.2530
 8616TIP3    H147339   0.747   4.275  14.635 -1.4157 -0.3375 -0.5028
 8616TIP3    H247340   0.798   4.223  14.768 -1.1087 -2.1021 -1.2731
 8617TIP3   OH247341   1.027   5.958   0.268  0.6463  0.1536  0.2424
 8617TIP3    H147342   1.121   5.952   0.282  0.7802 -1.1537 -0.9868
 8617TIP3    H247343   0.998   6.029   0.325  2.1032 -0.5362  1.9018
 8618TIP3   OH247344   4.546   0.475  17.043  0.3046 -0.6442 -0.7677
 8618TIP3    H147345   4.482   0.404  17.042  1.1277 -1.4362  0.0086
 8618TIP3    H247346   4.631   0.430  17.052  0.7432  0.4772  1.3639
 8619TIP3   OH247347   2.856   0.041  15.954  0.1777  0.3470  0.1026
 8619TIP3    H147348   2.943   0.050  15.913 -0.8430  1.3694 -2.0504
 8619TIP3    H247349   2.861   0.096  16.032  1.6600 -0.1741  0.4189
 8620TIP3   OH247350   0.737   5.300   1.857  0.4949 -0.1637 -0.3438
 8620TIP3    H147351   0.679   5.226   1.840 -0.0298  0.3538 -0.8419
 8620TIP3    H247352   0.704   5.339   1.938  1.2603 -0.9335  0.3647
 8621TIP3   OH247353   0.266   3.257   1.820  0.3472  0.0587  0.8907
 8621TIP3    H147354   0.251   3.205   1.741  0.4949  2.2197 -0.6553
 8621TIP3    H247355   0.182   3.301   1.836  1.1446  1.9941  0.0599
 8622TIP3   OH247356   1.732   1.536  15.290  0.1718 -0.0900  0.0025
 8622TIP3    H147357   1.723   1.630  15.302  1.1124 -0.0891  0.8343
 8622TIP3    H247358   1.655   1.498  15.333  0.0938  0.2662  0.1752
 8623TIP3   OH247359   6.624   4.992  11.750 -0.8079  0.4167  0.2734
 8623TIP3    H147360   6.686   4.993  11.677 -1.4407 -1.5556 -0.3320
 8623TIP3    H247361   6.605   5.085  11.766 -1.7289  0.9042 -3.0115
 8624TIP3   OH247362   1.499   0.060  16.397 -0.2472  0.5568  0.0842
 8624TIP3    H147363   1.442   0.003  16.448  0.9621 -1.4401 -0.6282
 8624TIP3    H247364   1.453   0.071  16.313  0.4627 -1.3736 -0.6404
 8625TIP3   OH247365   1.578   1.851   2.554 -0.3687 -0.0719  0.1596
 8625TIP3    H147366   1.597   1.772   2.504 -0.4475 -1.3662  2.0781
 8625TIP3    H247367   1.489   1.839   2.588 -0.3523  0.7856  0.5516
 8626TIP3   OH247368   5.328   2.899  15.270 -0.3443  0.0830  0.6023
 8626TIP3    H147369   5.321   2.967  15.204  0.5080  0.6896  1.1170
 8626TIP3    H247370   5.274   2.930  15.343 -1.7482 -0.8515  0.0063
 8627TIP3   OH247371   4.525   4.050   2.340 -0.7019 -0.2576  0.4299
 8627TIP3    H147372   4.605   4.091   2.374 -0.6498  0.0262 -0.0198
 8627TIP3    H247373   4.483   4.012   2.417 -0.4361  0.1113  0.7635
 8628TIP3   OH247374   3.497   0.398  11.608 -0.1928  0.2996  0.2150
 8628TIP3    H147375   3.474   0.306  11.594 -0.8916  0.5996 -0.6404
 8628TIP3    H247376   3.575   0.394  11.664  0.7130 -0.8756 -1.0363
 8629TIP3   OH247377   5.939   4.841   3.848 -0.5402  0.2665  0.3841
 8629TIP3    H147378   5.960   4.755   3.885 -2.6971 -1.5438 -2.2366
 8629TIP3    H247379   5.844   4.838   3.834 -0.3947  2.3823 -1.4426
 8630TIP3   OH247380   5.651   2.619   3.750  0.0988  0.5578 -0.0736
 8630TIP3    H147381   5.632   2.528   3.773 -0.6512  0.4673 -0.9825
 8630TIP3    H247382   5.575   2.668   3.782 -0.1509  0.6593 -0.7924
 8631TIP3   OH247383   2.597   6.821   2.169 -0.4234 -0.8559 -0.3467
 8631TIP3    H147384   2.671   6.828   2.109 -1.6369 -1.8406 -2.0779
 8631TIP3    H247385   2.622   6.752   2.230  0.9904  0.4205  0.5758
 8632TIP3   OH247386   2.646   3.870   1.273  0.0186  0.6413 -0.5692
 8632TIP3    H147387   2.562   3.844   1.311  1.3540 -0.8396  1.6190
 8632TIP3    H247388   2.628   3.884   1.180 -3.0852  2.6480  0.2101
 8633TIP3   OH247389   0.371   2.578   1.945  0.1885  0.3700 -0.2391
 8633TIP3    H147390   0.303   2.639   1.917  0.2893  0.3183 -0.6032
 8633TIP3    H247391   0.447   2.632   1.963  0.6448  0.2543 -1.7013
 8634TIP3   OH247392   3.989   2.123   3.633  0.0241  0.8801  0.6685
 8634TIP3    H147393   3.983   2.098   3.725 -3.4397 -1.4627  0.0475
 8634TIP3    H247394   3.920   2.189   3.621 -2.9625 -2.1748 -0.8746
 8635TIP3   OH247395   2.168   2.861   0.215 -0.2464  0.2028  0.3126
 8635TIP3    H147396   2.108   2.794   0.248  0.6100 -1.2437 -0.9427
 8635TIP3    H247397   2.239   2.863   0.279 -0.2364 -0.1567  0.3144
 8636TIP3   OH247398   0.502   5.949  10.653  0.0691 -0.1852 -0.0836
 8636TIP3    H147399   0.481   5.946  10.747  2.8695  0.9251  0.6851
 8636TIP3    H247400   0.420   5.925  10.609 -1.5896  0.1751  2.5952
 8637TIP3   OH247401   6.704   0.361   2.240  0.0022  0.9582 -0.5075
 8637TIP3    H147402   6.793   0.362   2.274 -1.2434  1.1377  3.1857
 8637TIP3    H247403   6.669   0.448   2.261 -1.8963 -0.0730  0.9148
 8638TIP3   OH247404   2.801   3.419  13.918 -0.4005  0.1744  0.9035
 8638TIP3    H147405   2.803   3.326  13.895 -0.6473  0.7078 -1.6206
 8638TIP3    H247406   2.882   3.434  13.966 -0.3961 -1.3526  1.4269
 8639TIP3   OH247407   2.496   3.877  15.414  0.1357  0.0276  0.2135
 8639TIP3    H147408   2.409   3.858  15.377  0.3787  1.0397 -0.9663
 8639TIP3    H247409   2.555   3.819  15.367  0.3641  0.8845 -0.6039
 8640TIP3   OH247410   0.794   5.155  14.085  0.6701  0.1537 -0.0064
 8640TIP3    H147411   0.800   5.059  14.084  0.2643  0.1236  0.3182
 8640TIP3    H247412   0.753   5.175  14.168  2.1571  0.7036  0.6279
 8641TIP3   OH247413   1.485   4.717  12.156 -0.3794 -0.3483 -0.4479
 8641TIP3    H147414   1.517   4.627  12.166 -1.5993 -0.6975  0.5261
 8641TIP3    H247415   1.545   4.757  12.092  0.5574 -1.6545 -0.4199
 8642TIP3   OH247416   0.921   4.497   3.770  0.3776  0.1552 -0.6521
 8642TIP3    H147417   1.003   4.525   3.729 -0.4296  1.0507 -1.7246
 8642TIP3    H247418   0.853   4.546   3.723 -0.7880 -0.6997  0.0941
 8643TIP3   OH247419   2.143   4.058   2.124  0.2142 -0.2488 -0.2483
 8643TIP3    H147420   2.188   4.071   2.040  0.3263  1.2991  0.0237
 8643TIP3    H247421   2.163   4.137   2.174  0.6039 -1.3731  1.4660
 8644TIP3   OH247422   2.740   6.448  15.010 -0.5122 -0.5322  0.0005
 8644TIP3    H147423   2.693   6.449  15.093 -1.4079  0.1620 -0.4913
 8644TIP3    H247424   2.672   6.462  14.944  0.2768 -0.3339 -0.7914
 8645TIP3   OH247425   1.314   2.157  13.051 -0.3219 -0.5659 -0.0706
 8645TIP3    H147426   1.401   2.161  13.011 -0.6946 -2.5386 -1.2451
 8645TIP3    H247427   1.324   2.098  13.126 -0.4096  0.1084  0.4721
 8646TIP3   OH247428   2.113   3.784  13.355  0.5060 -0.1034  0.4323
 8646TIP3    H147429   2.196   3.775  13.402  0.5623 -0.4726  0.2660
 8646TIP3    H247430   2.138   3.809  13.267  0.4617 -0.5148  0.2984
 8647TIP3   OH247431   1.617   5.533   4.356 -0.0211  0.2229 -0.9790
 8647TIP3    H147432   1.528   5.562   4.377 -0.5794 -1.4398 -0.9270
 8647TIP3    H247433   1.674   5.586   4.412 -1.1134 -0.0608  0.4345
 8648TIP3   OH247434   2.786   6.278   2.848  0.2282  0.4782  0.5146
 8648TIP3    H147435   2.818   6.328   2.923  0.3845  0.0592  0.7249
 8648TIP3    H247436   2.854   6.213   2.831 -1.0018 -1.2054  1.7026
 8649TIP3   OH247437   3.283   5.036  16.724  0.0216 -0.4405 -0.2303
 8649TIP3    H147438   3.251   5.000  16.641  2.6730  0.9048 -1.9911
 8649TIP3    H247439   3.262   5.129  16.720 -1.3144 -0.6281  1.4423
 8650TIP3   OH247440   6.752   4.305   5.246  0.1009 -0.1921 -0.2247
 8650TIP3    H147441   6.847   4.296   5.239  0.4392  2.6584 -0.4926
 8650TIP3    H247442   6.726   4.351   5.166 -1.0257  1.6223  1.0808
 8651TIP3   OH247443   2.416   0.620   1.890 -0.1783 -0.0101 -0.0961
 8651TIP3    H147444   2.401   0.681   1.818 -1.2511 -0.0230  0.0944
 8651TIP3    H247445   2.376   0.663   1.966 -0.8162 -0.8660  0.0701
 8652TIP3   OH247446   4.699   2.846  16.858  0.2967  0.2623  0.4360
 8652TIP3    H147447   4.644   2.784  16.907  4.0586 -3.4347  0.4907
 8652TIP3    H247448   4.714   2.918  16.920  0.2777 -1.4938  2.5999
 8653TIP3   OH247449   2.535   3.586   0.277 -0.6070 -0.1893 -0.2613
 8653TIP3    H147450   2.523   3.669   0.231 -1.2828 -0.5551 -0.7602
 8653TIP3    H247451   2.629   3.580   0.291 -0.2041 -0.5791 -2.6252
 8654TIP3   OH247452   3.412   5.897  12.094  0.1899 -0.0180 -0.9743
 8654TIP3    H147453   3.474   5.848  12.040  1.5452  0.1185  0.3817
 8654TIP3    H247454   3.466   5.938  12.162 -1.4286 -0.3477  0.6119
 8655TIP3   OH247455   5.464   0.952  11.088 -0.7303  0.5818  0.3904
 8655TIP3    H147456   5.423   0.867  11.104 -0.3977  0.5158  0.9079
 8655TIP3    H247457   5.424   0.983  11.007 -2.7437  1.0793  1.4930
 8656TIP3   OH247458   5.594   5.499  12.702  0.2534  0.3226 -0.1885
 8656TIP3    H147459   5.529   5.435  12.673  0.7212 -0.5339  0.6219
 8656TIP3    H247460   5.638   5.457  12.775 -0.9675  2.4421  1.9026
 8657TIP3   OH247461   2.711   4.155  17.164  0.2686  0.1956 -0.3508
 8657TIP3    H147462   2.672   4.242  17.165 -1.6984 -0.6479  1.0384
 8657TIP3    H247463   2.740   4.144  17.073 -0.2094  1.9461 -0.7653
 8658TIP3   OH247464   5.856   5.051   5.484  0.0114 -0.4051  0.4271
 8658TIP3    H147465   5.770   5.012   5.501  0.1700 -0.1328  2.0106
 8658TIP3    H247466   5.907   4.981   5.445 -1.0739 -0.4134 -1.0891
 8659TIP3   OH247467   6.713   0.506  16.267 -0.2887  0.2791 -0.2205
 8659TIP3    H147468   6.696   0.600  16.268  1.6139  0.7242  2.8133
 8659TIP3    H247469   6.652   0.471  16.333 -0.3864 -0.4890 -0.7151
 8660TIP3   OH247470   4.751   0.193  13.633 -0.1601 -0.4459  0.7559
 8660TIP3    H147471   4.753   0.115  13.578 -3.6394 -0.1109 -0.0934
 8660TIP3    H247472   4.739   0.160  13.722 -0.1091 -0.9137  0.5901
 8661TIP3   OH247473   1.446   1.298  12.734  0.2571  0.0574 -0.1056
 8661TIP3    H147474   1.474   1.293  12.643 -0.6220  1.1009 -0.4446
 8661TIP3    H247475   1.482   1.219  12.774 -0.9857 -1.4741 -1.8188
 8662TIP3   OH247476   2.789   2.399   5.024 -0.2074 -0.2319  0.3877
 8662TIP3    H147477   2.783   2.493   5.035 -0.4431 -0.1574 -0.3380
 8662TIP3    H247478   2.879   2.377   5.050 -0.0564  0.2352  0.2602
 8663TIP3   OH247479   2.556   3.675   5.831 -0.2067  0.4024 -0.1891
 8663TIP3    H147480   2.489   3.714   5.887  1.2566 -0.5263  2.4038
 8663TIP3    H247481   2.555   3.728   5.752 -1.1150  3.0880  1.4756
 8664TIP3   OH247482   0.291   1.951  15.649 -0.0734  0.3367  0.0311
 8664TIP3    H147483   0.272   1.892  15.722  2.0820  0.7666  1.0132
 8664TIP3    H247484   0.376   1.989  15.670  0.6583  0.4558 -2.7661
 8665TIP3   OH247485   0.447   2.847  14.215  0.0048 -0.2394  0.0427
 8665TIP3    H147486   0.364   2.894  14.214  0.5360  0.7201  0.2682
 8665TIP3    H247487   0.514   2.915  14.209  0.7696 -1.1216 -2.6719
 8666TIP3   OH247488   2.667   6.491   6.198 -0.1243 -0.0175 -0.6770
 8666TIP3    H147489   2.613   6.539   6.136 -1.2614 -0.0121  0.2781
 8666TIP3    H247490   2.607   6.428   6.238 -0.0967  1.5912  2.1421
 8667TIP3   OH247491   1.955   5.258   2.728 -0.8573  0.2677  0.0596
 8667TIP3    H147492   1.985   5.180   2.682 -0.4787  0.1647  0.4729
 8667TIP3    H247493   1.989   5.331   2.675  0.0426  0.1509  0.4585
 8668TIP3   OH247494   0.815   3.581   3.033  0.2875  0.3102  0.5547
 8668TIP3    H147495   0.796   3.540   2.949  0.1268 -2.6827  1.9265
 8668TIP3    H247496   0.806   3.675   3.017 -0.9406 -0.2212 -2.4264
 8669TIP3   OH247497   5.552   1.003  11.580 -0.1756 -0.5744  0.3333
 8669TIP3    H147498   5.507   1.027  11.498  0.0483 -1.1066  0.0490
 8669TIP3    H247499   5.484   1.010  11.647  0.3623  3.1331  0.6903
 8670TIP3   OH247500   2.970   4.514  15.033 -0.2328 -0.1368 -0.4798
 8670TIP3    H147501   2.940   4.424  15.047 -0.4110  0.3695  3.2332
 8670TIP3    H247502   2.910   4.568  15.084  2.0533  1.6968  0.4537
 8671TIP3   OH247503   3.295   3.683  17.103  0.1114 -0.0052 -0.1878
 8671TIP3    H147504   3.351   3.714  17.032  1.8051  0.2542  1.2033
 8671TIP3    H247505   3.314   3.741  17.176 -2.0681  0.1336  0.3307
 8672TIP3   OH247506   4.268   5.304   4.387 -0.1992  0.8175  0.4281
 8672TIP3    H147507   4.343   5.283   4.444  0.4251 -0.7968 -0.9257
 8672TIP3    H247508   4.246   5.394   4.410  2.7711  1.6895  0.2228
 8673TIP3   OH247509   0.854   3.161  14.647 -0.4478 -0.7141  0.5373
 8673TIP3    H147510   0.870   3.068  14.628  1.3339 -0.9916  2.9646
 8673TIP3    H247511   0.940   3.202  14.639 -1.5153  1.2214 -2.4389
 8674TIP3   OH247512   5.103   5.871  13.962 -0.5356 -0.4635 -0.2019
 8674TIP3    H147513   5.181   5.912  13.999 -0.9016  1.0453 -1.0245
 8674TIP3    H247514   5.030   5.920  13.999 -1.1081 -1.6762  0.3387
 8675TIP3   OH247515   0.222   4.455   4.962  0.2291  0.0454  0.0219
 8675TIP3    H147516   0.228   4.372   5.009  1.5244  1.5420  2.7096
 8675TIP3    H247517   0.138   4.493   4.989 -0.5996 -0.5069 -1.5895
 8676TIP3   OH247518   3.519   2.111   4.551 -0.0334  0.7749  0.0656
 8676TIP3    H147519   3.514   2.079   4.641  0.9977  0.9249  0.1912
 8676TIP3    H247520   3.462   2.052   4.501  1.0870 -0.7021  0.4448
 8677TIP3   OH247521   5.604   3.576  10.882 -0.1810 -0.1800  0.4447
 8677TIP3    H147522   5.579   3.563  10.790 -0.4250  0.7380  0.3752
 8677TIP3    H247523   5.543   3.643  10.914 -0.7486 -1.2042  1.5654
 8678TIP3   OH247524   5.594   2.712   5.666  0.2607  0.2057  0.5873
 8678TIP3    H147525   5.564   2.799   5.693 -2.4875 -0.9974  1.7373
 8678TIP3    H247526   5.561   2.702   5.577  0.8217  0.4335  0.3510
 8679TIP3   OH247527   6.282   6.438  14.705 -0.2358 -0.0860 -0.4829
 8679TIP3    H147528   6.259   6.345  14.709 -0.2586 -0.0332  0.8122
 8679TIP3    H247529   6.209   6.483  14.748  0.7462  0.3500  0.7695
 8680TIP3   OH247530   5.711   2.094  12.964 -0.2606  0.0757 -0.3973
 8680TIP3    H147531   5.799   2.059  12.978 -0.4861 -0.1728  0.4826
 8680TIP3    H247532   5.696   2.085  12.870  0.8332  0.5604 -0.6328
 8681TIP3   OH247533   0.525   4.149   4.148  0.2218  0.6542 -0.0566
 8681TIP3    H147534   0.594   4.198   4.103 -0.0501 -0.6156 -1.9834
 8681TIP3    H247535   0.498   4.206   4.220  1.4004  2.3616 -0.8946
 8682TIP3   OH247536   6.129   3.842  11.642  0.5332 -0.2912 -0.0161
 8682TIP3    H147537   6.083   3.764  11.612 -2.6719  1.9833 -1.5945
 8682TIP3    H247538   6.193   3.860  11.573 -0.3095 -0.2626 -0.8033
 8683TIP3   OH247539   6.653   5.941  14.884  0.0702 -0.5507 -0.6739
 8683TIP3    H147540   6.740   5.901  14.887  0.1785 -0.2661  0.2985
 8683TIP3    H247541   6.667   6.025  14.841 -0.0283 -1.2036 -2.0385
 8684TIP3   OH247542   0.360   6.302   2.465 -0.1827 -0.1697 -0.6712
 8684TIP3    H147543   0.305   6.255   2.403 -0.3689 -1.5556  0.5187
 8684TIP3    H247544   0.353   6.253   2.546  1.5573  0.5327 -0.0543
 8685TIP3   OH247545   3.818   0.943  14.247  0.1332  0.1609 -0.1259
 8685TIP3    H147546   3.723   0.942  14.230  0.1897 -0.2523 -0.4243
 8685TIP3    H247547   3.852   1.010  14.188  0.0587  0.1444 -0.1879
 8686TIP3   OH247548   6.283   4.839  11.570  0.1356  0.2629 -0.5273
 8686TIP3    H147549   6.280   4.928  11.534 -2.1221  0.0568 -1.0475
 8686TIP3    H247550   6.209   4.836  11.631  0.8689 -0.9384  0.3492
 8687TIP3   OH247551   3.315   1.610  16.244 -0.3346  0.0396  0.5398
 8687TIP3    H147552   3.322   1.519  16.217 -0.8876  1.0355 -3.7753
 8687TIP3    H247553   3.396   1.651  16.213 -1.7585  1.6626 -1.2859
 8688TIP3   OH247554   3.538   2.768   4.226  0.5888 -0.0222  0.4157
 8688TIP3    H147555   3.605   2.745   4.290  0.4976 -0.6660  0.2866
 8688TIP3    H247556   3.569   2.850   4.186  1.6148 -0.6500 -0.0914
 8689TIP3   OH247557   0.652   1.788  16.317 -0.0854 -0.3641  0.6673
 8689TIP3    H147558   0.743   1.777  16.286 -0.4671  2.2746 -1.9154
 8689TIP3    H247559   0.649   1.743  16.401  3.4308 -1.1540  0.5179
 8690TIP3   OH247560   5.668   2.537  12.399 -0.0176 -0.7477  0.1797
 8690TIP3    H147561   5.742   2.596  12.412 -0.3856  0.0594 -1.1358
 8690TIP3    H247562   5.615   2.547  12.478  1.3642 -1.5257  1.2533
 8691TIP3   OH247563   2.289   0.074  11.013  0.1381  0.0672 -0.3192
 8691TIP3    H147564   2.280   0.146  11.075  0.2253 -0.3998  0.2543
 8691TIP3    H247565   2.357   0.018  11.051  0.6155  0.0658 -1.1357
 8692TIP3   OH247566   1.502   1.943   1.950  0.2269  0.0063  0.2907
 8692TIP3    H147567   1.554   2.022   1.964  0.7218 -0.3563  0.4929
 8692TIP3    H247568   1.505   1.896   2.033 -0.5113  0.0243  0.3407
 8693TIP3   OH247569   0.417   2.406  13.743 -0.1499  0.1851 -0.0673
 8693TIP3    H147570   0.446   2.410  13.834  0.7957  0.6126 -0.3772
 8693TIP3    H247571   0.324   2.384  13.749 -1.0277  3.5865  1.1476
 8694TIP3   OH247572   0.215   1.165  15.584  0.0557 -0.0078 -1.0317
 8694TIP3    H147573   0.138   1.182  15.638  0.7272  0.4405 -0.1687
 8694TIP3    H247574   0.289   1.180  15.644  0.7944 -1.0429 -1.6626
 8695TIP3   OH247575   3.409   1.622   4.967  0.0156  0.0530 -0.2045
 8695TIP3    H147576   3.345   1.556   4.939 -0.0161  0.3623 -0.8974
 8695TIP3    H247577   3.480   1.572   5.007  0.7764 -0.5907 -2.2030
 8696TIP3   OH247578   5.612   6.473  11.355  0.3883  0.7377 -0.3196
 8696TIP3    H147579   5.516   6.473  11.358  0.3920  2.0793  0.2285
 8696TIP3    H247580   5.638   6.504  11.442  1.3711 -1.3620  0.1843
 8697TIP3   OH247581   0.756   3.968  12.230 -0.5325  0.6184  0.1153
 8697TIP3    H147582   0.735   4.055  12.264 -1.0093  0.2834  0.7027
 8697TIP3    H247583   0.720   3.908  12.295  0.6678 -0.0090  0.2185
 8698TIP3   OH247584   3.656   6.727   0.247 -0.2132  0.0375  0.1981
 8698TIP3    H147585   3.593   6.663   0.279 -1.2410 -0.2841 -2.2516
 8698TIP3    H247586   3.645   6.802   0.306 -1.6235 -0.6623  0.8836
 8699TIP3   OH247587   0.016   5.636  12.855  0.0791  0.3294  0.2188
 8699TIP3    H147588   0.033   5.569  12.921  2.9753  0.1682 -0.5305
 8699TIP3    H247589   0.033   5.719  12.899 -0.3735  0.3723  0.3123
 8700TIP3   OH247590   2.532   5.466   4.445 -0.2507 -0.2299  0.3047
 8700TIP3    H147591   2.549   5.410   4.369 -0.5547  0.0065  0.0576
 8700TIP3    H247592   2.580   5.425   4.516 -0.3297 -0.7091  0.0859
 8701TIP3   OH247593   2.747   2.197   3.890 -0.5537 -0.2209 -0.1808
 8701TIP3    H147594   2.714   2.167   3.805 -1.3448  0.1887 -0.0308
 8701TIP3    H247595   2.812   2.264   3.868 -0.6144 -0.2540 -0.4705
 8702TIP3   OH247596   5.767   3.241   5.682  0.4626  0.6477  0.0193
 8702TIP3    H147597   5.767   3.320   5.628 -0.1452  0.6753  0.0543
 8702TIP3    H247598   5.764   3.274   5.772  1.2085  0.5961  0.0772
 8703TIP3   OH247599   2.046   5.408  16.847 -0.1728  0.6942 -0.0050
 8703TIP3    H147600   2.028   5.326  16.801 -2.9738  0.7786  0.7672
 8703TIP3    H247601   2.093   5.382  16.926  1.3608  0.1785 -1.0319
 8704TIP3   OH247602   2.713   5.596  12.119  0.7987  0.3935 -0.5792
 8704TIP3    H147603   2.635   5.633  12.078  0.7460 -0.0661 -0.8913
 8704TIP3    H247604   2.785   5.651  12.088  0.5954  0.8891 -0.2010
 8705TIP3   OH247605   0.243   5.141   1.275 -0.3202 -0.0935  0.0896
 8705TIP3    H147606   0.172   5.097   1.228 -0.9262 -0.5106  1.3580
 8705TIP3    H247607   0.276   5.207   1.213 -1.0746 -0.6343 -0.9122
 8706TIP3   OH247608   5.975   4.489  12.721  0.0769 -0.1152  0.4201
 8706TIP3    H147609   5.974   4.450  12.808  1.4438  1.4274  1.1889
 8706TIP3    H247610   5.960   4.583  12.737  1.0680  0.2998 -0.9081
 8707TIP3   OH247611   1.438   4.834  14.147  0.5737  0.0046 -0.7567
 8707TIP3    H147612   1.496   4.880  14.086  1.4067  0.4784  0.3556
 8707TIP3    H247613   1.493   4.817  14.224 -1.7183  4.5452  2.3847
 8708TIP3   OH247614   4.114   6.396   2.311  0.2750  0.5513  0.1177
 8708TIP3    H147615   4.182   6.410   2.377  2.1264  0.0380 -1.5713
 8708TIP3    H247616   4.079   6.309   2.330  2.7423 -0.8111 -1.1164
 8709TIP3   OH247617   3.275   1.669   6.200  0.0580  0.1247 -0.2261
 8709TIP3    H147618   3.351   1.705   6.246  1.0336 -1.1246 -0.7573
 8709TIP3    H247619   3.302   1.668   6.108 -0.8334  0.1928 -0.4938
 8710TIP3   OH247620   6.783   4.960   1.852  0.1723 -0.3529 -0.4008
 8710TIP3    H147621   6.734   4.898   1.797  0.2654 -1.1341  0.3734
 8710TIP3    H247622   6.796   4.914   1.935 -0.5399  1.0344  0.5381
 8711TIP3   OH247623   6.308   1.361  16.285  0.1146  0.5028  0.2990
 8711TIP3    H147624   6.382   1.305  16.307 -1.1662 -1.7254 -0.7196
 8711TIP3    H247625   6.347   1.447  16.267  2.3427 -0.4265  0.4530
 8712TIP3   OH247626   2.819   2.115  14.165 -0.2764 -0.0810  0.1894
 8712TIP3    H147627   2.829   2.146  14.075 -0.4543 -0.7719 -0.0727
 8712TIP3    H247628   2.888   2.160  14.214 -0.3805  0.5485 -0.2233
 8713TIP3   OH247629   0.808   4.802  11.749 -0.6664  0.2052  0.6742
 8713TIP3    H147630   0.867   4.865  11.790  0.6092 -1.1007  0.9470
 8713TIP3    H247631   0.803   4.730  11.811 -1.2488 -0.4119 -0.0656
 8714TIP3   OH247632   5.123   3.831   2.766 -0.5546  0.8182 -0.0865
 8714TIP3    H147633   5.152   3.780   2.690 -0.2753 -1.0697  1.2090
 8714TIP3    H247634   5.037   3.795   2.786 -0.1352  0.4811  1.1638
 8715TIP3   OH247635   2.191   5.306  16.137 -0.3540 -0.8003 -0.5405
 8715TIP3    H147636   2.239   5.224  16.152 -0.7841 -0.6332  2.2807
 8715TIP3    H247637   2.100   5.280  16.127 -0.6896 -0.6571  1.6828
 8716TIP3   OH247638   3.330   4.351   0.246 -0.4109  0.1032 -0.1794
 8716TIP3    H147639   3.302   4.352   0.155 -1.3949 -0.2231  0.1062
 8716TIP3    H247640   3.329   4.443   0.273  1.8884  0.4313 -1.0664
 8717TIP3   OH247641   0.849   5.833   0.822  0.5382 -0.1218 -0.1164
 8717TIP3    H147642   0.891   5.894   0.760 -0.6386 -0.3772 -1.2051
 8717TIP3    H247643   0.757   5.858   0.822  0.7740  1.2815  3.2438
 8718TIP3   OH247644   0.799   2.315   5.966 -0.0198  0.2624  0.1734
 8718TIP3    H147645   0.872   2.375   5.953  1.4080 -1.0895  1.5163
 8718TIP3    H247646   0.760   2.342   6.049 -0.3537  0.2726  0.0183
 8719TIP3   OH247647   4.951   2.684  11.747 -0.6867  0.1197  0.2829
 8719TIP3    H147648   4.903   2.756  11.706 -2.3554 -1.8385 -1.4456
 8719TIP3    H247649   4.907   2.605  11.716  1.6751 -1.7199  1.2805
 8720TIP3   OH247650   5.878   1.156   5.093 -0.2418 -0.5965  0.0338
 8720TIP3    H147651   5.878   1.228   5.029  0.0196  1.5753  2.3385
 8720TIP3    H247652   5.791   1.117   5.086 -0.9674  0.9941 -0.1795
 8721TIP3   OH247653   1.716   0.263   6.211 -0.0504 -1.4554  0.1069
 8721TIP3    H147654   1.652   0.292   6.276  2.0648 -0.1920  1.7769
 8721TIP3    H247655   1.791   0.233   6.263  1.8286 -0.1960 -1.7049
 8722TIP3   OH247656   1.211   3.919   5.911  0.0551 -0.4623 -0.0842
 8722TIP3    H147657   1.262   3.976   5.854  1.5896  0.5990  2.1851
 8722TIP3    H247658   1.121   3.929   5.881  0.6431  0.9853 -1.5152
 8723TIP3   OH247659   3.360   1.315   0.220  0.1874  0.4398  0.3721
 8723TIP3    H147660   3.406   1.257   0.159 -0.9553  2.4585 -2.6565
 8723TIP3    H247661   3.430   1.354   0.272  1.3160 -0.8007 -0.1490
 8724TIP3   OH247662   4.528   4.795  14.498  0.3183  0.6672 -0.0959
 8724TIP3    H147663   4.433   4.799  14.501  0.3596  3.3560 -0.2192
 8724TIP3    H247664   4.547   4.710  14.459 -1.9903 -0.2112  0.5294
 8725TIP3   OH247665   0.173   5.239   0.071  0.0231  0.5108  0.5935
 8725TIP3    H147666   0.099   5.246   0.132 -0.0597  0.5485  0.4877
 8725TIP3    H247667   0.239   5.298   0.107  0.6350 -0.7366  1.6076
 8726TIP3   OH247668   3.305   6.040  11.269 -0.3907 -0.2207  0.1768
 8726TIP3    H147669   3.325   6.111  11.208 -2.4707 -1.1849 -1.7492
 8726TIP3    H247670   3.260   6.083  11.342  1.3106  0.8209  0.6730
 8727TIP3   OH247671   4.780   6.156  16.456  0.1838  0.2881  0.5493
 8727TIP3    H147672   4.732   6.074  16.462  0.2993  0.1316 -0.4815
 8727TIP3    H247673   4.861   6.141  16.505 -0.4497  0.2924  1.6169
 8728TIP3   OH247674   4.263   5.601   1.047  0.0447  0.2222 -0.2418
 8728TIP3    H147675   4.278   5.580   1.140  0.5128 -0.4097 -0.4537
 8728TIP3    H247676   4.349   5.626   1.014  0.0729 -0.4840 -0.7330
 8729TIP3   OH247677   3.685   0.238   2.144  0.0083  0.1706 -0.0893
 8729TIP3    H147678   3.668   0.233   2.238 -1.7799  0.8612 -0.3349
 8729TIP3    H247679   3.778   0.218   2.136  0.0573 -0.6339  1.7494
 8730TIP3   OH247680   5.797   2.790  11.915  0.0283  0.2617 -0.2899
 8730TIP3    H147681   5.777   2.753  11.829  0.6747  1.0734 -0.8034
 8730TIP3    H247682   5.743   2.869  11.921  0.1523  0.3295 -0.0459
 8731TIP3   OH247683   5.832   6.203  12.634 -0.4228  0.1607  0.1637
 8731TIP3    H147684   5.877   6.148  12.570 -0.5331 -1.1133  1.1349
 8731TIP3    H247685   5.753   6.233  12.588 -0.5559 -0.8222 -0.2842
 8732TIP3   OH247686   1.677   0.756   3.464  0.3634  0.2391 -0.0442
 8732TIP3    H147687   1.621   0.681   3.448 -0.5956  1.1243 -1.0013
 8732TIP3    H247688   1.628   0.831   3.431  0.2383  1.6583  2.9726
 8733TIP3   OH247689   1.877   0.791   3.127 -0.1883  0.5887 -0.1814
 8733TIP3    H147690   1.918   0.791   3.213 -2.5020  0.0113  1.0011
 8733TIP3    H247691   1.870   0.699   3.103  0.7293  0.7595 -1.1552
 8734TIP3   OH247692   2.123   3.087   1.542 -0.0869 -0.1490  0.1346
 8734TIP3    H147693   2.054   3.061   1.603 -0.3600  0.3795  0.0531
 8734TIP3    H247694   2.080   3.147   1.481  0.0300 -1.1512 -0.9595
 8735TIP3   OH247695   5.516   0.261  15.093  0.5849 -0.1088  0.7118
 8735TIP3    H147696   5.476   0.177  15.070 -0.8355  0.4244  1.1212
 8735TIP3    H247697   5.512   0.264  15.189 -0.2714  0.8226  0.6648
 8736TIP3   OH247698   6.387   4.698  16.867  0.5143 -0.2403  0.1579
 8736TIP3    H147699   6.323   4.752  16.820  2.1173  0.7924 -0.9337
 8736TIP3    H247700   6.352   4.609  16.861 -0.5204  0.2099 -0.9226
 8737TIP3   OH247701   4.589   3.838  13.641  0.2224  0.2218 -0.2322
 8737TIP3    H147702   4.506   3.839  13.688 -1.0103  0.1597 -2.2820
 8737TIP3    H247703   4.655   3.820  13.709 -1.7159 -3.1407  1.0342
 8738TIP3   OH247704   5.654   1.907  11.077  0.0260  0.6380  0.4970
 8738TIP3    H147705   5.687   1.982  11.125  1.2913  0.2999  0.2026
 8738TIP3    H247706   5.676   1.831  11.131  2.2733  0.1706 -0.9185
 8739TIP3   OH247707   5.436   2.711   5.157 -0.6381  0.4772  0.0189
 8739TIP3    H147708   5.343   2.704   5.137 -0.9432  1.5046  0.9752
 8739TIP3    H247709   5.480   2.677   5.079 -1.7904 -2.6316  0.5814
 8740TIP3   OH247710   2.947   5.745  12.067  0.1874  0.2337 -0.4048
 8740TIP3    H147711   2.927   5.803  11.994  1.4494 -0.1583 -1.1044
 8740TIP3    H247712   3.030   5.704  12.042  1.2545  0.9228  1.7434
 8741TIP3   OH247713   6.490   1.677   1.368 -0.5948  0.5474  0.0120
 8741TIP3    H147714   6.492   1.601   1.426  0.6806  0.1180 -0.5567
 8741TIP3    H247715   6.506   1.641   1.281  0.6793  1.5135 -0.1845
 8742TIP3   OH247716   2.216   4.352   3.094 -0.1651 -0.1597 -0.6202
 8742TIP3    H147717   2.207   4.257   3.089 -1.2637 -0.3878  3.1729
 8742TIP3    H247718   2.134   4.382   3.135  0.6308  2.3073 -0.6720
 8743TIP3   OH247719   0.876   4.044   4.120  0.8906 -0.1110 -0.5244
 8743TIP3    H147720   0.845   4.048   4.210  0.8984 -1.1315 -0.4653
 8743TIP3    H247721   0.796   4.042   4.067  0.8654 -0.9927 -0.4608
 8744TIP3   OH247722   3.533   1.881  15.092 -0.0096  0.0245 -0.0894
 8744TIP3    H147723   3.540   1.830  15.012 -2.9220 -1.9723  0.7534
 8744TIP3    H247724   3.453   1.932  15.081  0.5589  1.1858  0.8501
 8745TIP3   OH247725   6.336   1.175  12.315 -0.0279  0.3289 -0.1202
 8745TIP3    H147726   6.322   1.121  12.237 -0.5998  1.2692 -0.6820
 8745TIP3    H247727   6.328   1.265  12.284  0.5397  0.7446  0.8759
 8746TIP3   OH247728   4.861   3.192   3.185 -0.1272 -0.4236  0.0234
 8746TIP3    H147729   4.895   3.276   3.152 -0.4403 -0.7012 -1.0467
 8746TIP3    H247730   4.816   3.214   3.266  2.0731  0.0567  1.1869
 8747TIP3   OH247731   0.969   3.877  14.400  0.4962 -0.2027 -0.1888
 8747TIP3    H147732   0.936   3.807  14.343 -0.6854  0.0175  0.1945
 8747TIP3    H247733   0.965   3.841  14.488 -1.1747  0.6808  0.1421
 8748TIP3   OH247734   6.153   6.657  13.971  0.4915 -0.5702  0.2384
 8748TIP3    H147735   6.184   6.586  13.916 -1.5020 -0.9846 -0.4204
 8748TIP3    H247736   6.108   6.614  14.043 -2.0428 -0.0669 -0.9334
 8749TIP3   OH247737   3.894   3.953  15.493 -0.2507 -0.6201 -0.0901
 8749TIP3    H147738   3.881   3.954  15.398 -0.1900 -0.3115 -0.0966
 8749TIP3    H247739   3.904   3.860  15.515 -0.0550 -0.6763 -0.4137
 8750TIP3   OH247740   6.688   2.943  15.788 -0.5765  0.0962 -0.5632
 8750TIP3    H147741   6.633   3.010  15.827  0.5501 -0.2061  1.7454
 8750TIP3    H247742   6.727   2.898  15.863  0.5619 -1.5631 -2.0675
 8751TIP3   OH247743   3.502   0.689  13.311  0.2094  0.3812  0.3493
 8751TIP3    H147744   3.437   0.735  13.257 -0.7192 -1.5636 -0.2641
 8751TIP3    H247745   3.466   0.602  13.324  1.5430  0.0457  2.1634
 8752TIP3   OH247746   1.338   4.294  13.782 -0.2107 -0.2179 -0.0587
 8752TIP3    H147747   1.343   4.300  13.687  0.4786 -0.7362 -0.0670
 8752TIP3    H247748   1.419   4.249  13.808 -0.7746 -0.8420  0.6947
 8753TIP3   OH247749   1.913   3.332   2.824  0.2487 -0.4798 -0.3802
 8753TIP3    H147750   1.883   3.318   2.735  1.7636 -0.0556 -0.9844
 8753TIP3    H247751   1.941   3.424   2.827  0.4103 -0.5437  0.4529
 8754TIP3   OH247752   6.016   1.520   2.342  0.0709  0.4273  0.2271
 8754TIP3    H147753   6.057   1.577   2.407 -1.1786 -1.7365  3.1480
 8754TIP3    H247754   5.926   1.510   2.372  0.1163 -2.6307 -0.3517
 8755TIP3   OH247755   0.377   4.970   4.923 -0.1607  0.0356  0.5030
 8755TIP3    H147756   0.404   5.050   4.879  0.3865 -0.1509  0.4851
 8755TIP3    H247757   0.457   4.917   4.928 -0.5661 -0.6184  0.2777
 8756TIP3   OH247758   4.480   2.318   4.095 -0.0973  0.1991  0.3662
 8756TIP3    H147759   4.567   2.352   4.117  0.0472 -0.2970  0.5781
 8756TIP3    H247760   4.451   2.275   4.175 -0.9675  1.2271  0.6163
 8757TIP3   OH247761   5.498   3.626   4.035 -0.2326  0.0811 -0.4583
 8757TIP3    H147762   5.436   3.590   4.099 -0.6952 -1.2148 -1.5961
 8757TIP3    H247763   5.566   3.667   4.089 -0.9404 -0.4020  0.8543
 8758TIP3   OH247764   2.269   3.635   4.306 -0.2447  0.6205 -0.2749
 8758TIP3    H147765   2.219   3.666   4.381 -0.5234  0.9570 -0.5953
 8758TIP3    H247766   2.246   3.542   4.298  2.5644 -0.4847  2.2893
 8759TIP3   OH247767   4.881   3.358   3.815  0.2805 -0.5345  0.6244
 8759TIP3    H147768   4.879   3.270   3.850 -0.4963 -0.3389  1.1085
 8759TIP3    H247769   4.954   3.358   3.753 -0.5033 -1.8931 -0.3560
 8760TIP3   OH247770   4.004   3.016  11.711 -0.3485  0.4258 -0.2930
 8760TIP3    H147771   4.045   3.069  11.780 -1.8555  0.4468  0.6441
 8760TIP3    H247772   3.985   3.078  11.641  1.3733  0.3706 -0.8618
 8761TIP3   OH247773   6.513   3.051  11.422 -0.1639  0.0920 -0.6349
 8761TIP3    H147774   6.588   3.055  11.362 -0.1093  0.2361 -0.5575
 8761TIP3    H247775   6.520   3.131  11.474 -0.8361  0.5234 -1.1824
 8762TIP3   OH247776   4.352   6.067  10.910  0.4042  0.0759  0.4452
 8762TIP3    H147777   4.272   6.061  10.858  2.3342 -1.2417 -2.6314
 8762TIP3    H247778   4.366   5.978  10.942  1.1494  0.0771  0.1260
 8763TIP3   OH247779   6.799   0.912  15.522 -0.0124  0.4252 -0.3486
 8763TIP3    H147780   6.854   0.961  15.461 -0.5843 -0.4974 -1.6734
 8763TIP3    H247781   6.857   0.889  15.594  0.6240  1.7753 -0.4025
 8764TIP3   OH247782   3.567   0.941   3.370  0.0027  0.2850  0.3145
 8764TIP3    H147783   3.549   0.870   3.308  0.1373  0.7269 -0.2306
 8764TIP3    H247784   3.611   1.008   3.318  1.8812 -0.1387  1.2644
 8765TIP3   OH247785   3.266   4.368  12.053 -0.1025  0.7804  0.1103
 8765TIP3    H147786   3.303   4.280  12.042 -0.5441  0.4877  0.9809
 8765TIP3    H247787   3.262   4.403  11.963 -0.1774 -0.1833 -0.2732
 8766TIP3   OH247788   0.997   5.681   0.532 -0.1486  0.1827 -0.4506
 8766TIP3    H147789   1.032   5.595   0.556  0.9241  0.2440 -1.6810
 8766TIP3    H247790   1.022   5.738   0.605  2.1887  0.1682 -1.1542
 8767TIP3   OH247791   3.149   4.994   2.378  0.0212 -0.7655 -0.2223
 8767TIP3    H147792   3.234   4.957   2.355 -0.0315 -1.4058  0.5498
 8767TIP3    H247793   3.087   4.953   2.318  0.2573 -0.2966 -0.7869
 8768TIP3   OH247794   2.788   1.380   0.461  0.0158  0.0929 -0.1250
 8768TIP3    H147795   2.824   1.292   0.467  1.7142  0.7216 -0.5063
 8768TIP3    H247796   2.862   1.438   0.478 -1.3238  1.4620  1.4062
 8769TIP3   OH247797   1.283   4.693   0.842  0.3530 -0.4015  0.0915
 8769TIP3    H147798   1.273   4.785   0.862  1.5368 -0.1654 -0.2970
 8769TIP3    H247799   1.200   4.668   0.800  0.1832  0.5826 -0.1814
 8770TIP3   OH247800   2.207   0.971  15.577 -0.0525  0.2126  0.6568
 8770TIP3    H147801   2.138   0.936  15.633 -1.3115  0.9964 -0.3651
 8770TIP3    H247802   2.171   0.969  15.489  0.7049  1.8800  0.2617
 8771TIP3   OH247803   4.301   0.130   5.940  0.4180  0.3427  0.4134
 8771TIP3    H147804   4.266   0.209   5.983 -1.7051  1.1202 -2.4659
 8771TIP3    H247805   4.245   0.059   5.972 -0.6426  0.7917 -0.3758
 8772TIP3   OH247806   2.021   3.863  16.999  0.3190 -0.3946  0.5976
 8772TIP3    H147807   2.109   3.834  16.978  0.1085 -0.0064 -0.9202
 8772TIP3    H247808   2.033   3.932  17.064  1.0122 -1.4866  1.6609
 8773TIP3   OH247809   4.716   1.854  16.506  0.6664 -0.6355  0.8706
 8773TIP3    H147810   4.689   1.946  16.511 -0.0243 -0.6773 -1.1072
 8773TIP3    H247811   4.799   1.851  16.553  0.4899  0.9194  1.3418
 8774TIP3   OH247812   3.799   5.903  15.130  0.0567 -0.3706  0.1182
 8774TIP3    H147813   3.765   5.980  15.084  0.6167  0.4950  1.1133
 8774TIP3    H247814   3.762   5.829  15.083  0.5768  0.4703 -1.7232
 8775TIP3   OH247815   4.132   6.268   0.867 -0.0651 -0.3396 -0.0912
 8775TIP3    H147816   4.183   6.237   0.792  0.4905  1.6618 -0.6093
 8775TIP3    H247817   4.085   6.345   0.833  0.4281  0.7865  1.6619
 8776TIP3   OH247818   4.475   4.375   4.955 -0.5779 -0.6540 -0.2017
 8776TIP3    H147819   4.401   4.429   4.983  0.4780  0.2693  0.9381
 8776TIP3    H247820   4.528   4.364   5.035  0.7181 -0.9483 -1.0683
 8777TIP3   OH247821   6.519   1.069  13.562 -0.3768 -0.4622 -0.4675
 8777TIP3    H147822   6.433   1.106  13.581  0.2597  0.5542  0.5383
 8777TIP3    H247823   6.573   1.094  13.636  0.9254 -0.6741 -1.3111
 8778TIP3   OH247824   3.131   2.210   3.371  0.7218  0.1492 -0.8036
 8778TIP3    H147825   3.091   2.174   3.450  0.8357  0.2749 -0.6877
 8778TIP3    H247826   3.208   2.154   3.357 -0.0473 -0.7417 -1.6113
 8779TIP3   OH247827   4.191   5.789  10.883 -0.5029 -0.0254 -0.2587
 8779TIP3    H147828   4.285   5.772  10.887 -0.4383  0.5531  1.5500
 8779TIP3    H247829   4.184   5.874  10.839 -0.2891 -0.7126 -1.6515
 8780TIP3   OH247830   0.452   6.688   1.313  0.1989  0.0982  0.2526
 8780TIP3    H147831   0.507   6.609   1.308  0.4144  0.1068  2.0259
 8780TIP3    H247832   0.417   6.698   1.224  3.4241  0.3734 -1.1466
 8781TIP3   OH247833   0.778   6.303   3.240 -0.0970  0.9201 -0.0667
 8781TIP3    H147834   0.811   6.287   3.328 -0.4142 -0.0088 -0.1062
 8781TIP3    H247835   0.763   6.216   3.204 -0.2781  1.2974 -0.9226
 8782TIP3   OH247836   6.073   4.479  12.051 -0.2496  0.5118 -0.0106
 8782TIP3    H147837   6.024   4.469  12.132 -1.5634  0.4913 -0.7882
 8782TIP3    H247838   6.137   4.408  12.053  0.6828  1.3277  1.6266
 8783TIP3   OH247839   5.105   6.015   6.310  0.3723  0.3919  0.4822
 8783TIP3    H147840   5.082   5.970   6.229  1.9763 -1.8775  1.2105
 8783TIP3    H247841   5.039   5.985   6.373  0.1151  0.8509  0.4363
 8784TIP3   OH247842   1.597   2.243  12.508 -0.6569  0.5273 -0.5647
 8784TIP3    H147843   1.678   2.220  12.464  0.2634  2.1578  0.2008
 8784TIP3    H247844   1.577   2.167  12.563 -0.4516 -0.4677 -1.8174
 8785TIP3   OH247845   1.885   1.797  13.707 -0.6514 -0.9174 -0.1348
 8785TIP3    H147846   1.957   1.740  13.681  0.3928  1.0994 -2.0473
 8785TIP3    H247847   1.928   1.878  13.735 -2.1240  0.3912 -1.4438
 8786TIP3   OH247848   5.419   6.627  14.122  0.6424 -0.0627 -0.4322
 8786TIP3    H147849   5.397   6.690  14.192 -0.1614  0.9448 -1.5471
 8786TIP3    H247850   5.367   6.656  14.047  1.5769 -1.0567 -1.4936
 8787TIP3   OH247851   0.882   3.419  16.549 -0.4264 -0.2094  0.3784
 8787TIP3    H147852   0.807   3.440  16.493 -1.5370 -0.5640  1.6780
 8787TIP3    H247853   0.954   3.469  16.512 -1.2969  0.1562 -0.9058
 8788TIP3   OH247854   3.439   0.372   2.189  0.3913  0.0935 -0.7048
 8788TIP3    H147855   3.479   0.455   2.216  1.1917 -0.3550 -0.4813
 8788TIP3    H247856   3.513   0.314   2.170 -0.1586 -0.2400 -1.9291
 8789TIP3   OH247857   4.764   0.780  11.549 -0.2225  0.0160 -0.2011
 8789TIP3    H147858   4.808   0.696  11.540 -0.9936 -0.3344 -0.8049
 8789TIP3    H247859   4.805   0.835  11.482  0.2794  0.1247  0.1910
 8790TIP3   OH247860   5.714   4.714  15.726  0.2932  0.6131  0.4504
 8790TIP3    H147861   5.646   4.748  15.784  1.4014  1.8013  1.1153
 8790TIP3    H247862   5.696   4.754  15.642  0.2545  1.0363  0.6577
 8791TIP3   OH247863   2.993   0.106   1.985  0.1419 -0.0346  0.1179
 8791TIP3    H147864   2.970   0.189   1.945 -1.3819  0.1392  1.2644
 8791TIP3    H247865   3.089   0.107   1.989  0.1772  1.3217 -0.5546
 8792TIP3   OH247866   6.034   6.457  14.174  0.0605 -0.1762 -0.1383
 8792TIP3    H147867   6.078   6.522  14.230  0.8310 -1.9051  1.3596
 8792TIP3    H247868   5.941   6.467  14.195  0.2440 -0.0853  0.6586
 8793TIP3   OH247869   6.651   4.058   5.328 -0.7427  0.1798 -0.7290
 8793TIP3    H147870   6.718   4.122   5.302 -2.0964  2.3859  0.7699
 8793TIP3    H247871   6.696   3.999   5.388 -0.1815  2.0590  0.8274
 8794TIP3   OH247872   6.448   2.794   6.671 -0.6758 -0.1615 -0.4690
 8794TIP3    H147873   6.381   2.782   6.603  0.2343  0.7878 -1.5777
 8794TIP3    H247874   6.501   2.868   6.640  0.9123 -0.9053  0.3557
 8795TIP3   OH247875   3.115   6.023   6.405 -0.5430 -0.6794  0.0006
 8795TIP3    H147876   3.029   6.054   6.380 -0.7439  1.7715  3.1086
 8795TIP3    H247877   3.103   5.988   6.494  1.8368  1.1043  1.1362
 8796TIP3   OH247878   2.762   2.748  15.214  0.0004 -0.1727  0.3549
 8796TIP3    H147879   2.745   2.788  15.299  2.6620 -0.3486  1.0436
 8796TIP3    H247880   2.830   2.683  15.230  0.2008 -0.5837 -1.8198
 8797TIP3   OH247881   3.673   1.605   0.142  0.2422 -0.2394  0.4376
 8797TIP3    H147882   3.699   1.697   0.151 -1.1221  0.1766  0.3762
 8797TIP3    H247883   3.588   1.600   0.185 -0.5637 -1.0471 -1.1526
 8798TIP3   OH247884   1.665   0.844   1.771 -0.2181 -1.1044 -0.3834
 8798TIP3    H147885   1.620   0.759   1.771 -0.9067 -0.7909 -2.1550
 8798TIP3    H247886   1.683   0.861   1.679  1.0686  0.0915  0.0633
 8799TIP3   OH247887   2.622   3.991  11.912 -0.3707  0.3967 -0.0849
 8799TIP3    H147888   2.690   4.045  11.951 -0.6025  0.4265  0.2829
 8799TIP3    H247889   2.662   3.956  11.832 -0.5903  2.0321 -0.9545
 8800TIP3   OH247890   1.485   1.630  14.068 -0.6365 -0.0407  0.0263
 8800TIP3    H147891   1.491   1.544  14.028  1.8691 -0.4574  1.1124
 8800TIP3    H247892   1.455   1.688  13.997 -1.6224 -1.6381 -0.9072
 8801TIP3   OH247893   6.125   2.374   3.438 -0.4775  0.1799  0.1517
 8801TIP3    H147894   6.134   2.460   3.479 -0.1052 -0.9921  2.7440
 8801TIP3    H247895   6.032   2.352   3.448 -0.1844 -0.5728  1.4797
 8802TIP3   OH247896   4.073   1.658  14.055 -0.6018  0.0840 -0.5581
 8802TIP3    H147897   4.054   1.565  14.045  0.4221 -0.4547  1.8994
 8802TIP3    H247898   3.992   1.695  14.091 -0.0978 -0.4736  1.2625
 8803TIP3   OH247899   1.842   0.770   4.947  0.0462  0.8742 -0.4444
 8803TIP3    H147900   1.889   0.851   4.927  1.4096  0.1635 -0.2150
 8803TIP3    H247901   1.833   0.726   4.862  2.5461 -0.3990 -0.1419
 8804TIP3   OH247902   4.036   1.535   3.966 -0.0231  0.0762 -0.4819
 8804TIP3    H147903   4.100   1.518   4.035 -1.2766 -0.3463  0.6098
 8804TIP3    H247904   4.026   1.451   3.921 -1.4412 -0.4777  0.7934
 8805TIP3   OH247905   1.334   3.055   3.715  0.3511 -0.4070 -0.3028
 8805TIP3    H147906   1.351   2.981   3.657 -2.2217 -1.1048 -0.2720
 8805TIP3    H247907   1.367   3.028   3.800  1.5452 -0.5262 -0.7806
 8806TIP3   OH247908   5.627   3.741  11.742  0.1524  0.1759  0.5003
 8806TIP3    H147909   5.602   3.649  11.739  0.7356  0.0110  0.7956
 8806TIP3    H247910   5.550   3.787  11.707  0.0392 -0.4486 -0.0912
 8807TIP3   OH247911   5.039   5.232  11.225  0.6707 -0.0518 -0.2523
 8807TIP3    H147912   5.113   5.217  11.166 -0.1471  0.0207 -1.3309
 8807TIP3    H247913   5.030   5.150  11.273  1.0775 -0.2797 -0.5554
 8808TIP3   OH247914   2.977   5.205  13.844  0.5092 -0.5071 -0.4953
 8808TIP3    H147915   3.027   5.197  13.925 -1.1738  0.2965  0.6794
 8808TIP3    H247916   2.911   5.135  13.850 -0.2725  0.1968 -0.6544
 8809TIP3   OH247917   1.694   3.292  14.022  0.0505 -0.1504 -0.1930
 8809TIP3    H147918   1.720   3.366  13.967  0.4454 -0.7006 -0.7525
 8809TIP3    H247919   1.774   3.241  14.033 -0.0225 -0.0508  0.8977
 8810TIP3   OH247920   3.342   2.307  11.536 -0.1797  0.1685  0.0740
 8810TIP3    H147921   3.265   2.251  11.548  0.0596 -0.2654 -0.3879
 8810TIP3    H247922   3.310   2.395  11.553 -0.4795 -0.1325  1.1882
 8811TIP3   OH247923   0.426   1.142   5.881 -0.3016  0.2939 -0.2255
 8811TIP3    H147924   0.385   1.076   5.825  0.2546  0.1953 -0.5302
 8811TIP3    H247925   0.400   1.118   5.969  1.0781 -1.2517 -0.1777
 8812TIP3   OH247926   6.681   5.216  14.402  0.0280  0.5823 -0.2336
 8812TIP3    H147927   6.614   5.201  14.468 -0.9821  2.0602 -0.8765
 8812TIP3    H247928   6.706   5.307  14.413  0.3322  0.6574 -1.4290
 8813TIP3   OH247929   4.879   5.468   2.907  0.2749 -0.1441  0.1234
 8813TIP3    H147930   4.938   5.453   2.833  0.9313  0.9555  0.4093
 8813TIP3    H247931   4.846   5.557   2.894  1.2038  0.4641  1.6779
 8814TIP3   OH247932   1.306   6.004  17.212 -0.6945  0.6003  0.3731
 8814TIP3    H147933   1.376   5.972  17.154  0.3679 -0.5099  2.1911
 8814TIP3    H247934   1.226   5.981  17.165  0.1124  1.4057 -1.5112
 8815TIP3   OH247935   4.837   1.438  10.519 -0.1568 -0.0123 -0.1019
 8815TIP3    H147936   4.794   1.352  10.523 -0.7148  0.1983 -1.2923
 8815TIP3    H247937   4.767   1.501  10.539 -0.0663  0.2477 -0.5952
 8816TIP3   OH247938   0.755   3.003   6.243  0.5062  0.5536  0.3099
 8816TIP3    H147939   0.716   3.053   6.314 -0.2537  0.1856  0.1587
 8816TIP3    H247940   0.824   2.951   6.286  1.1160  1.4979  0.5097
 8817TIP3   OH247941   0.867   4.469   1.665  0.0237  0.2642  0.3676
 8817TIP3    H147942   0.840   4.385   1.628  0.6453 -0.1632  0.8511
 8817TIP3    H247943   0.820   4.535   1.613  0.2020 -0.3488 -0.6015
 8818TIP3   OH247944   3.226   6.017   3.205 -0.6932 -0.7162 -0.0045
 8818TIP3    H147945   3.225   5.952   3.135  0.2729 -1.4463  0.6431
 8818TIP3    H247946   3.134   6.042   3.216 -1.1563 -2.4264  0.1745
 8819TIP3   OH247947   5.620   0.188   0.631  0.6058  0.2504 -0.4228
 8819TIP3    H147948   5.697   0.244   0.627  1.1716 -0.5020 -0.1926
 8819TIP3    H247949   5.646   0.109   0.585  0.1962 -0.2806  0.2451
 8820TIP3   OH247950   4.545   4.272  15.260  0.2743 -0.3520 -0.5871
 8820TIP3    H147951   4.534   4.311  15.346  0.5762 -1.4752 -0.0190
 8820TIP3    H247952   4.557   4.346  15.201 -0.0589  0.4339  0.3139
 8821TIP3   OH247953   3.294   3.936   5.328 -0.2131 -0.1347  0.3310
 8821TIP3    H147954   3.348   3.977   5.260 -1.6245 -0.6478 -1.1587
 8821TIP3    H247955   3.326   3.846   5.333 -0.7525 -0.3831 -0.4142
 8822TIP3   OH247956   1.723   1.839  15.268 -0.2084 -0.2888 -0.0515
 8822TIP3    H147957   1.668   1.877  15.337 -0.4515  0.1120 -0.4582
 8822TIP3    H247958   1.794   1.902  15.256 -0.8077  0.2393 -0.9770
 8823TIP3   OH247959   0.291   0.905  13.875 -0.0204 -0.2918  0.1073
 8823TIP3    H147960   0.328   0.841  13.935  3.0763  0.0693 -1.1911
 8823TIP3    H247961   0.299   0.865  13.789  0.5336  1.1674 -0.5629
 8824TIP3   OH247962   1.044   3.594   5.317  0.6027  0.4924  0.4571
 8824TIP3    H147963   0.969   3.560   5.270  1.1242  2.0465 -1.6579
 8824TIP3    H247964   1.117   3.537   5.292  0.7660  0.9801 -0.2098
 8825TIP3   OH247965   6.330   6.596   4.211 -0.6682 -0.0782  0.2433
 8825TIP3    H147966   6.342   6.560   4.123 -1.2436  2.9255 -1.1955
 8825TIP3    H247967   6.376   6.680   4.209  1.2925 -0.8830  3.6210
 8826TIP3   OH247968   3.482   1.486  11.227  0.3922  0.0799 -0.1777
 8826TIP3    H147969   3.559   1.441  11.260 -0.3791 -0.9653  0.2763
 8826TIP3    H247970   3.446   1.425  11.161 -0.4076  0.2384  0.1047
 8827TIP3   OH247971   4.099   6.199   3.981  0.1608 -0.3201  0.3973
 8827TIP3    H147972   4.023   6.200   3.922  2.2672 -1.6787 -2.5900
 8827TIP3    H247973   4.127   6.108   3.983  2.9647  0.4120 -0.4468
 8828TIP3   OH247974   5.324   1.505  15.832 -0.1026 -0.1339  0.0168
 8828TIP3    H147975   5.415   1.506  15.863 -0.2137  1.1573  0.3455
 8828TIP3    H247976   5.328   1.457  15.749  1.1437  1.1781 -0.7242
 8829TIP3   OH247977   5.499   0.740  12.778 -0.1879  0.2788 -0.6472
 8829TIP3    H147978   5.533   0.810  12.722 -1.8726  0.5737 -1.3585
 8829TIP3    H247979   5.510   0.774  12.867  0.5179  0.7372 -0.8971
 8830TIP3   OH247980   3.262   0.770   4.843  0.8352  0.0595 -0.1186
 8830TIP3    H147981   3.293   0.840   4.786  3.5748 -1.2551 -0.4166
 8830TIP3    H247982   3.226   0.705   4.782  1.6593 -0.3524 -0.1753
 8831TIP3   OH247983   3.639   6.672   2.557 -0.8931 -0.2564 -0.2654
 8831TIP3    H147984   3.694   6.749   2.572 -0.2171 -1.0268  1.5815
 8831TIP3    H247985   3.550   6.702   2.577 -1.0095  0.6457 -1.9619
 8832TIP3   OH247986   0.267   2.691   3.546  1.0682 -0.1922  0.0869
 8832TIP3    H147987   0.178   2.726   3.540  1.1545 -0.0167 -0.1319
 8832TIP3    H247988   0.321   2.765   3.574  1.1565 -0.2839  0.1603
 8833TIP3   OH247989   2.204   4.562  15.490  0.1036  0.0043 -0.3595
 8833TIP3    H147990   2.275   4.571  15.554  0.0774 -2.9527  0.2261
 8833TIP3    H247991   2.232   4.489  15.434 -1.3367  0.4594 -1.7403
 8834TIP3   OH247992   2.606   4.256   1.403 -0.0083  0.1534 -0.1709
 8834TIP3    H147993   2.572   4.166   1.407 -0.7388  0.2917 -2.1454
 8834TIP3    H247994   2.589   4.284   1.313  0.9222  2.0093  0.1840
 8835TIP3   OH247995   2.321   4.555  12.508  0.1743  0.7615  0.3096
 8835TIP3    H147996   2.358   4.624  12.453  0.6372  0.1874 -0.1055
 8835TIP3    H247997   2.384   4.484  12.503  0.5463  0.9365  2.1298
 8836TIP3   OH247998   5.976   0.321  12.666 -0.7759 -0.5252 -0.5449
 8836TIP3    H147999   5.943   0.359  12.748 -1.4956 -0.5771 -0.8069
 8836TIP3    H248000   6.037   0.388  12.632  0.7707 -1.1693  0.8110
 8837TIP3   OH248001   6.380   4.284   6.256  0.0721 -0.1904  0.5832
 8837TIP3    H148002   6.333   4.312   6.334  0.2542 -1.1364  1.0513
 8837TIP3    H248003   6.447   4.350   6.243 -0.1708  0.1495  1.0288
 8838TIP3   OH248004   3.729   6.361  16.535  0.2015  0.7114 -0.1434
 8838TIP3    H148005   3.791   6.427  16.567 -1.8467  2.0446  1.3626
 8838TIP3    H248006   3.761   6.339  16.447  4.6108 -1.1792  1.6854
 8839TIP3   OH248007   6.744   0.265  14.215 -0.2388 -0.7629  0.1479
 8839TIP3    H148008   6.804   0.239  14.145  0.1852 -1.0540  0.6172
 8839TIP3    H248009   6.672   0.308  14.169  0.2509 -0.5470 -0.4357
 8840TIP3   OH248010   0.087   4.354   2.456 -0.4247  0.2172 -0.0492
 8840TIP3    H148011   0.082   4.259   2.468 -1.5428  0.5078  2.2177
 8840TIP3    H248012   0.176   4.377   2.482 -1.2308  0.1679  3.0881
 8841TIP3   OH248013   3.415   5.132  14.469  0.1098 -0.2763 -0.1026
 8841TIP3    H148014   3.400   5.051  14.421 -1.3007 -0.4267  0.5203
 8841TIP3    H248015   3.360   5.123  14.548 -0.5480  1.5095 -0.3140
 8842TIP3   OH248016   3.792   6.677  11.337  0.1958 -0.1137  0.2290
 8842TIP3    H148017   3.853   6.714  11.273  0.6667  0.5553  1.0391
 8842TIP3    H248018   3.755   6.600  11.294 -0.7092  1.1948 -1.4799
 8843TIP3   OH248019   0.597   3.893   0.665  1.2615 -0.2114 -0.1716
 8843TIP3    H148020   0.579   3.853   0.750 -3.8660 -0.5589 -1.0978
 8843TIP3    H248021   0.631   3.821   0.612  2.4458 -0.5263  0.9639
 8844TIP3   OH248022   2.829   1.129  11.038 -0.0628  0.3880  0.0763
 8844TIP3    H148023   2.778   1.182  11.100  0.1578  0.2808  0.3551
 8844TIP3    H248024   2.919   1.135  11.070 -0.1623 -0.9647  0.7129
 8845TIP3   OH248025   1.123   3.445   2.799  0.4037 -0.7569 -0.3672
 8845TIP3    H148026   1.071   3.383   2.850 -1.5894  1.0985  0.0235
 8845TIP3    H248027   1.186   3.482   2.862  1.2784 -1.9806 -0.4930
 8846TIP3   OH248028   1.986   4.636   2.339 -0.2337  0.0076  0.5764
 8846TIP3    H148029   1.987   4.719   2.387 -0.9135 -0.2253  1.0051
 8846TIP3    H248030   1.954   4.572   2.402 -3.4923  0.0892 -0.7812
 8847TIP3   OH248031   1.347   6.755  12.256 -0.8890  0.0609 -0.0917
 8847TIP3    H148032   1.308   6.787  12.337  0.3914 -1.1012  1.0520
 8847TIP3    H248033   1.437   6.731  12.281 -0.6296 -0.8165 -1.7326
 8848TIP3   OH248034   2.541   5.813   4.341  0.2547  1.0235  0.1215
 8848TIP3    H148035   2.626   5.828   4.383  0.6027  0.2530 -0.2777
 8848TIP3    H248036   2.557   5.741   4.280 -0.4772  1.4725 -0.6168
 8849TIP3   OH248037   1.611   1.205   0.017 -0.1354  0.6300 -0.3120
 8849TIP3    H148038   1.687   1.263   0.012  0.4193 -0.2286 -2.8977
 8849TIP3    H248039   1.643   1.120  -0.011 -1.4637 -0.4572  1.2626
 8850TIP3   OH248040   3.181   5.969  11.608  0.9151 -0.4102  0.1149
 8850TIP3    H148041   3.217   6.048  11.569  1.4053  0.0221  1.3816
 8850TIP3    H248042   3.111   6.000  11.665 -0.0088 -1.0496 -0.6390
 8851TIP3   OH248043   3.379   3.377   3.774  0.3154  0.0283 -0.5965
 8851TIP3    H148044   3.371   3.303   3.713  1.0617  0.4941 -1.2769
 8851TIP3    H248045   3.395   3.336   3.859 -1.5615 -0.6718 -0.5166
 8852TIP3   OH248046   1.075   6.544   5.540 -0.0605 -0.2603 -0.3758
 8852TIP3    H148047   0.999   6.602   5.546 -0.7325 -1.1432 -0.3148
 8852TIP3    H248048   1.062   6.480   5.610  1.3884  0.3218  0.4784
 8853TIP3   OH248049   2.385   1.646  14.774  0.9720  0.4009  0.6337
 8853TIP3    H148050   2.340   1.632  14.858 -0.8915 -1.5038 -0.5818
 8853TIP3    H248051   2.336   1.716  14.732  1.9597  1.4162  1.1179
 8854TIP3   OH248052   3.960   4.210   2.881  0.3122  0.1065  0.1044
 8854TIP3    H148053   3.966   4.114   2.877 -0.2953  0.0903 -0.6136
 8854TIP3    H248054   4.033   4.240   2.826  1.2903  0.0960  1.3342
 8855TIP3   OH248055   0.064   4.898  11.565 -0.4014 -0.5399  0.1735
 8855TIP3    H148056  -0.014   4.843  11.556 -0.6320 -0.1198 -0.5352
 8855TIP3    H248057   0.097   4.880  11.653 -0.6072 -1.6247  0.0360
 8856TIP3   OH248058   0.562   1.199   3.118 -0.4201  0.4078  0.1186
 8856TIP3    H148059   0.532   1.290   3.112  0.2860  0.8631  2.4107
 8856TIP3    H248060   0.651   1.200   3.084 -0.7372  0.3698 -0.7265
 8857TIP3   OH248061   1.126   4.710   2.497  0.1535  0.7119  0.8150
 8857TIP3    H148062   1.186   4.783   2.509  0.4366  0.4700  0.8839
 8857TIP3    H248063   1.172   4.650   2.439 -1.1494  1.8037 -1.4657
 8858TIP3   OH248064   0.171   4.593   4.271 -0.3865  0.1290  0.0252
 8858TIP3    H148065   0.143   4.505   4.248 -0.0686 -0.3746  1.4542
 8858TIP3    H248066   0.124   4.650   4.211 -0.9514 -0.9886 -0.6121
 8859TIP3   OH248067   0.682   1.414   6.523 -0.1465 -0.1728  0.0463
 8859TIP3    H148068   0.768   1.389   6.558  0.4520  0.1280 -1.1469
 8859TIP3    H248069   0.680   1.375   6.435 -1.3678 -0.4375  0.1829
 8860TIP3   OH248070   2.928   6.546   6.480 -0.3744 -0.4135  0.0078
 8860TIP3    H148071   2.918   6.488   6.405 -0.7279  1.5364 -1.5321
 8860TIP3    H248072   3.021   6.537   6.505 -0.0718 -0.5527 -1.1205
 8861TIP3   OH248073   1.008   4.017   5.066  0.1584  0.0887 -0.2256
 8861TIP3    H148074   1.015   3.950   5.135 -1.6285  0.8954  0.7856
 8861TIP3    H248075   1.027   3.969   4.985  0.7601 -1.2221  0.6462
 8862TIP3   OH248076   1.895   2.597  14.853  0.2718 -1.0873  0.7918
 8862TIP3    H148077   1.912   2.643  14.936 -0.7854 -0.0139  0.4510
 8862TIP3    H248078   1.802   2.574  14.858  0.1523 -0.8408 -0.1682
 8863TIP3   OH248079   1.807   3.136   2.585  0.8834  0.3379  0.6880
 8863TIP3    H148080   1.714   3.153   2.570  0.5461 -0.1188  2.1093
 8863TIP3    H248081   1.846   3.137   2.497 -0.3325  1.2047  0.1310
 8864TIP3   OH248082   5.568   1.377   6.119 -0.3434  0.6196  0.8522
 8864TIP3    H148083   5.655   1.343   6.137 -0.6895 -1.2929 -0.6668
 8864TIP3    H248084   5.559   1.370   6.024 -1.1344  3.4962  0.6330
 8865TIP3   OH248085   1.682   1.184   3.196  0.2434  0.4704  0.4654
 8865TIP3    H148086   1.741   1.181   3.272  0.3891  0.7962  0.3685
 8865TIP3    H248087   1.609   1.127   3.220 -0.7405  2.1718  1.7463
 8866TIP3   OH248088   0.602   4.306   5.327  0.0521  0.2596 -0.6542
 8866TIP3    H148089   0.591   4.285   5.420  0.9643 -0.4570 -0.6880
 8866TIP3    H248090   0.518   4.284   5.287 -0.0869 -0.1862 -0.1238
 8867TIP3   OH248091   2.051   1.362  13.894 -0.1064 -0.0559  0.8749
 8867TIP3    H148092   2.027   1.280  13.852 -1.7963 -0.0202  1.6835
 8867TIP3    H248093   2.146   1.357  13.903  0.0888 -0.8873 -1.1522
 8868TIP3   OH248094   1.116   5.606   3.132 -0.7076 -0.2338  0.5262
 8868TIP3    H148095   1.075   5.565   3.208  0.2924 -1.0955  0.6330
 8868TIP3    H248096   1.145   5.692   3.164 -1.2838 -0.1309  0.7910
 8869TIP3   OH248097   5.342   6.451   2.369  0.0911  0.3673 -0.2847
 8869TIP3    H148098   5.405   6.380   2.383  0.7844  0.9172 -0.5766
 8869TIP3    H248099   5.393   6.531   2.379 -0.8755  0.8597  0.9743
 8870TIP3   OH248100   4.352   3.497  11.514  0.6772  0.5108  0.7347
 8870TIP3    H148101   4.311   3.512  11.429  0.6235  0.0944  0.6862
 8870TIP3    H248102   4.351   3.583  11.556  0.3528  0.6396  0.4707
 8871TIP3   OH248103   0.236   5.000  12.002 -0.1358  0.4779 -0.2190
 8871TIP3    H148104   0.161   4.996  12.062  0.0645  0.5922  0.0390
 8871TIP3    H248105   0.229   5.085  11.959 -0.1644  0.4804 -0.2095
 8872TIP3   OH248106   1.078   4.801   4.411  0.0021 -0.7730 -0.5179
 8872TIP3    H148107   1.083   4.860   4.335  1.3550  0.8149  0.7263
 8872TIP3    H248108   1.166   4.765   4.419  0.4764  0.6167  1.3925
 8873TIP3   OH248109   3.339   1.753  13.865  0.1217 -0.0029 -0.1656
 8873TIP3    H148110   3.275   1.725  13.800 -0.4045  0.4130  0.1710
 8873TIP3    H248111   3.290   1.755  13.947  1.1519 -2.1047  0.5660
 8874TIP3   OH248112   0.314   4.895  11.471  0.1826  0.4375  0.3539
 8874TIP3    H148113   0.222   4.891  11.498  0.0887 -1.0595 -0.1234
 8874TIP3    H248114   0.325   4.985  11.439 -0.9312  0.8329  1.0007
 8875TIP3   OH248115   2.331   3.177   6.160 -0.3918 -0.3421  0.2646
 8875TIP3    H148116   2.419   3.141   6.150 -1.5119 -2.5429 -3.1383
 8875TIP3    H248117   2.336   3.264   6.121  0.6057  0.2833  1.7001
 8876TIP3   OH248118   3.376   6.308  12.012  1.0702 -0.7670 -0.4580
 8876TIP3    H148119   3.317   6.383  12.022  0.4827 -1.3176  0.2631
 8876TIP3    H248120   3.437   6.315  12.086  1.3399 -0.7212 -0.6801
 8877TIP3   OH248121   1.260   2.998   4.014  0.3332 -0.0460  0.3081
 8877TIP3    H148122   1.255   2.932   4.083  1.9932 -1.3516 -0.7391
 8877TIP3    H248123   1.193   2.972   3.951 -0.7406  0.7757  1.0684
 8878TIP3   OH248124   0.392   3.255  11.886 -0.1840  0.5282  0.6178
 8878TIP3    H148125   0.466   3.277  11.829 -0.1364 -1.2393 -0.0553
 8878TIP3    H248126   0.413   3.299  11.969  2.1964 -0.7877  0.7896
 8879TIP3   OH248127   5.166   0.060  12.694 -0.2232  0.4341  0.3616
 8879TIP3    H148128   5.102   0.094  12.631 -1.4887 -1.6626  0.4082
 8879TIP3    H248129   5.251   0.088  12.660 -0.9310  0.0964 -1.8366
 8880TIP3   OH248130   6.007   6.689  11.812  0.0898 -0.2512 -0.1432
 8880TIP3    H148131   6.025   6.702  11.719  0.7834  1.2824  0.1730
 8880TIP3    H248132   5.981   6.597  11.819 -0.9523 -0.1397 -1.9900
 8881TIP3   OH248133   1.364   1.814   0.592 -0.1235 -0.5830  0.1669
 8881TIP3    H148134   1.274   1.789   0.613 -0.5893 -0.4884 -1.5631
 8881TIP3    H248135   1.398   1.740   0.541  0.0834  0.2409 -0.9189
 8882TIP3   OH248136   5.112   4.549  14.424  0.6615 -0.1573  0.6256
 8882TIP3    H148137   5.023   4.561  14.460  0.1246 -1.3731 -0.2460
 8882TIP3    H248138   5.111   4.599  14.342 -0.6724 -3.4619 -1.5752
 8883TIP3   OH248139   2.670   1.122  14.054 -0.3707  0.3763  0.2232
 8883TIP3    H148140   2.648   1.029  14.057 -0.7944  0.3817 -1.5329
 8883TIP3    H248141   2.735   1.129  13.984 -0.3947  1.4077  0.2967
 8884TIP3   OH248142   5.387   0.993  12.496  0.4714  0.0830  0.1006
 8884TIP3    H148143   5.334   1.064  12.460  1.4232 -0.7093 -3.1246
 8884TIP3    H248144   5.329   0.951  12.559 -1.6251  1.1480 -1.0017
 8885TIP3   OH248145   0.817   6.653   4.324  0.3377  0.1732 -0.0390
 8885TIP3    H148146   0.734   6.611   4.301 -0.6568  1.6371  0.7202
 8885TIP3    H248147   0.795   6.746   4.332  1.7632  0.4120  1.5106
 8886TIP3   OH248148   2.519   2.337   5.170  0.0460  0.4306  1.2797
 8886TIP3    H148149   2.442   2.311   5.221 -0.1070 -1.4036  0.2021
 8886TIP3    H248150   2.484   2.357   5.083  0.6287  0.8949  1.1478
 8887TIP3   OH248151   3.890   4.775  16.533 -0.0854  0.3292  0.2991
 8887TIP3    H148152   3.799   4.789  16.507 -0.9492 -2.2929  1.6093
 8887TIP3    H248153   3.932   4.739  16.455 -0.3655  0.7968 -0.0731
 8888TIP3   OH248154   3.562   0.785  11.003 -0.3380 -0.6108 -0.8255
 8888TIP3    H148155   3.605   0.867  10.977  1.1640 -1.3314 -0.7276
 8888TIP3    H248156   3.526   0.803  11.089  0.1461 -0.1079 -0.7207
 8889TIP3   OH248157   4.191   0.209   3.779 -0.3213  0.0325 -0.3214
 8889TIP3    H148158   4.212   0.151   3.853  1.5024  1.3787  0.3075
 8889TIP3    H248159   4.122   0.164   3.731  0.2847 -2.1356  0.7300
 8890TIP3   OH248160   1.891   1.183  16.031  0.0277 -0.4577  0.2008
 8890TIP3    H148161   1.898   1.225  15.945 -1.8044 -0.8264 -0.1581
 8890TIP3    H248162   1.948   1.106  16.025  1.1291  0.3653 -0.1288
 8891TIP3   OH248163   2.422   5.829  14.413 -0.2152 -0.5087  0.1360
 8891TIP3    H148164   2.441   5.871  14.330 -1.4182 -1.5376 -0.6881
 8891TIP3    H248165   2.508   5.806  14.449  0.4390  1.8826  0.2603
 8892TIP3   OH248166   6.067   3.296   5.469 -0.1030 -0.1799 -0.2362
 8892TIP3    H148167   5.982   3.281   5.428  0.9109  0.2874 -2.6791
 8892TIP3    H248168   6.078   3.391   5.467 -0.1421 -0.1229  1.4518
 8893TIP3   OH248169   6.115   4.614   5.751  0.2850  0.0029  0.2439
 8893TIP3    H148170   6.113   4.592   5.658  1.0052  0.4823  0.1083
 8893TIP3    H248171   6.155   4.537   5.793  0.4482  0.0029  0.0890
 8894TIP3   OH248172   1.645   5.835  13.568 -0.5580 -0.1232 -0.9135
 8894TIP3    H148173   1.641   5.741  13.551 -0.6981 -0.0053 -1.5559
 8894TIP3    H248174   1.725   5.865  13.524 -0.5676  0.0784 -0.7993
 8895TIP3   OH248175   2.873   3.292  11.743 -0.0723 -0.1289  0.1591
 8895TIP3    H148176   2.801   3.276  11.682  0.6696 -0.4813 -0.6587
 8895TIP3    H248177   2.940   3.228  11.717  1.2876  1.4474 -0.3753
 8896TIP3   OH248178   6.245   4.251  11.139 -0.5348 -0.1333  0.1173
 8896TIP3    H148179   6.250   4.344  11.115 -2.0264  0.5518  2.2040
 8896TIP3    H248180   6.300   4.244  11.217 -2.1689 -0.4640  1.2904
 8897TIP3   OH248181   3.790   3.942  14.499 -0.0535 -0.0853  0.3804
 8897TIP3    H148182   3.702   3.979  14.490 -0.2696 -0.3097  1.5054
 8897TIP3    H248183   3.776   3.848  14.507  0.4574 -0.4095 -1.8097
 8898TIP3   OH248184   3.955   0.367  16.011  0.0945 -0.2672 -0.1552
 8898TIP3    H148185   3.933   0.460  16.017 -1.5940 -0.6027 -0.5724
 8898TIP3    H248186   3.899   0.334  15.940  0.4966 -1.6489  0.1448
 8899TIP3   OH248187   0.347   2.391   0.419  0.7930  0.0968 -0.0745
 8899TIP3    H148188   0.303   2.391   0.504 -0.7355  1.1421 -0.8319
 8899TIP3    H248189   0.381   2.480   0.409  1.0037 -0.0345 -0.5475
 8900TIP3   OH248190   5.676   4.626   5.191 -0.3046 -0.0286 -0.0700
 8900TIP3    H148191   5.704   4.660   5.106 -0.3803  1.5446  0.5004
 8900TIP3    H248192   5.582   4.610   5.180 -0.2625 -0.0880 -0.3638
 8901TIP3   OH248193   5.421   5.789  11.327  0.2872  0.3970  0.3677
 8901TIP3    H148194   5.443   5.842  11.250  0.8434 -0.4037 -0.0436
 8901TIP3    H248195   5.346   5.834  11.366 -0.8685  0.1102 -1.3848
 8902TIP3   OH248196   1.682   2.280  12.057  0.3173  0.2430  0.1505
 8902TIP3    H148197   1.590   2.293  12.080  0.0047  0.0362 -0.9194
 8902TIP3    H248198   1.731   2.332  12.121 -0.5819  1.0485  0.2065
 8903TIP3   OH248199   5.990   4.836   5.411 -0.0893 -0.0176 -0.4244
 8903TIP3    H148200   6.036   4.752   5.414  2.0639  1.1036 -0.5260
 8903TIP3    H248201   5.945   4.836   5.326 -0.0750 -1.0239 -0.4405
 8904TIP3   OH248202   4.215   2.099  15.841 -0.4030 -0.0703 -0.3109
 8904TIP3    H148203   4.278   2.035  15.874  0.0267  0.3725 -0.2711
 8904TIP3    H248204   4.183   2.061  15.760 -0.5625 -0.5950 -0.0094
 8905TIP3   OH248205   3.485   3.121  14.024 -0.2835  0.0366 -0.1459
 8905TIP3    H148206   3.522   3.210  14.023  0.4913 -0.2493  1.0059
 8905TIP3    H248207   3.545   3.070  13.970 -0.9175  0.2643 -1.0907
 8906TIP3   OH248208   6.000   6.185   4.416 -0.5170  0.3083 -0.4586
 8906TIP3    H148209   6.053   6.189   4.496  1.5862 -0.7633 -1.7212
 8906TIP3    H248210   5.996   6.276   4.386  0.9512  0.3867 -0.4966
 8907TIP3   OH248211   6.593   5.665  15.504  0.1024 -0.2562  0.2949
 8907TIP3    H148212   6.552   5.670  15.590 -0.6776  1.2456 -0.1394
 8907TIP3    H248213   6.685   5.649  15.522  0.0829  0.8221  1.4482
 8908TIP3   OH248214   1.231   1.777  13.385 -1.4746 -0.4937 -0.1197
 8908TIP3    H148215   1.238   1.862  13.343  1.5463  0.3704  1.7633
 8908TIP3    H248216   1.138   1.755  13.381 -2.2978  2.6776 -1.0452
 8909TIP3   OH248217   1.088   5.127  14.103  0.1346 -0.5724 -0.0283
 8909TIP3    H148218   1.110   5.052  14.158 -0.7561 -0.2957  0.7312
 8909TIP3    H248219   0.995   5.144  14.120 -0.1989 -0.5233 -1.6955
 8910TIP3   OH248220   0.273   1.851   5.133 -0.0755  0.1976  0.1904
 8910TIP3    H148221   0.365   1.829   5.125  0.7341  3.7720 -3.7105
 8910TIP3    H248222   0.267   1.899   5.216  1.0390 -1.7064  1.4476
 8911TIP3   OH248223   4.733   0.229   0.062 -0.5732  0.2715 -0.2540
 8911TIP3    H148224   4.713   0.140   0.033 -0.5933  0.6626 -1.5123
 8911TIP3    H248225   4.714   0.284  -0.014  0.7832  1.2053  0.0436
 8912TIP3   OH248226   2.204   3.153   0.556 -0.1274 -0.3940  0.1843
 8912TIP3    H148227   2.294   3.156   0.585 -0.3971  0.1012  0.9783
 8912TIP3    H248228   2.174   3.065   0.580  0.1899 -0.6233 -0.2448
 8913TIP3   OH248229   0.382   4.307   2.271  0.5131  0.0049  0.1629
 8913TIP3    H148230   0.312   4.361   2.233  0.7054  0.3177  0.2483
 8913TIP3    H248231   0.413   4.358   2.346  1.6750  0.4574 -0.5948
 8914TIP3   OH248232   4.206   6.032   3.663 -0.4452 -0.7488  0.4430
 8914TIP3    H148233   4.110   6.032   3.668 -0.4503 -1.1085  0.3581
 8914TIP3    H248234   4.232   5.953   3.710 -0.2074 -0.8727  0.1034
 8915TIP3   OH248235   0.243   5.252  11.913 -0.5167  0.0183 -0.0079
 8915TIP3    H148236   0.168   5.299  11.875 -1.2431  0.2214  1.6012
 8915TIP3    H248237   0.259   5.295  11.997  0.0003 -1.4255  0.6727
 8916TIP3   OH248238   4.897   0.094  13.282 -0.0175 -0.4042 -0.3017
 8916TIP3    H148239   4.857   0.179  13.298  0.1797 -0.5124  0.8813
 8916TIP3    H248240   4.978   0.114  13.235  0.7581  0.2163  1.2281
 8917TIP3   OH248241   5.087   5.046   0.175  0.5147 -0.4314  0.0657
 8917TIP3    H148242   4.997   5.051   0.209  0.5308  0.2365  0.0331
 8917TIP3    H248243   5.135   5.111   0.226  1.4333 -2.0670  1.3875
 8918TIP3   OH248244   6.532   0.590  14.238  0.0432 -0.8133  0.2493
 8918TIP3    H148245   6.614   0.600  14.190  1.3679 -0.7765  2.3517
 8918TIP3    H248246   6.525   0.669  14.291 -1.1332 -1.0188  0.4268
 8919TIP3   OH248247   4.826   5.129   4.554  0.7275  0.1284 -0.0090
 8919TIP3    H148248   4.870   5.213   4.570  0.8725  0.7376 -2.9200
 8919TIP3    H248249   4.734   5.153   4.537  0.4660 -0.4823  0.4975
 8920TIP3   OH248250   3.897   4.916   3.786  0.1907  0.1138  0.2144
 8920TIP3    H148251   3.808   4.886   3.799  0.5781 -0.9000  0.6618
 8920TIP3    H248252   3.889   4.992   3.728 -0.9577  0.1155  0.3523
 8921TIP3   OH248253   6.807   6.271  14.878  0.7567 -0.8807 -0.3182
 8921TIP3    H148254   6.843   6.339  14.821  3.6971 -0.4954  1.7502
 8921TIP3    H248255   6.832   6.189  14.836  0.5154 -0.6542 -0.9181
 8922TIP3   OH248256   6.548   1.143   1.504 -0.3057 -0.6643  0.3667
 8922TIP3    H148257   6.493   1.084   1.453  0.6291 -0.3750 -1.0125
 8922TIP3    H248258   6.500   1.225   1.508 -0.6114 -0.8455  0.4092
 8923TIP3   OH248259   3.924   0.208   2.921 -0.1689 -0.2336 -0.7788
 8923TIP3    H148260   3.953   0.297   2.901 -0.0311 -0.4353 -1.5102
 8923TIP3    H248261   3.993   0.173   2.978 -1.0971  0.7097  0.9863
 8924TIP3   OH248262   0.418   5.422  11.682  0.1435 -0.3597  0.7571
 8924TIP3    H148263   0.405   5.444  11.775 -1.0374  0.3478  0.4519
 8924TIP3    H248264   0.411   5.327  11.679 -2.9963 -0.2321  1.0071
 8925TIP3   OH248265   0.674   0.337   3.248  0.0356 -0.3140 -0.1046
 8925TIP3    H148266   0.639   0.352   3.336 -1.0699 -0.3118 -0.5314
 8925TIP3    H248267   0.601   0.301   3.199  1.0270 -1.6649 -0.6684
 8926TIP3   OH248268   4.380   5.394  11.707  0.2676  0.6272 -0.2317
 8926TIP3    H148269   4.366   5.477  11.661  1.4395  1.4882  0.8818
 8926TIP3    H248270   4.373   5.417  11.800  0.3625 -0.5765  0.0899
 8927TIP3   OH248271   0.469   0.802   1.057  0.2335 -0.7797  0.4595
 8927TIP3    H148272   0.374   0.796   1.063  0.0693 -0.3391 -1.2799
 8927TIP3    H248273   0.489   0.892   1.082  0.2420 -0.9710  1.1651
 8928TIP3   OH248274   2.892   4.970  13.669 -0.5016  0.3940 -0.3146
 8928TIP3    H148275   2.802   4.952  13.698 -0.6305  1.1773 -0.2112
 8928TIP3    H248276   2.943   4.898  13.705 -1.1568 -0.2992 -0.7446
 8929TIP3   OH248277   0.777   5.846   0.217 -0.2868 -0.3503 -0.2279
 8929TIP3    H148278   0.855   5.898   0.234  0.0372 -1.0500  0.4810
 8929TIP3    H248279   0.781   5.826   0.123  0.1738 -0.0585 -0.2716
 8930TIP3   OH248280   0.771   2.888  14.988  0.3527  0.4925  0.5995
 8930TIP3    H148281   0.761   2.964  15.045  0.2341  1.5050 -0.7155
 8930TIP3    H248282   0.862   2.891  14.960 -0.2558  1.7254 -1.4971
 8931TIP3   OH248283   4.142   3.192  14.462 -0.2448  0.1759  0.0603
 8931TIP3    H148284   4.145   3.201  14.557 -0.0839 -0.0918  0.0800
 8931TIP3    H248285   4.048   3.190  14.442 -0.3972 -3.2404  0.5609
 8932TIP3   OH248286   2.951   1.258  11.590  0.2892  0.3041  0.3516
 8932TIP3    H148287   3.013   1.260  11.517  1.8587  0.7378  1.6374
 8932TIP3    H248288   2.906   1.175  11.581  1.1560 -0.0875 -0.5644
 8933TIP3   OH248289   3.534   0.422   4.419  0.6062 -0.1878  0.2709
 8933TIP3    H148290   3.519   0.343   4.367  2.8158 -0.3106 -0.2939
 8933TIP3    H248291   3.594   0.394   4.488  1.2729  0.9217  0.1700
 8934TIP3   OH248292   5.621   0.257   5.039  0.2157  0.5606  0.4041
 8934TIP3    H148293   5.715   0.267   5.051  0.2378  0.5115  0.2758
 8934TIP3    H248294   5.605   0.280   4.947  0.3536 -1.0459 -0.0664
 8935TIP3   OH248295   1.674   4.061   1.679 -0.0908 -0.0098 -0.3430
 8935TIP3    H148296   1.629   4.099   1.603 -0.7080 -0.9604 -0.4603
 8935TIP3    H248297   1.684   4.134   1.739  1.4516  1.0615 -1.7873
 8936TIP3   OH248298   1.934   5.959  14.078  0.0931 -0.1785  0.0599
 8936TIP3    H148299   1.863   5.988  14.134  1.2660  1.9314  0.5816
 8936TIP3    H248300   1.891   5.918  14.003 -1.5977 -0.2066  0.9975
 8937TIP3   OH248301   6.300   5.666  13.107  0.3026  0.0265  0.0311
 8937TIP3    H148302   6.245   5.608  13.160  1.5910 -0.0769  1.3234
 8937TIP3    H248303   6.377   5.613  13.086  1.0824  0.9537  0.4554
 8938TIP3   OH248304   0.968   0.869   2.795 -0.0535  0.0275 -0.6210
 8938TIP3    H148305   0.985   0.930   2.723  2.7270 -1.4671 -1.3993
 8938TIP3    H248306   0.888   0.901   2.836  1.1792  4.1281 -1.0030
 8939TIP3   OH248307   3.585   2.207  11.370  0.6592  0.2920  0.1318
 8939TIP3    H148308   3.534   2.132  11.339 -0.8025  1.3164 -0.0482
 8939TIP3    H248309   3.521   2.266  11.409  2.1237  0.1960  2.9252
 8940TIP3   OH248310   3.385   3.767   0.072 -0.1827  0.5222  0.5206
 8940TIP3    H148311   3.328   3.717   0.131 -1.5452  0.7135 -0.5980
 8940TIP3    H248312   3.471   3.764   0.115 -0.6119 -1.2712  1.3636
 8941TIP3   OH248313   0.315   1.887  10.439  0.0047 -0.1069 -0.2878
 8941TIP3    H148314   0.332   1.802  10.400 -0.0527 -0.3143  0.1361
 8941TIP3    H248315   0.386   1.943  10.405  1.2875 -0.8385  1.0531
 8942TIP3   OH248316   1.807   0.817  14.955 -0.1867 -0.7255 -0.4262
 8942TIP3    H148317   1.721   0.858  14.945  0.9511  1.8332 -0.5148
 8942TIP3    H248318   1.802   0.770  15.038 -1.2158  0.6852  0.3493
 8943TIP3   OH248319   6.631   4.445  13.968 -0.4978 -0.5668  0.7119
 8943TIP3    H148320   6.625   4.366  13.914 -2.0445  0.9882 -1.6124
 8943TIP3    H248321   6.541   4.460  13.997 -0.2887  0.4969  0.8275
 8944TIP3   OH248322   4.666   5.220  15.560  0.4209  0.3598 -0.6525
 8944TIP3    H148323   4.635   5.202  15.471 -0.4759  0.4415 -0.3688
 8944TIP3    H248324   4.720   5.298  15.552  0.7755  0.0704 -1.1999
 8945TIP3   OH248325   2.624   5.886  12.375 -0.5103  0.0684  0.0155
 8945TIP3    H148326   2.539   5.907  12.414 -1.3838 -3.5732  0.4632
 8945TIP3    H248327   2.673   5.844  12.445  0.4693 -0.6242 -1.0472
 8946TIP3   OH248328   0.299   6.191   1.525 -0.1203  0.6111 -0.1468
 8946TIP3    H148329   0.304   6.106   1.481 -1.4857 -0.6318  1.9485
 8946TIP3    H248330   0.215   6.227   1.498 -0.4950  0.3133  0.5949
 8947TIP3   OH248331   3.049   1.999  11.963  0.3958  0.6023 -0.3884
 8947TIP3    H148332   3.135   1.959  11.949  0.3480  0.2252  0.3676
 8947TIP3    H248333   3.042   2.010  12.058 -1.0317 -0.8065 -0.2929
 8948TIP3   OH248334   3.597   4.214   6.807 -0.1149 -0.3997 -0.1250
 8948TIP3    H148335   3.536   4.240   6.876  1.1683 -0.7721  1.1918
 8948TIP3    H248336   3.619   4.296   6.762 -1.5149 -0.2556 -0.5949
 8949TIP3   OH248337   3.919   3.452   4.786  0.1439  0.2601 -0.6665
 8949TIP3    H148338   3.977   3.417   4.854  0.0455 -0.8991 -1.1526
 8949TIP3    H248339   3.874   3.525   4.828  1.6214  0.9047 -0.1376
 8950TIP3   OH248340   6.132   6.225  14.959 -0.1151  0.0365 -0.6845
 8950TIP3    H148341   6.066   6.184  15.015 -0.3146 -0.3812 -1.2130
 8950TIP3    H248342   6.088   6.301  14.921  0.2517  0.7567  0.2891
 8951TIP3   OH248343   3.570   2.267   5.259  0.0332 -0.6070  0.2440
 8951TIP3    H148344   3.649   2.300   5.216 -0.4422 -0.0705 -0.2311
 8951TIP3    H248345   3.502   2.331   5.238 -0.7285 -1.4839 -0.0528
 8952TIP3   OH248346   1.937   6.396   2.312 -0.7206  0.0818 -0.4216
 8952TIP3    H148347   1.883   6.385   2.390  0.6929 -1.4372  0.4088
 8952TIP3    H248348   1.951   6.491   2.305  0.7490  0.1636  2.3814
 8953TIP3   OH248349   3.087   6.612  16.283 -0.0372 -0.1506  0.1620
 8953TIP3    H148350   3.132   6.553  16.344 -0.1854  1.0954  1.5460
 8953TIP3    H248351   3.157   6.666  16.245 -0.1004  0.1433  0.4559
 8954TIP3   OH248352   5.113   1.737   3.252  0.5131 -0.8155  0.1073
 8954TIP3    H148353   5.067   1.658   3.224  1.7103 -1.6874  0.4889
 8954TIP3    H248354   5.205   1.720   3.230  0.6798  0.9101 -0.7453
 8955TIP3   OH248355   5.753   0.475   4.300  1.1529  0.4854 -0.4712
 8955TIP3    H148356   5.777   0.446   4.388  1.5637  0.4727 -0.5828
 8955TIP3    H248357   5.697   0.406   4.266 -0.3966  1.2648  0.3955
 8956TIP3   OH248358   6.404   0.529   1.288 -0.1051  0.0721  0.2384
 8956TIP3    H148359   6.439   0.595   1.347  1.3312 -1.1461  0.7885
 8956TIP3    H248360   6.317   0.562   1.265  0.3342  1.8501  0.9527
 8957TIP3   OH248361   4.444   4.945  16.654 -0.6185  0.3563 -0.2715
 8957TIP3    H148362   4.506   5.018  16.648 -1.1171  0.7500 -0.7445
 8957TIP3    H248363   4.394   4.949  16.573  1.0866 -2.1580 -1.5553
 8958TIP3   OH248364   2.976   2.779   4.517 -0.0109  0.2752  0.3870
 8958TIP3    H148365   2.941   2.813   4.600 -1.0375 -0.5116  0.2960
 8958TIP3    H248366   2.996   2.857   4.466  0.6419  0.7773  1.3674
 8959TIP3   OH248367   4.997   6.587  12.128  0.7372  0.3690 -0.1680
 8959TIP3    H148368   4.920   6.619  12.175  0.1370  1.8592 -2.0503
 8959TIP3    H248369   5.010   6.498  12.162  0.1322  1.1807  2.4744
 8960TIP3   OH248370   5.484   4.551  13.477 -0.6733 -0.1051 -0.9774
 8960TIP3    H148371   5.535   4.614  13.529 -2.5235 -0.6431  1.6217
 8960TIP3    H248372   5.402   4.596  13.459 -1.8899 -1.6064  0.6285
 8961TIP3   OH248373   1.182   1.300  11.834 -0.2093  0.3842 -0.0434
 8961TIP3    H148374   1.159   1.345  11.753 -0.3650  0.4693  0.0489
 8961TIP3    H248375   1.218   1.216  11.805 -1.7684 -0.2746 -0.1550
 8962TIP3   OH248376   4.684   1.595   2.074 -0.4933 -0.5573  0.2471
 8962TIP3    H148377   4.735   1.569   1.997 -0.6614 -0.2455  0.0293
 8962TIP3    H248378   4.722   1.679   2.101 -2.2999  0.8264 -1.2535
 8963TIP3   OH248379   5.048   0.495  16.215  0.3554 -0.1595  0.1081
 8963TIP3    H148380   4.982   0.563  16.204 -0.0095 -0.8640 -3.4649
 8963TIP3    H248381   5.045   0.445  16.133  2.2103 -3.0576  1.6236
 8964TIP3   OH248382   4.025   1.683   4.322 -0.2068 -0.2944 -0.0532
 8964TIP3    H148383   4.042   1.662   4.414  0.1001  0.7365  0.1338
 8964TIP3    H248384   4.098   1.642   4.275 -0.2399 -0.6313  0.1817
 8965TIP3   OH248385   4.678   1.095   2.525  0.1092  0.2952 -0.0659
 8965TIP3    H148386   4.637   1.069   2.443 -2.0034 -0.5402  1.1990
 8965TIP3    H248387   4.606   1.102   2.587  1.8154 -0.8641  2.1795
 8966TIP3   OH248388   4.576   6.276   1.066  0.2262  0.1536 -0.0188
 8966TIP3    H148389   4.498   6.251   1.016  0.5749 -0.6389 -0.1897
 8966TIP3    H248390   4.571   6.371   1.073 -0.0051  0.2537 -1.2977
 8967TIP3   OH248391   4.925   6.254  14.105 -0.0194 -0.1417 -0.2072
 8967TIP3    H148392   4.860   6.313  14.144 -0.6608 -0.2526 -1.0926
 8967TIP3    H248393   4.880   6.214  14.031  0.4229 -1.7240  0.3522
 8968TIP3   OH248394   3.441   6.493   6.638  0.0606  0.3682  0.0050
 8968TIP3    H148395   3.517   6.550   6.636  0.1436  0.3603  1.5875
 8968TIP3    H248396   3.473   6.409   6.606  0.1118  0.9690 -1.6167
 8969TIP3   OH248397   3.557   0.811  14.837 -0.2178 -0.3459 -0.2971
 8969TIP3    H148398   3.552   0.740  14.773 -1.3270 -0.2974 -0.2911
 8969TIP3    H248399   3.626   0.868  14.804  1.1951 -1.7693  0.0741
 8970TIP3   OH248400   4.066   4.215   5.063  0.7847 -0.0524 -0.0368
 8970TIP3    H148401   4.153   4.178   5.049  0.5975 -0.2133 -0.8818
 8970TIP3    H248402   4.067   4.297   5.013  0.4333 -0.0912 -0.1103
 8971TIP3   OH248403   5.926   3.465  12.715 -0.2822 -0.3633 -0.1280
 8971TIP3    H148404   5.999   3.522  12.693 -0.4330 -0.5013 -0.9899
 8971TIP3    H248405   5.946   3.382  12.674 -0.3156 -0.7875  0.6955
 8972TIP3   OH248406   5.425   1.045  11.348  0.1812 -0.0468 -0.1903
 8972TIP3    H148407   5.438   1.130  11.305 -2.2690 -0.2444 -1.4511
 8972TIP3    H248408   5.445   0.980  11.280  0.3742 -0.4615  0.2547
 8973TIP3   OH248409   6.778   4.102   1.429 -0.2188  0.1535 -0.4254
 8973TIP3    H148410   6.715   4.047   1.383  1.6873 -0.2889 -2.7027
 8973TIP3    H248411   6.776   4.069   1.520 -2.2464 -0.7005 -0.7172
 8974TIP3   OH248412   1.219   6.214  11.652 -0.0161  0.2465  0.2957
 8974TIP3    H148413   1.288   6.274  11.625 -0.4728  0.7714  0.2783
 8974TIP3    H248414   1.219   6.146  11.584 -1.5603  1.8717 -1.4564
 8975TIP3   OH248415   0.726   5.997   5.789  0.4100  0.8499 -0.6563
 8975TIP3    H148416   0.718   5.990   5.694  0.4468  0.2751 -0.6239
 8975TIP3    H248417   0.657   6.058   5.814 -0.4971 -0.0259 -0.9248
 8976TIP3   OH248418   1.586   2.088   5.442 -0.0893  0.4498  0.0524
 8976TIP3    H148419   1.587   1.997   5.412 -0.6069  0.6964 -0.7440
 8976TIP3    H248420   1.521   2.090   5.512 -0.4719  0.3080 -0.2926
 8977TIP3   OH248421   6.586   4.997  12.608 -0.1932 -0.1656 -0.0321
 8977TIP3    H148422   6.490   4.993  12.602 -0.1312  0.5563 -2.3156
 8977TIP3    H248423   6.612   4.906  12.621 -1.0960 -0.8618 -2.4741
 8978TIP3   OH248424   3.975   2.398  14.644  0.1997  0.7407 -0.3848
 8978TIP3    H148425   3.881   2.399  14.632  0.3157  2.3080 -1.4678
 8978TIP3    H248426   4.011   2.415  14.557  1.4829  0.0615 -0.0087
 8979TIP3   OH248427   2.453   1.893   2.168  0.0813 -0.0100  0.3603
 8979TIP3    H148428   2.507   1.880   2.090 -1.1960 -0.0195 -0.5652
 8979TIP3    H248429   2.406   1.811   2.179 -1.6080  0.7962 -0.3856
 8980TIP3   OH248430   6.171   0.199   0.317 -0.2562 -0.0870  0.3684
 8980TIP3    H148431   6.209   0.287   0.308 -2.1714  0.8769  1.0087
 8980TIP3    H248432   6.179   0.160   0.230 -1.0211  1.4841 -0.4636
 8981TIP3   OH248433   0.360   4.400   0.153  0.5459 -0.1051 -0.2121
 8981TIP3    H148434   0.349   4.379   0.061 -1.6960  0.7866 -0.2027
 8981TIP3    H248435   0.285   4.360   0.197  0.8753  0.5639  1.0385
 8982TIP3   OH248436   4.656   6.719   0.518  0.0264 -0.1054 -0.6006
 8982TIP3    H148437   4.693   6.632   0.504  1.3943  0.0304  1.6583
 8982TIP3    H248438   4.694   6.772   0.449  0.2216 -1.0197 -1.2171
 8983TIP3   OH248439   3.019   6.447   4.356 -0.7075 -0.1578 -0.3764
 8983TIP3    H148440   3.031   6.353   4.367 -0.4781 -0.3065 -1.6589
 8983TIP3    H248441   2.950   6.455   4.290 -0.9125  0.5788 -0.0845
 8984TIP3   OH248442   2.191   1.572   5.658 -0.7998 -0.3829  0.7857
 8984TIP3    H148443   2.117   1.624   5.688 -0.9143 -0.0939  0.0366
 8984TIP3    H248444   2.260   1.588   5.722 -1.1079  0.0222  1.0232
 8985TIP3   OH248445   0.071   0.107   1.729 -0.4460  0.6677  0.3188
 8985TIP3    H148446   0.063   0.024   1.682  2.1903  0.1732  0.5824
 8985TIP3    H248447   0.097   0.170   1.662 -0.6570  0.8842  0.4381
 8986TIP3   OH248448   1.601   5.988   6.372  0.3575 -0.6899 -0.0757
 8986TIP3    H148449   1.507   6.001   6.365  0.5787  1.8958  0.5802
 8986TIP3    H248450   1.612   5.893   6.381 -2.0245 -1.2002 -1.6808
 8987TIP3   OH248451   3.426   4.440  11.527 -0.3943  0.0145  0.5911
 8987TIP3    H148452   3.447   4.532  11.544 -2.0659  1.0212 -2.2100
 8987TIP3    H248453   3.441   4.429  11.433  0.6441 -2.8855  0.9994
 8988TIP3   OH248454   6.265   3.224   4.712 -0.4004  0.5127  0.2138
 8988TIP3    H148455   6.293   3.308   4.748  1.1739  0.9193 -1.7694
 8988TIP3    H248456   6.208   3.248   4.639 -1.5203 -0.2137  0.8342
 8989TIP3   OH248457   4.787   5.240  15.866  0.1247  0.2016  0.3972
 8989TIP3    H148458   4.733   5.233  15.945 -2.3053 -1.5569 -1.2726
 8989TIP3    H248459   4.780   5.332  15.840 -2.9903 -0.1220 -0.2615
 8990TIP3   OH248460   2.917   1.828   3.947  0.2930  0.2229  0.3571
 8990TIP3    H148461   2.839   1.804   3.896  0.3312 -1.0335  0.8672
 8990TIP3    H248462   2.975   1.869   3.884 -0.6133  0.8169 -0.1163
 8991TIP3   OH248463   3.582   2.422  12.197  0.0485 -0.3663 -0.2280
 8991TIP3    H148464   3.573   2.370  12.118  0.8490  0.9441 -1.2161
 8991TIP3    H248465   3.561   2.512  12.169 -1.2016 -0.0957  1.3962
 8992TIP3   OH248466   6.638   0.083  12.956  0.2478  0.1794 -0.8100
 8992TIP3    H148467   6.553   0.041  12.968 -0.4400  1.5857 -0.5793
 8992TIP3    H248468   6.618   0.176  12.950  1.9753  0.8092  1.7393
 8993TIP3   OH248469   0.309   1.871  12.468 -0.6129  0.2436  0.0181
 8993TIP3    H148470   0.377   1.894  12.405 -1.0862  0.5672 -0.3783
 8993TIP3    H248471   0.330   1.924  12.545 -0.4998  0.4493 -0.1525
 8994TIP3   OH248472   0.807   5.953   2.909 -0.0235 -0.0714 -0.2647
 8994TIP3    H148473   0.782   6.018   2.844  0.7882  0.4392 -0.0734
 8994TIP3    H248474   0.840   6.003   2.983 -2.6241 -0.5623  1.3293
 8995TIP3   OH248475   5.934   2.949   2.961  0.7513 -0.5413  0.6030
 8995TIP3    H148476   5.997   3.020   2.972  0.3434  0.1087 -1.0254
 8995TIP3    H248477   5.852   2.993   2.937  0.4871 -1.5423 -0.4210
 8996TIP3   OH248478   5.917   4.711  14.274 -0.0744 -0.1681 -0.3435
 8996TIP3    H148479   5.830   4.683  14.246 -0.0959  0.0928 -0.5424
 8996TIP3    H248480   5.917   4.806  14.259 -0.2233  0.0418  0.8814
 8997TIP3   OH248481   1.665   1.732   6.773  0.3782 -0.0194  0.7211
 8997TIP3    H148482   1.590   1.785   6.800 -0.0165 -0.6380  0.8526
 8997TIP3    H248483   1.731   1.796   6.745 -0.3725  0.5097  0.1448
 8998TIP3   OH248484   4.404   1.562  13.820  0.4089  0.0954 -0.1110
 8998TIP3    H148485   4.316   1.594  13.839  0.8451  1.1921  0.1401
 8998TIP3    H248486   4.406   1.554  13.724 -0.4277 -1.3741 -0.0342
 8999TIP3   OH248487   5.937   4.221   3.315  0.4442  0.0552  0.0246
 8999TIP3    H148488   5.859   4.229   3.371  1.5026 -0.6027  1.6570
 8999TIP3    H248489   5.904   4.235   3.226 -1.6938 -1.0537  0.5799
 9000TIP3   OH248490   2.532   2.764   5.197  0.3306 -0.2335 -0.1972
 9000TIP3    H148491   2.446   2.735   5.229  0.7524 -1.8946 -0.4307
 9000TIP3    H248492   2.533   2.858   5.210 -0.6112 -0.4819  2.0544
 9001TIP3   OH248493   6.128   0.509  12.242  0.2781 -0.0820 -0.0016
 9001TIP3    H148494   6.134   0.505  12.147 -1.4650 -0.0644 -0.1420
 9001TIP3    H248495   6.117   0.602  12.263  1.1773 -0.0266  0.2725
 9002TIP3   OH248496   6.061   0.116  16.493 -0.0158 -0.1177  0.1474
 9002TIP3    H148497   6.062   0.041  16.553  0.9924  1.9363  2.9181
 9002TIP3    H248498   6.002   0.089  16.423  0.2448 -3.4420  1.0259
 9003TIP3   OH248499   3.670   2.272   2.249  1.0487 -0.0610  0.4868
 9003TIP3    H148500   3.705   2.361   2.245  0.7929  0.0839  1.2712
 9003TIP3    H248501   3.602   2.271   2.182  0.6321  0.5346  0.8849
 9004TIP3   OH248502   3.508   0.187   0.372  0.0452  0.2635  0.6906
 9004TIP3    H148503   3.571   0.260   0.374  1.4530 -0.8602 -0.3759
 9004TIP3    H248504   3.497   0.163   0.464  2.9963 -0.9210  0.8732
 9005TIP3   OH248505   5.229   4.720  14.234  0.1238  0.2791 -0.0920
 9005TIP3    H148506   5.243   4.811  14.260 -0.7615  1.0364 -2.0421
 9005TIP3    H248507   5.263   4.714  14.145  1.7762 -1.8037  0.5858
 9006TIP3   OH248508   1.407   0.659   6.034 -0.3621 -0.1310 -0.1402
 9006TIP3    H148509   1.317   0.683   6.013 -0.0717  1.9139  0.7793
 9006TIP3    H248510   1.402   0.568   6.064 -2.0183 -0.2161 -0.6235
 9007TIP3   OH248511   4.883   1.873  14.020  0.3544  0.1094  0.2814
 9007TIP3    H148512   4.836   1.792  14.039  1.2722 -0.5616 -0.2290
 9007TIP3    H248513   4.841   1.907  13.941  0.2082 -0.0601  0.2864
 9008TIP3   OH248514   2.926   5.009  16.652 -0.0844 -0.2433  0.2530
 9008TIP3    H148515   2.890   5.060  16.725 -1.0117  0.6011 -0.7454
 9008TIP3    H248516   2.849   4.977  16.605  0.4267  0.5825 -1.2463
 9009TIP3   OH248517   2.441   5.744   0.375 -0.3043  0.0282  0.1192
 9009TIP3    H148518   2.495   5.672   0.342  1.2399  0.0953  2.2959
 9009TIP3    H248519   2.497   5.822   0.368 -1.7690  0.9942 -1.7210
 9010TIP3   OH248520   6.762   4.140   5.856  0.0545  0.0944  0.1585
 9010TIP3    H148521   6.820   4.067   5.881 -0.4951 -0.1868  0.6323
 9010TIP3    H248522   6.795   4.215   5.906 -1.0257 -0.4568  1.7925
 9011TIP3   OH248523   3.293   1.224   4.477 -0.2719  0.0187  0.0778
 9011TIP3    H148524   3.304   1.209   4.383  0.1421  0.4351  0.0576
 9011TIP3    H248525   3.232   1.297   4.483 -0.6079 -0.2648  0.1416
 9012TIP3   OH248526   1.496   1.998   3.983  0.3719  0.4963 -0.2073
 9012TIP3    H148527   1.411   2.028   4.014  0.6721 -0.6777  1.9981
 9012TIP3    H248528   1.478   1.957   3.899 -0.9056  1.8641 -0.6420
 9013TIP3   OH248529   1.152   1.120   5.403 -0.5672  0.6468 -0.1883
 9013TIP3    H148530   1.144   1.142   5.496 -0.4748 -1.4717  0.3700
 9013TIP3    H248531   1.062   1.126   5.369 -0.6253  1.2600  0.0514
 9014TIP3   OH248532   6.035   2.941  14.885 -0.3766 -0.3762  0.0804
 9014TIP3    H148533   5.945   2.973  14.875 -0.8018 -1.5440 -0.0356
 9014TIP3    H248534   6.087   3.019  14.905 -0.9534  0.7412 -2.4864
 9015TIP3   OH248535   0.564   4.670   5.183 -0.4180  0.2769  0.4295
 9015TIP3    H148536   0.619   4.601   5.146  1.2356  1.7610 -0.0651
 9015TIP3    H248537   0.489   4.675   5.123 -0.8546 -1.4156  0.7921
 9016TIP3   OH248538   3.232   5.022   3.790 -0.4855 -0.6117 -0.0545
 9016TIP3    H148539   3.293   5.076   3.840  0.8550 -2.5269  0.4935
 9016TIP3    H248540   3.284   4.990   3.715 -2.0595  1.0730 -1.9731
 9017TIP3   OH248541   1.379   2.563  15.791  0.2740  1.0387  0.0103
 9017TIP3    H148542   1.408   2.472  15.785 -2.1372  0.2467 -0.5295
 9017TIP3    H248543   1.395   2.599  15.704  0.3291  0.8363 -0.0640
 9018TIP3   OH248544   3.138   3.775   2.953  0.0593 -0.6238  0.0001
 9018TIP3    H148545   3.053   3.737   2.973 -0.7512  1.1293  0.0900
 9018TIP3    H248546   3.124   3.821   2.870  0.8028 -0.0126  0.2055
 9019TIP3   OH248547   2.330   0.994   0.369 -0.9465 -0.6967  0.1054
 9019TIP3    H148548   2.307   0.902   0.382 -1.7854 -0.4332  0.5090
 9019TIP3    H248549   2.246   1.040   0.366 -0.6882 -0.2257 -2.4971
 9020TIP3   OH248550   5.560   5.638   5.227 -0.1187  0.0049  0.1189
 9020TIP3    H148551   5.538   5.636   5.134 -1.0491  0.3104  0.3207
 9020TIP3    H248552   5.656   5.643   5.229 -0.1353  1.4138 -0.8491
 9021TIP3   OH248553   1.616   4.152   0.782 -0.6195 -0.2367  0.1766
 9021TIP3    H148554   1.613   4.194   0.868  2.2161 -0.4939  0.4956
 9021TIP3    H248555   1.676   4.078   0.794 -0.9088 -0.8397 -1.8007
 9022TIP3   OH248556   6.538   6.263  14.778  0.3810 -0.0028  0.4731
 9022TIP3    H148557   6.624   6.272  14.819  0.6475 -0.7904  0.0911
 9022TIP3    H248558   6.526   6.346  14.732  0.2967  0.6970  1.7025
 9023TIP3   OH248559   1.925   5.712  13.616  0.1177  0.0463 -0.3745
 9023TIP3    H148560   1.892   5.626  13.591  0.2236  0.0351 -0.4776
 9023TIP3    H248561   1.923   5.763  13.535 -0.0472  0.1736 -0.2906
 9024TIP3   OH248562   6.144   0.309   4.405 -0.3232  0.0660 -0.1482
 9024TIP3    H148563   6.079   0.300   4.335 -1.4038  0.4409  0.7723
 9024TIP3    H248564   6.214   0.249   4.381 -0.5713  0.3308 -1.6525
 9025TIP3   OH248565   6.015   2.104   0.261  0.5787 -0.2739 -0.0346
 9025TIP3    H148566   5.954   2.031   0.255  0.7872 -0.3924 -0.7618
 9025TIP3    H248567   5.986   2.166   0.194  0.4376  0.2867  0.5344
 9026TIP3   OH248568   1.681   0.536   2.577 -0.0072 -0.2536 -0.7330
 9026TIP3    H148569   1.757   0.592   2.593 -0.1427 -0.3230  0.2075
 9026TIP3    H248570   1.716   0.458   2.535  0.5875 -0.7028  0.5588
 9027TIP3   OH248571   6.557   3.936  15.556 -0.2336  0.1113 -0.3482
 9027TIP3    H148572   6.477   3.916  15.507 -0.3690 -1.6432  0.5338
 9027TIP3    H248573   6.527   3.982  15.633 -0.1110  1.9094 -1.3166
 9028TIP3   OH248574   1.356   3.811  11.707  0.4210  0.0843 -0.1144
 9028TIP3    H148575   1.313   3.800  11.622 -0.2238  0.9819  0.0806
 9028TIP3    H248576   1.417   3.737  11.712  1.3090  0.6454 -1.8430
 9029TIP3   OH248577   0.762   2.919  11.996  0.2505 -0.2132 -0.0562
 9029TIP3    H148578   0.842   2.933  11.946  0.9107 -0.4906  0.8978
 9029TIP3    H248579   0.692   2.927  11.932  1.0160  0.4004 -0.8381
 9030TIP3   OH248580   1.971   0.016  12.741  0.5461  0.0451  0.3375
 9030TIP3    H148581   1.983  -0.078  12.736 -0.6967 -0.1803  1.0113
 9030TIP3    H248582   2.032   0.052  12.677  0.0953 -1.2985 -0.9143
 9031TIP3   OH248583   2.581   5.511   2.192  0.1780  1.1847  0.8631
 9031TIP3    H148584   2.535   5.551   2.265 -1.2537  0.1037  0.5999
 9031TIP3    H248585   2.574   5.417   2.208 -2.2551  0.7771 -1.7756
 9032TIP3   OH248586   4.109   3.756   5.949 -0.0544  0.6336 -0.5325
 9032TIP3    H148587   4.196   3.795   5.934  0.0722  0.0344 -1.3877
 9032TIP3    H248588   4.093   3.770   6.042  0.5375  1.6168 -0.5622
 9033TIP3   OH248589   6.003   4.974  14.270  0.3053  0.2658  0.2932
 9033TIP3    H148590   6.079   5.000  14.219 -0.0093  0.7043  0.0472
 9033TIP3    H248591   5.953   5.054  14.283 -0.0563  0.0052  0.5512
 9034TIP3   OH248592   5.420   1.873  11.214 -0.2394 -0.0188  0.2942
 9034TIP3    H148593   5.338   1.894  11.169  0.1762 -0.3945 -0.6627
 9034TIP3    H248594   5.488   1.885  11.147  0.3403 -1.0557  0.6701
 9035TIP3   OH248595   0.780   4.363  11.459 -0.7618 -0.5167 -0.1518
 9035TIP3    H148596   0.850   4.318  11.507  0.2060  1.3323  0.2706
 9035TIP3    H248597   0.701   4.348  11.511 -0.3400 -1.1702  0.3156
 9036TIP3   OH248598   6.390   4.842  15.191  0.2667  0.3423  0.1430
 9036TIP3    H148599   6.466   4.817  15.138 -0.6097 -2.0675 -0.0957
 9036TIP3    H248600   6.407   4.934  15.215  2.7775  0.1686 -0.6463
 9037TIP3   OH248601   3.159   5.410   5.944 -0.1294 -0.2284  0.0348
 9037TIP3    H148602   3.073   5.427   5.982  0.5747  0.6022  1.3187
 9037TIP3    H248603   3.221   5.447   6.006  1.1336  0.0935 -1.3542
 9038TIP3   OH248604   4.061   0.420  14.158  0.4978 -0.7694  0.4674
 9038TIP3    H148605   4.124   0.387  14.093  0.3948 -0.6001  0.2814
 9038TIP3    H248606   4.063   0.515  14.148 -0.0678 -0.7836  0.2002
 9039TIP3   OH248607   0.445   4.777  15.861 -0.1665 -0.3322  0.6527
 9039TIP3    H148608   0.369   4.733  15.898 -2.7027  1.7888 -1.6992
 9039TIP3    H248609   0.429   4.870  15.876  2.1649  0.1805  0.3754
 9040TIP3   OH248610   1.638   2.481   2.750 -0.4241  0.7933  0.0421
 9040TIP3    H148611   1.599   2.517   2.830 -0.4031 -0.1932  0.5046
 9040TIP3    H248612   1.575   2.504   2.681 -2.6193 -1.9248  0.9507
 9041TIP3   OH248613   4.037   4.857   4.308 -0.0656  0.0436 -0.1290
 9041TIP3    H148614   4.043   4.833   4.401  0.4316 -1.0700 -0.4313
 9041TIP3    H248615   4.110   4.917   4.294 -0.4217  0.5831  0.3035
 9042TIP3   OH248616   4.216   5.414  12.102  0.2102 -0.9425  0.5613
 9042TIP3    H148617   4.269   5.477  12.151  0.9404 -0.8664 -0.3053
 9042TIP3    H248618   4.130   5.456  12.096  0.7739  0.1771 -0.3098
 9043TIP3   OH248619   5.133   1.258   5.534  0.0752 -0.0538  0.1251
 9043TIP3    H148620   5.191   1.222   5.467  1.3608 -0.7907  1.5585
 9043TIP3    H248621   5.046   1.223   5.511  0.7566 -1.5784 -0.2791
 9044TIP3   OH248622   0.446   6.147  17.270  0.3456 -0.3682 -0.5148
 9044TIP3    H148623   0.353   6.125  17.261  0.0650  0.4895  0.1490
 9044TIP3    H248624   0.472   6.104  17.351 -0.6523  2.9346  1.7719
 9045TIP3   OH248625   6.158   1.667  16.863 -0.0670 -0.0384 -0.7280
 9045TIP3    H148626   6.072   1.624  16.865  0.5100 -1.2191 -0.8589
 9045TIP3    H248627   6.219   1.598  16.839  1.1315  0.4565  0.7759
 9046TIP3   OH248628   0.647   1.525   2.571 -0.0666  0.0799  0.0499
 9046TIP3    H148629   0.740   1.539   2.588  0.2882 -1.6670 -0.3067
 9046TIP3    H248630   0.603   1.560   2.649  1.0134 -0.4960  0.9490
 9047TIP3   OH248631   6.104   2.110   2.446  0.2448 -0.2017 -0.4274
 9047TIP3    H148632   6.189   2.120   2.489 -0.2938  0.1621  0.5688
 9047TIP3    H248633   6.126   2.080   2.358  1.5852  2.4103 -1.1080
 9048TIP3   OH248634   0.769   6.437  10.762 -0.1912 -0.4690 -0.1922
 9048TIP3    H148635   0.829   6.450  10.688 -0.2489 -0.6083 -0.2648
 9048TIP3    H248636   0.732   6.350  10.747 -1.5040  0.1933 -0.9387
 9049TIP3   OH248637   5.015   2.637  10.425  0.4606  0.0002 -0.3175
 9049TIP3    H148638   4.955   2.582  10.375 -1.2030  0.9566  0.5467
 9049TIP3    H248639   4.978   2.641  10.513  1.7043  0.7647  0.2143
 9050TIP3   OH248640   1.683   5.008   4.504 -0.1463  0.2588 -0.8795
 9050TIP3    H148641   1.623   5.082   4.496  0.3975  0.6381 -1.5496
 9050TIP3    H248642   1.735   5.010   4.423  1.2882  0.3971  0.0062
 9051TIP3   OH248643   2.540   4.899   1.904  0.4430  0.2025  0.1083
 9051TIP3    H148644   2.465   4.928   1.956  1.1281  1.9516  0.1964
 9051TIP3    H248645   2.521   4.932   1.816  1.3812  1.2519  0.2768
 9052TIP3   OH248646   2.819   1.317   1.371  0.5606 -0.1123  0.3439
 9052TIP3    H148647   2.768   1.395   1.394 -2.8339 -1.5666 -1.4442
 9052TIP3    H248648   2.840   1.276   1.454 -3.5580 -0.6826  1.3374
 9053TIP3   OH248649   0.996   5.290   1.610 -0.0517 -0.1743 -0.5318
 9053TIP3    H148650   0.974   5.356   1.675  0.7879  0.0959 -0.5095
 9053TIP3    H248651   0.918   5.235   1.605 -0.2341 -0.0368  0.4944
 9054TIP3   OH248652   2.299   5.333  12.573  0.3762  0.0218  1.2187
 9054TIP3    H148653   2.210   5.297  12.577 -0.0882  1.1185  1.2661
 9054TIP3    H248654   2.339   5.305  12.655 -0.9118  1.8925  2.5839
 9055TIP3   OH248655   6.515   6.424   1.040 -0.3396  0.0790  0.3426
 9055TIP3    H148656   6.487   6.452   1.126  1.7751  1.1995  0.7295
 9055TIP3    H248657   6.555   6.338   1.055 -1.8092 -0.6985  0.0749
 9056TIP3   OH248658   2.615   2.957   4.943  0.4392  0.0114 -0.3271
 9056TIP3    H148659   2.584   2.871   4.915 -0.3687 -0.2662  1.3506
 9056TIP3    H248660   2.618   3.009   4.862  0.0220 -1.2993 -1.2048
 9057TIP3   OH248661   5.901   5.331   4.220  0.2214  0.2044 -0.3489
 9057TIP3    H148662   5.883   5.238   4.208  1.2756  0.0504 -0.7928
 9057TIP3    H248663   5.822   5.375   4.188  0.4010 -0.4767 -1.7931
 9058TIP3   OH248664   0.055   6.188   4.508 -0.1270 -0.5479 -0.5596
 9058TIP3    H148665   0.081   6.167   4.418  2.4864 -2.3337  0.4983
 9058TIP3    H248666   0.110   6.262   4.532  0.4597 -1.1755  0.0885
 9059TIP3   OH248667   4.221   2.555   4.238 -0.2131 -0.2909  0.2343
 9059TIP3    H148668   4.183   2.539   4.324  0.1221  0.6929  0.5858
 9059TIP3    H248669   4.299   2.499   4.235 -0.1082 -0.1753  0.6669
 9060TIP3   OH248670   5.822   0.967   2.432 -0.5440  0.1571  0.6488
 9060TIP3    H148671   5.784   1.038   2.380  0.2760  0.3491  0.3014
 9060TIP3    H248672   5.805   0.888   2.381 -0.3705  0.2581  0.4315
 9061TIP3   OH248673   0.631   0.485   1.760  0.2035  0.7163  0.7815
 9061TIP3    H148674   0.577   0.436   1.698 -0.7792  0.6331  1.6796
 9061TIP3    H248675   0.596   0.462   1.846  1.5190  0.8532  1.3836
 9062TIP3   OH248676   6.022   6.108  14.053  0.0164 -0.3317 -0.5177
 9062TIP3    H148677   6.047   6.017  14.034 -0.5272 -0.9688  1.6147
 9062TIP3    H248678   6.084   6.136  14.120 -0.0306  0.7735 -0.9218
 9063TIP3   OH248679   4.370   1.828  15.907 -0.4456 -0.0729 -0.0243
 9063TIP3    H148680   4.305   1.761  15.930  2.8588 -3.0700  1.4806
 9063TIP3    H248681   4.401   1.802  15.820  0.8256 -0.5320  0.5468
 9064TIP3   OH248682   0.961   1.717   4.857 -0.1851 -0.6330 -0.1424
 9064TIP3    H148683   1.017   1.639   4.861 -0.8431 -1.0719  1.1915
 9064TIP3    H248684   0.892   1.700   4.921 -0.4116  1.0070  0.0935
 9065TIP3   OH248685   2.623   2.868  16.647 -0.3671  0.5950  0.3786
 9065TIP3    H148686   2.713   2.836  16.639  0.4285  2.8120 -0.4102
 9065TIP3    H248687   2.580   2.838  16.568 -0.6817 -1.3583  1.2295
 9066TIP3   OH248688   5.307   0.421  12.716  0.5907  0.3700  0.0490
 9066TIP3    H148689   5.398   0.401  12.696  1.0954  1.4309  1.1666
 9066TIP3    H248690   5.285   0.363  12.789 -0.1949 -1.0939 -1.2905
 9067TIP3   OH248691   6.172   6.098   5.511  0.3139  0.1629  0.3086
 9067TIP3    H148692   6.142   6.162   5.447 -0.2206 -0.1852  0.2047
 9067TIP3    H248693   6.241   6.049   5.465  1.8020  1.6140  0.8779
 9068TIP3   OH248694   6.571   3.256  13.031  0.0374 -0.8690  0.6360
 9068TIP3    H148695   6.600   3.170  12.999  0.9879  0.3703 -2.1709
 9068TIP3    H248696   6.508   3.285  12.965  1.1126  1.3578  0.5237
 9069TIP3   OH248697   2.072   1.353   5.308  0.1146 -0.3299 -0.1832
 9069TIP3    H148698   2.056   1.410   5.384  0.6384  0.0524 -0.3572
 9069TIP3    H248699   1.995   1.365   5.253  0.7241  1.1053 -0.7690
 9070TIP3   OH248700   3.369   4.742   5.853  0.0093  0.1775 -0.0350
 9070TIP3    H148701   3.328   4.821   5.818 -1.6990 -1.0339 -0.9070
 9070TIP3    H248702   3.415   4.772   5.931  0.5551  2.2601 -1.0842
 9071TIP3   OH248703   1.927   6.498  13.081  0.2978  0.4021 -0.5661
 9071TIP3    H148704   1.862   6.518  13.149 -0.1304  0.9452 -1.1232
 9071TIP3    H248705   2.003   6.551  13.103  0.5522 -0.2078  0.0682
 9072TIP3   OH248706   5.221   0.163  15.010 -0.2965  0.0586 -0.1757
 9072TIP3    H148707   5.259   0.075  15.009 -1.0600 -0.2737 -0.1554
 9072TIP3    H248708   5.245   0.199  15.095  0.0096 -0.1221 -0.1824
 9073TIP3   OH248709   4.908   3.588   1.862  0.6653  0.3044 -0.1780
 9073TIP3    H148710   4.959   3.514   1.896  2.0711 -0.4434 -3.5348
 9073TIP3    H248711   4.944   3.665   1.908  1.5221 -0.7273  0.9487
 9074TIP3   OH248712   0.581   6.522   4.246 -0.1094  0.3472  0.1168
 9074TIP3    H148713   0.568   6.457   4.177 -1.9114  0.1634  0.5839
 9074TIP3    H248714   0.540   6.484   4.323  1.8507  0.5520  1.3423
 9075TIP3   OH248715   2.489   4.077   5.585  0.2466  0.3114  0.2321
 9075TIP3    H148716   2.542   4.157   5.579 -0.6315  1.1533  2.5170
 9075TIP3    H248717   2.400   4.105   5.568  0.1088 -0.4882 -0.4259
 9076TIP3   OH248718   4.225   3.496   4.287  0.3474  0.0679 -0.2686
 9076TIP3    H148719   4.276   3.577   4.281 -1.1495  1.1127  0.5158
 9076TIP3    H248720   4.186   3.487   4.200  0.4191  0.2512 -0.3218
 9077TIP3   OH248721   2.302   2.921  14.402  0.4289  1.2252 -0.2626
 9077TIP3    H148722   2.211   2.901  14.426  0.9748 -1.4247 -0.0895
 9077TIP3    H248723   2.296   3.002  14.352 -1.9532  1.4837  0.3045
 9078TIP3   OH248724   4.483   5.900  11.346 -0.4387  0.5277  0.3621
 9078TIP3    H148725   4.524   5.951  11.276 -0.5217  0.0571 -0.0415
 9078TIP3    H248726   4.411   5.955  11.377 -1.5673  0.0135 -1.1879
 9079TIP3   OH248727   3.573   2.365  16.682 -0.2314  0.0464  0.0745
 9079TIP3    H148728   3.611   2.289  16.637  1.0760  0.7552 -0.0715
 9079TIP3    H248729   3.549   2.332  16.768 -1.7210 -1.0574 -0.7245
 9080TIP3   OH248730   6.761   0.563   5.786 -0.0652  0.0584 -0.0071
 9080TIP3    H148731   6.740   0.578   5.879 -1.8585 -2.3852  0.0907
 9080TIP3    H248732   6.678   0.576   5.741  0.2814 -0.8812 -0.9590
 9081TIP3   OH248733   5.232   4.860  15.876  0.1587 -0.1470  0.3966
 9081TIP3    H148734   5.228   4.884  15.968 -0.4559 -0.0007  0.3319
 9081TIP3    H248735   5.209   4.767  15.874 -2.4586  0.4315  0.1448
 9082TIP3   OH248736   4.545   0.042   4.714 -0.0114 -0.0374 -0.0651
 9082TIP3    H148737   4.493  -0.026   4.757 -1.6492  1.1248 -0.1196
 9082TIP3    H248738   4.502   0.055   4.629  1.4091 -0.2409 -0.8295
 9083TIP3   OH248739   4.476   2.661  12.934  0.6206  0.3529 -0.3220
 9083TIP3    H148740   4.544   2.709  12.981  1.3071  0.0264 -0.9499
 9083TIP3    H248741   4.463   2.581  12.984  0.4645  0.5683 -0.0201
 9084TIP3   OH248742   4.378   5.277  13.987  0.1392  0.1387  0.5837
 9084TIP3    H148743   4.417   5.223  14.055 -0.4671  0.6533  1.3602
 9084TIP3    H248744   4.384   5.224  13.908  1.4575 -0.1981  0.8927
 9085TIP3   OH248745   0.556   1.782   0.001 -0.0340 -0.3469  0.0201
 9085TIP3    H148746   0.490   1.721  -0.032 -0.9770  0.7701 -0.2190
 9085TIP3    H248747   0.613   1.799  -0.074  0.1039 -0.7545  0.0307
 9086TIP3   OH248748   3.188   6.513   3.439  0.5522 -0.1477 -0.0937
 9086TIP3    H148749   3.282   6.526   3.427  0.1155  1.5074 -2.3239
 9086TIP3    H248750   3.161   6.586   3.495  0.7143 -1.2597  1.5054
 9087TIP3   OH248751   5.475   5.129   2.523 -0.0998  0.1443  0.2685
 9087TIP3    H148752   5.392   5.127   2.474  0.0670  0.5526 -0.0337
 9087TIP3    H248753   5.464   5.200   2.585 -0.3823 -0.4908  0.9676
 9088TIP3   OH248754   3.506   0.247  16.462  0.2256  0.1066  0.0556
 9088TIP3    H148755   3.499   0.340  16.481  0.5134  0.2021 -0.2987
 9088TIP3    H248756   3.558   0.211  16.534 -0.5425  0.0745  0.6159
 9089TIP3   OH248757   6.485   5.298   6.439  0.0468 -0.7590 -0.3792
 9089TIP3    H148758   6.549   5.250   6.385  2.1741 -2.0026  2.9361
 9089TIP3    H248759   6.438   5.229   6.486 -0.7905  0.3065  0.3648
 9090TIP3   OH248760   5.326   3.447   3.066  0.2812 -0.1228  0.0368
 9090TIP3    H148761   5.249   3.503   3.069 -0.8810 -1.5735 -1.1516
 9090TIP3    H248762   5.307   3.384   2.997  2.6444 -0.3936 -0.4637
 9091TIP3   OH248763   2.003   6.643  15.009 -0.2063 -0.0375  0.3065
 9091TIP3    H148764   2.019   6.725  15.055  1.5092  0.3294 -0.8346
 9091TIP3    H248765   1.994   6.577  15.078 -2.0176  1.1277  1.2537
 9092TIP3   OH248766   3.383   1.324  15.203 -0.6545 -0.6026 -0.1149
 9092TIP3    H148767   3.432   1.322  15.285 -2.4396 -0.7234  1.0229
 9092TIP3    H248768   3.296   1.292  15.227 -1.9400  1.5700 -1.5387
 9093TIP3   OH248769   1.504   5.871   1.739 -0.1489  0.5800 -0.3581
 9093TIP3    H148770   1.466   5.800   1.687  0.3034 -0.3641  0.5528
 9093TIP3    H248771   1.448   5.875   1.817  2.2855 -1.8497  1.7548
 9094TIP3   OH248772   3.357   3.020   3.809  0.0200 -0.2359 -0.0376
 9094TIP3    H148773   3.444   2.983   3.791  0.3141  0.8526 -0.9326
 9094TIP3    H248774   3.316   3.027   3.724 -0.3408  0.7365  0.2079
 9095TIP3   OH248775   4.105   0.304  12.703  0.0723  0.2592 -0.0595
 9095TIP3    H148776   4.130   0.345  12.785 -3.3078  1.5301  0.5208
 9095TIP3    H248777   4.030   0.248  12.725  0.8918 -1.7182 -1.8505
 9096TIP3   OH248778   3.831   5.920  15.408  0.3715 -0.2843 -0.1309
 9096TIP3    H148779   3.763   5.900  15.343 -1.0633  1.7661  0.6422
 9096TIP3    H248780   3.889   5.982  15.365  0.1671  0.0829  0.1219
 9097TIP3   OH248781   2.755   1.860  17.034 -0.3352  0.6529  0.1647
 9097TIP3    H148782   2.669   1.894  17.010 -0.4176  0.7533  0.5984
 9097TIP3    H248783   2.768   1.786  16.975 -1.6453 -0.7001  1.4501
 9098TIP3   OH248784   0.624   5.917  16.339 -0.0429  0.2603  0.2113
 9098TIP3    H148785   0.651   5.963  16.259 -0.7106  1.0897  0.4555
 9098TIP3    H248786   0.529   5.912  16.332  0.0531 -1.9066 -0.2452
 9099TIP3   OH248787   0.558   0.462  15.344 -0.3299  0.6506 -0.4420
 9099TIP3    H148788   0.467   0.459  15.373 -0.5575 -0.7232 -1.1692
 9099TIP3    H248789   0.587   0.371  15.349  1.3619  1.2038  0.7882
 9100TIP3   OH248790   2.859   5.356  13.196 -0.1089 -0.1363  0.2043
 9100TIP3    H148791   2.802   5.430  13.172 -1.6138 -1.8778 -2.0126
 9100TIP3    H248792   2.819   5.319  13.274 -1.5407 -0.7800 -0.7993
 9101TIP3   OH248793   3.479   3.991  15.269  0.1179  0.4071  0.4666
 9101TIP3    H148794   3.420   4.056  15.231 -0.6460  0.3066  1.4263
 9101TIP3    H248795   3.528   4.040  15.336  1.0069  0.4469 -0.2004
 9102TIP3   OH248796   1.457   1.526  11.016  0.4427 -0.7205 -0.2217
 9102TIP3    H148797   1.543   1.485  11.021  0.1871 -1.1605  0.8823
 9102TIP3    H248798   1.416   1.506  11.100 -0.0077  1.1288  0.0455
 9103TIP3   OH248799   0.988   0.397   6.060 -0.3503 -0.3600  0.1597
 9103TIP3    H148800   1.025   0.309   6.072 -0.8474 -0.7575 -1.1081
 9103TIP3    H248801   1.041   0.436   5.991 -0.4122  0.1850  0.4147
 9104TIP3   OH248802   3.286   5.620   5.567 -0.0927 -0.5364 -0.3455
 9104TIP3    H148803   3.330   5.610   5.483  0.1996 -1.0490 -0.1359
 9104TIP3    H248804   3.357   5.622   5.631 -0.1785  1.6066 -0.2248
 9105TIP3   OH248805   5.260   1.001   2.969 -0.1910  0.0491 -0.2365
 9105TIP3    H148806   5.174   1.027   2.937 -0.1243  0.6143  0.0339
 9105TIP3    H248807   5.315   0.995   2.890 -0.2046  0.7503 -0.3063
 9106TIP3   OH248808   4.555   3.036   6.071  0.2993 -0.0127  0.1120
 9106TIP3    H148809   4.634   3.082   6.040  0.0386  0.7193  0.5165
 9106TIP3    H248810   4.568   3.026   6.165 -0.9580  1.9069  0.5411
 9107TIP3   OH248811   4.880   4.008   4.226  0.2685 -0.5024 -0.2923
 9107TIP3    H148812   4.906   4.099   4.216 -0.6102 -0.0176  1.3744
 9107TIP3    H248813   4.820   4.009   4.301  2.6381 -2.8898  1.8216
 9108TIP3   OH248814   6.434   5.515   4.009 -0.5818  0.3494  0.0401
 9108TIP3    H148815   6.478   5.523   4.094 -0.7127  1.3253  0.0369
 9108TIP3    H248816   6.371   5.587   4.009 -1.3277 -0.2960 -0.4525
 9109TIP3   OH248817   3.713   5.233   3.832 -0.4494 -0.3768  0.3712
 9109TIP3    H148818   3.724   5.170   3.760  1.1365  0.0895  0.1572
 9109TIP3    H248819   3.683   5.313   3.789  0.6116 -0.0629  0.1771
 9110TIP3   OH248820   5.614   0.537   3.890  0.5759 -0.0491  0.3322
 9110TIP3    H148821   5.631   0.445   3.869 -1.9101 -0.2707 -1.2386
 9110TIP3    H248822   5.571   0.571   3.811 -0.6929  1.8040  1.7366
 9111TIP3   OH248823   3.211   3.863   4.547  0.1251  0.0430  0.4508
 9111TIP3    H148824   3.118   3.860   4.523 -0.1645  0.1335  1.4760
 9111TIP3    H248825   3.210   3.867   4.643  1.1819  0.5847  0.4512
 9112TIP3   OH248826   5.548   4.650   3.349  0.1067  0.2618 -0.5503
 9112TIP3    H148827   5.619   4.641   3.286 -1.2921  0.5609 -2.2281
 9112TIP3    H248828   5.468   4.643   3.297 -1.1162  0.1495  1.2481
 9113TIP3   OH248829   0.953   4.027   5.881  0.0940  0.2250 -0.1983
 9113TIP3    H148830   0.998   4.080   5.947  0.9126 -2.0027  1.1377
 9113TIP3    H248831   0.971   4.071   5.798  1.6553  1.4196  0.7346
 9114TIP3   OH248832   5.400   6.711   3.534  0.6430  0.3062 -0.1944
 9114TIP3    H148833   5.305   6.712   3.521  0.6027 -2.9630 -0.9582
 9114TIP3    H248834   5.436   6.746   3.452  0.1274  0.1231 -0.4991
 9115TIP3   OH248835   6.802   5.515   4.013 -0.0325 -0.5137 -0.0852
 9115TIP3    H148836   6.810   5.427   3.975  3.0709 -0.6628  0.6839
 9115TIP3    H248837   6.738   5.504   4.084 -1.1286 -1.6572 -1.1800
 9116TIP3   OH248838   4.455   1.293   3.484  0.3564  0.2653 -0.3635
 9116TIP3    H148839   4.506   1.229   3.434 -1.0487  0.3993 -2.0622
 9116TIP3    H248840   4.502   1.376   3.469  1.3830 -0.1001  0.6902
 9117TIP3   OH248841   3.320   1.677  16.810  0.5799  0.4721  0.0451
 9117TIP3    H148842   3.389   1.654  16.748  0.6025 -2.2319  0.9274
 9117TIP3    H248843   3.362   1.674  16.896 -0.0940  1.2929  0.4204
 9118TIP3   OH248844   4.865   6.466   3.899 -0.2695 -0.4858  0.2336
 9118TIP3    H148845   4.806   6.541   3.883 -0.5035 -0.4314  1.2768
 9118TIP3    H248846   4.865   6.418   3.817 -2.8867 -1.2457  0.5960
 9119TIP3   OH248847   1.019   2.430  16.855  0.2205  0.6030  0.4175
 9119TIP3    H148848   1.109   2.428  16.888  0.4360 -0.1300 -0.1783
 9119TIP3    H248849   0.988   2.340  16.864  0.3758  0.3018 -1.5494
 9120TIP3   OH248850   3.219   0.511   0.382  0.0113  0.3700 -0.4348
 9120TIP3    H148851   3.253   0.505   0.472 -0.2535  1.4261 -0.2495
 9120TIP3    H248852   3.294   0.543   0.331  0.6104 -1.6451 -0.8967
 9121TIP3   OH248853   1.629   0.148   1.328 -0.1619  0.0745  0.1536
 9121TIP3    H148854   1.544   0.192   1.332 -0.7944 -1.0595 -0.2958
 9121TIP3    H248855   1.608   0.055   1.321  1.1305 -0.2779  0.5891
 9122TIP3   OH248856   1.807   0.108  15.585 -0.1918  0.8062  0.3106
 9122TIP3    H148857   1.797   0.159  15.505  0.6175 -1.7824 -1.5720
 9122TIP3    H248858   1.892   0.065  15.576 -0.7053 -0.6767  1.8873
 9123TIP3   OH248859   2.849   0.082   4.963 -0.2602  0.9488  0.0719
 9123TIP3    H148860   2.944   0.074   4.964 -0.2690  0.8717  0.4207
 9123TIP3    H248861   2.819   0.027   5.036 -0.4575  2.4850  1.2086
 9124TIP3   OH248862   6.711   2.885  13.214 -0.1282 -0.1933  0.0301
 9124TIP3    H148863   6.742   2.874  13.304 -0.1465 -1.0883 -0.0654
 9124TIP3    H248864   6.615   2.890  13.223 -0.0702  1.1996  0.1873
 9125TIP3   OH248865   2.366   3.480  13.834 -0.1015  0.4159 -0.0090
 9125TIP3    H148866   2.323   3.564  13.844 -1.2598 -0.0266 -1.1012
 9125TIP3    H248867   2.326   3.441  13.756  0.1611 -1.2906  0.6687
 9126TIP3   OH248868   2.213   0.087  14.117  0.0577  0.3196 -0.3779
 9126TIP3    H148869   2.224   0.095  14.212 -1.3975 -0.1051 -0.1452
 9126TIP3    H248870   2.176  -0.001  14.105 -0.9783  0.8568 -1.2213
 9127TIP3   OH248871   2.111   0.870  14.395 -0.1429 -0.0370 -0.3109
 9127TIP3    H148872   2.057   0.808  14.444  0.9608 -0.9142 -0.1452
 9127TIP3    H248873   2.055   0.946  14.382 -0.3350  0.4742  2.7455
 9128TIP3   OH248874   4.036   5.957   5.083  0.5692  0.5014 -0.0320
 9128TIP3    H148875   3.980   5.925   5.153  2.7382  0.5050  1.8198
 9128TIP3    H248876   3.992   5.930   5.002 -1.6925 -0.0607  1.3056
 9129TIP3   OH248877   1.889   0.466  13.679 -0.2474 -0.2228  0.1635
 9129TIP3    H148878   1.811   0.415  13.656 -1.2981  0.2015  2.4932
 9129TIP3    H248879   1.960   0.402  13.677 -0.8835 -0.9368 -0.5952
 9130TIP3   OH248880   3.669   0.992  11.305  0.1221  0.3771  0.3152
 9130TIP3    H148881   3.612   0.976  11.230 -0.1033 -2.2055  0.9499
 9130TIP3    H248882   3.611   1.027  11.372 -0.4111 -0.6914  0.4240
 9131TIP3   OH248883   1.575   1.327  13.229  0.4687  0.2097 -0.0062
 9131TIP3    H148884   1.483   1.315  13.207  0.5253  1.5364 -1.0557
 9131TIP3    H248885   1.574   1.348  13.323 -0.2890  0.1253  0.0122
 9132TIP3   OH248886   0.173   4.951  17.227  0.4390  0.7657  0.2426
 9132TIP3    H148887   0.107   4.889  17.197  0.9621 -0.9852  2.4059
 9132TIP3    H248888   0.123   5.029  17.251 -0.6190  0.1644  0.0669
 9133TIP3   OH248889   5.203   0.891  13.698  0.1785  0.2572 -0.5183
 9133TIP3    H148890   5.197   0.986  13.693 -1.1600  0.2537  0.3905
 9133TIP3    H248891   5.275   0.875  13.760  1.0054  0.6413 -1.3594
 9134TIP3   OH248892   0.964   3.248   5.302  0.0229 -0.2206 -0.0980
 9134TIP3    H148893   0.990   3.169   5.349 -0.9584  0.6581  2.0625
 9134TIP3    H248894   1.046   3.288   5.274  0.6409 -0.8480  0.7696
 9135TIP3   OH248895   6.504   1.490  16.559 -0.0266  0.0023 -0.3230
 9135TIP3    H148896   6.508   1.419  16.623 -1.8433 -1.2636 -1.5229
 9135TIP3    H248897   6.470   1.565  16.608  0.2601 -0.4447  0.5747
 9136TIP3   OH248898   2.641   0.226   1.535 -0.5818  0.1067  0.2237
 9136TIP3    H148899   2.597   0.163   1.592 -1.8593 -1.4987 -2.3501
 9136TIP3    H248900   2.586   0.305   1.540 -1.8637 -0.7123 -0.2846
 9137TIP3   OH248901   5.249   1.413   2.311 -0.1604  0.1999  0.4736
 9137TIP3    H148902   5.269   1.376   2.397  0.6388 -0.3851  0.0523
 9137TIP3    H248903   5.217   1.340   2.259  1.2993  0.0720 -0.3241
 9138TIP3   OH248904   1.438   2.821   3.609 -0.3046 -0.0054  0.0838
 9138TIP3    H148905   1.511   2.762   3.627 -0.0457  0.5429  0.8713
 9138TIP3    H248906   1.429   2.820   3.514  2.0188  1.4246 -0.2265
 9139TIP3   OH248907   0.386   3.503  17.216  0.0430  0.5909 -0.1222
 9139TIP3    H148908   0.310   3.560  17.204  0.8132  1.4450 -1.1198
 9139TIP3    H248909   0.413   3.480  17.127  1.2054  0.6513  0.1982
 9140TIP3   OH248910   1.564   5.903  13.024 -0.0980 -0.4062  0.4931
 9140TIP3    H148911   1.587   5.909  12.931 -0.5038 -1.1991  0.3398
 9140TIP3    H248912   1.469   5.895  13.025 -0.0557 -0.9311  0.9499
 9141TIP3   OH248913   0.256   1.283  14.164 -0.5849 -0.0143  0.2605
 9141TIP3    H148914   0.276   1.374  14.143 -0.4207 -0.0674  0.1857
 9141TIP3    H248915   0.189   1.258  14.100 -2.4880  0.8088  1.8334
 9142TIP3   OH248916   3.862   3.663   5.495  0.0952 -0.0273 -0.2272
 9142TIP3    H148917   3.897   3.660   5.584 -0.1748 -0.3177 -0.1323
 9142TIP3    H248918   3.930   3.707   5.444 -0.0306  0.7608  0.2558
 9143TIP3   OH248919   1.857   1.675   0.444  0.2013  0.3163  0.7920
 9143TIP3    H148920   1.930   1.615   0.430 -0.3861 -0.4416  0.9152
 9143TIP3    H248921   1.830   1.659   0.534 -0.4683  0.1931  0.5755
 9144TIP3   OH248922   2.574   5.694  11.144 -0.0624 -0.2352 -0.1267
 9144TIP3    H148923   2.581   5.781  11.106 -0.1293  0.4338  1.3366
 9144TIP3    H248924   2.602   5.635  11.074 -0.7179  0.8918 -1.3819
 9145TIP3   OH248925   2.667   1.573   5.985  0.4506  0.1036  0.2699
 9145TIP3    H148926   2.621   1.498   6.023  1.9255 -1.0493 -0.0839
 9145TIP3    H248927   2.689   1.628   6.060 -2.2979  1.2219  0.3514
 9146TIP3   OH248928   0.232   5.400  15.082 -0.4016 -0.3906 -0.4398
 9146TIP3    H148929   0.315   5.447  15.070 -0.5929  0.4162  1.1759
 9146TIP3    H248930   0.233   5.371  15.173 -1.4007 -1.4001 -0.7177
 9147TIP3   OH248931   5.039   2.986   3.279 -0.3515 -0.4027 -0.0808
 9147TIP3    H148932   4.980   3.061   3.272  0.1334  0.1822  1.5191
 9147TIP3    H248933   5.126   3.021   3.258 -0.3095 -0.8379 -0.6505
 9148TIP3   OH248934   2.838   6.765  11.887 -0.1834 -0.3585 -0.2574
 9148TIP3    H148935   2.855   6.735  11.798 -0.7960  0.9341 -0.8355
 9148TIP3    H248936   2.744   6.785  11.888  0.1499  1.3916  0.0970
 9149TIP3   OH248937   4.699   2.023  14.194  0.3827  0.2064 -0.0780
 9149TIP3    H148938   4.699   2.119  14.196 -1.3171  0.2383  0.4346
 9149TIP3    H248939   4.756   2.000  14.121 -0.7116  1.6733 -1.4709
 9150TIP3   OH248940   3.120   2.062  14.883 -0.3056 -0.1388 -0.1239
 9150TIP3    H148941   3.095   1.974  14.854 -1.3234  0.1270 -0.0848
 9150TIP3    H248942   3.092   2.119  14.812 -0.1747  0.2204  0.1118
 9151TIP3   OH248943   5.177   1.909  11.057  0.2507  0.4372 -0.7086
 9151TIP3    H148944   5.124   1.902  10.978 -0.0145 -1.3870 -0.3994
 9151TIP3    H248945   5.114   1.900  11.129  0.7731 -0.2390 -0.3240
 9152TIP3   OH248946   1.492   1.427   0.736 -0.1019 -0.3317  0.2248
 9152TIP3    H148947   1.436   1.349   0.732  0.2970 -0.5982 -0.2084
 9152TIP3    H248948   1.456   1.479   0.808 -0.0016 -1.2105  0.9269
 9153TIP3   OH248949   2.443   3.459   4.058  0.1688  0.2565  0.5502
 9153TIP3    H148950   2.400   3.488   4.138  0.5399 -0.6648  1.0923
 9153TIP3    H248951   2.421   3.527   3.993 -1.4678  0.1882  1.0050
 9154TIP3   OH248952   5.325   4.854   0.525  0.0912  0.0957  0.1277
 9154TIP3    H148953   5.322   4.925   0.589  0.0043 -1.0435  1.4212
 9154TIP3    H248954   5.407   4.807   0.544  0.0907 -0.2271 -0.6312
 9155TIP3   OH248955   2.914   0.669   0.924  0.3476  0.3534 -0.0375
 9155TIP3    H148956   2.950   0.684   0.836  1.4018  0.3251  0.3742
 9155TIP3    H248957   2.895   0.575   0.926  1.0074  0.2175  0.0065
 9156TIP3   OH248958   1.248   5.633   5.573 -0.1423 -0.4362  0.4530
 9156TIP3    H148959   1.165   5.627   5.620 -1.4840  0.3720 -1.6336
 9156TIP3    H248960   1.283   5.719   5.596  0.6554 -1.1716  2.1014
 9157TIP3   OH248961   2.860   2.831   0.355 -0.1615  0.9186 -0.9043
 9157TIP3    H148962   2.814   2.759   0.312  1.8290  0.5330 -2.5885
 9157TIP3    H248963   2.847   2.816   0.448 -0.7976 -0.9534 -1.2485
 9158TIP3   OH248964   2.785   2.880   4.672  0.9026  0.2706 -0.2721
 9158TIP3    H148965   2.715   2.815   4.668 -0.0573  1.1830  0.8134
 9158TIP3    H248966   2.759   2.946   4.607  1.3555  0.0703 -0.6626
 9159TIP3   OH248967   4.116   3.861   1.086  0.4433 -0.1086  0.5251
 9159TIP3    H148968   4.198   3.812   1.092  1.0961  1.1228  2.4741
 9159TIP3    H248969   4.128   3.936   1.144 -2.3659 -0.2937  1.5113
 9160TIP3   OH248970   2.791   0.537   4.166 -0.1371  0.0243  0.2120
 9160TIP3    H148971   2.696   0.538   4.155 -0.0877  1.9716 -0.4419
 9160TIP3    H248972   2.815   0.629   4.177  1.7811 -0.3286 -0.6085
 9161TIP3   OH248973   6.242   1.687  15.074  0.2324  0.0070  0.5894
 9161TIP3    H148974   6.229   1.707  15.167  0.1674  0.0528  0.5709
 9161TIP3    H248975   6.335   1.703  15.059  0.0663  0.8677  0.4390
 9162TIP3   OH248976   4.589   5.202  16.065 -0.6570  0.0725 -0.1882
 9162TIP3    H148977   4.557   5.152  15.990 -0.3866  0.1606 -0.3629
 9162TIP3    H248978   4.535   5.281  16.067 -1.0050 -0.1704  0.0140
 9163TIP3   OH248979   2.551   0.694  11.620 -0.1022  0.4513 -0.3920
 9163TIP3    H148980   2.582   0.722  11.534 -0.7525 -0.5293 -0.9659
 9163TIP3    H248981   2.582   0.604  11.630  0.8038  0.8744  0.8389
 9164TIP3   OH248982   5.616   3.244  11.455  0.3617 -0.0383  0.4827
 9164TIP3    H148983   5.680   3.315  11.462 -0.5458  0.9381 -0.5583
 9164TIP3    H248984   5.654   3.184  11.392  0.1508  0.6938 -0.3665
 9165TIP3   OH248985   5.912   4.174   1.036  0.3190  0.2674  0.0017
 9165TIP3    H148986   5.832   4.173   1.088  0.8548 -0.8531  0.8569
 9165TIP3    H248987   5.946   4.263   1.046 -1.3792  1.0963 -1.3042
 9166TIP3   OH248988   0.321   1.356   3.725 -0.5818 -0.0583 -0.2876
 9166TIP3    H148989   0.302   1.360   3.819  0.1699  0.5786 -0.1490
 9166TIP3    H248990   0.238   1.379   3.683 -1.2120 -1.3744  0.1776
 9167TIP3   OH248991   4.255   2.663  14.470  0.7689  0.2299  0.1255
 9167TIP3    H148992   4.177   2.715  14.451 -0.4883 -1.8197 -0.7069
 9167TIP3    H248993   4.323   2.700  14.413  0.4589  2.0376  0.8599
 9168TIP3   OH248994   5.941   5.254   2.211  0.3219 -0.7243 -0.2075
 9168TIP3    H148995   6.032   5.281   2.198  0.1285 -0.6803 -1.5694
 9168TIP3    H248996   5.911   5.306   2.285  1.3225 -0.5571  0.0974
 9169TIP3   OH248997   1.516   2.994   0.951  0.5297  0.0220  0.4319
 9169TIP3    H148998   1.563   2.970   1.031 -0.1928 -2.0227  0.2889
 9169TIP3    H248999   1.577   2.974   0.880  0.0823 -1.0792  0.3363
 9170TIP3   OH249000   1.424   5.008  12.515 -0.5967  0.1132 -0.0503
 9170TIP3    H149001   1.452   4.942  12.578 -1.5439  0.2342  0.5082
 9170TIP3    H249002   1.328   5.002  12.514 -0.6258  0.4773 -1.0813
 9171TIP3   OH249003   1.042   3.577  13.634 -0.9359 -0.3982  0.6042
 9171TIP3    H149004   1.101   3.563  13.560 -1.2720  1.7576 -0.1245
 9171TIP3    H249005   1.089   3.541  13.709  0.2305 -0.9222 -0.3437
 9172TIP3   OH249006   1.519   4.385   2.270 -0.2053 -0.5495  0.2199
 9172TIP3    H149007   1.519   4.437   2.190 -1.0728 -1.6335 -0.5069
 9172TIP3    H249008   1.495   4.447   2.339  0.0688  0.2863 -0.4249
 9173TIP3   OH249009   1.655   5.237   3.816 -0.4242 -0.1615 -0.1979
 9173TIP3    H149010   1.560   5.249   3.819 -0.9179 -2.7829 -1.6915
 9173TIP3    H249011   1.672   5.171   3.883 -0.0293 -1.1807 -1.2555
 9174TIP3   OH249012   3.468   4.657   1.796  0.6048  0.0102 -0.2230
 9174TIP3    H149013   3.437   4.614   1.876 -0.1283 -0.2776 -0.6540
 9174TIP3    H249014   3.558   4.626   1.786  0.4124 -0.6474  0.0143
 9175TIP3   OH249015   4.598   1.747   3.692 -0.2384 -0.1783 -0.3244
 9175TIP3    H149016   4.586   1.673   3.751 -0.1539 -0.5767 -0.7968
 9175TIP3    H249017   4.653   1.713   3.621  0.8858  0.6989  0.1021
 9176TIP3   OH249018   4.992   1.626   2.431  0.1313 -0.2078 -0.0723
 9176TIP3    H149019   4.957   1.607   2.518 -1.1312  2.4450  0.0876
 9176TIP3    H249020   4.978   1.545   2.382  1.5154 -2.0084  2.3207
 9177TIP3   OH249021   1.269   2.493  16.913 -0.7194  0.1180  0.2426
 9177TIP3    H149022   1.331   2.563  16.891  1.2023 -2.5107 -4.0446
 9177TIP3    H249023   1.322   2.427  16.957 -1.9845  0.3307  2.1697
 9178TIP3   OH249024   5.293   5.976   2.729  0.1891 -0.3680 -0.1280
 9178TIP3    H149025   5.198   5.972   2.718  0.1029 -0.2757  0.5243
 9178TIP3    H249026   5.328   5.915   2.664 -0.1746  1.3320 -2.0221
 9179TIP3   OH249027   2.892   1.358  16.040  0.2681  0.4093 -0.5527
 9179TIP3    H149028   2.822   1.336  15.978 -1.0854  2.8672 -0.0561
 9179TIP3    H249029   2.847   1.367  16.124  1.5255  0.3161  0.1565
 9180TIP3   OH249030   3.353   4.253  13.076 -0.2005 -0.1812 -0.1744
 9180TIP3    H149031   3.261   4.246  13.100 -0.3283 -0.7899 -0.8332
 9180TIP3    H249032   3.388   4.320  13.135 -0.8666 -0.5357  0.6380
 9181TIP3   OH249033   4.548   1.811   4.872  0.0952  0.4187  0.2469
 9181TIP3    H149034   4.640   1.805   4.896  0.1981  1.7811  0.3075
 9181TIP3    H249035   4.519   1.894   4.911 -0.8545  0.5698 -0.7305
 9182TIP3   OH249036   2.354   1.278   2.102  0.0154 -0.2070  0.2067
 9182TIP3    H149037   2.369   1.199   2.051 -2.5010  0.4121 -1.7229
 9182TIP3    H249038   2.348   1.348   2.036 -1.1842  1.0031  1.5341
 9183TIP3   OH249039   3.715   4.632  10.746 -0.1254 -0.0245 -0.8814
 9183TIP3    H149040   3.799   4.633  10.793 -0.0977  4.1195 -0.5846
 9183TIP3    H249041   3.738   4.650  10.655 -0.5596  3.1892 -0.5046
 9184TIP3   OH249042   4.447   1.565  16.214  0.6664 -0.0456  0.2070
 9184TIP3    H149043   4.489   1.598  16.294  0.9319 -1.7095  0.7860
 9184TIP3    H249044   4.507   1.591  16.144  1.9676 -1.1166  0.8778
 9185TIP3   OH249045   4.201   0.063  17.041  0.3978 -0.1507  0.1097
 9185TIP3    H149046   4.141   0.086  17.112  2.3904 -1.5955  2.4052
 9185TIP3    H249047   4.201  -0.032  17.040  1.6828 -0.1612 -0.7063
 9186TIP3   OH249048   5.498   1.552  13.041  0.1429  0.0805  0.2604
 9186TIP3    H149049   5.536   1.623  13.093 -0.7861  0.1376  0.8802
 9186TIP3    H249050   5.563   1.482  13.044 -0.3471 -0.3567  2.4555
 9187TIP3   OH249051   2.336   1.378  12.563  0.4315  0.4348  0.0435
 9187TIP3    H149052   2.417   1.332  12.542 -0.5062 -2.0906  1.5963
 9187TIP3    H249053   2.330   1.374  12.658 -1.6594  0.2772 -0.0588
 9188TIP3   OH249054   4.963   2.861   1.645  0.3437 -0.1048 -0.2331
 9188TIP3    H149055   5.022   2.883   1.573 -1.1190  1.7261 -0.9630
 9188TIP3    H249056   4.937   2.945   1.682 -2.0273 -0.7603 -0.1876
 9189TIP3   OH249057   1.502   2.467   6.408  0.3362 -0.1379  0.4075
 9189TIP3    H149058   1.565   2.400   6.435  0.5491  0.8752  2.6355
 9189TIP3    H249059   1.460   2.495   6.489 -2.6671 -0.3624 -0.8976
 9190TIP3   OH249060   2.269   1.155  15.776  0.7492 -0.6778  0.1073
 9190TIP3    H149061   2.245   1.081  15.721 -1.4052 -0.6808  0.9719
 9190TIP3    H249062   2.305   1.115  15.855  0.5619 -0.7788  0.1421
 9191TIP3   OH249063   2.155   4.460   6.619  0.2615 -0.1157  0.2629
 9191TIP3    H149064   2.242   4.423   6.635 -0.0658 -0.3136  1.7354
 9191TIP3    H249065   2.106   4.440   6.699 -1.7758 -1.7804 -1.2977
 9192TIP3   OH249066   4.754   1.595  16.759 -0.1157  0.1608 -0.0378
 9192TIP3    H149067   4.760   1.668  16.697 -0.7233 -0.4374 -0.8246
 9192TIP3    H249068   4.660   1.578  16.766 -0.0315 -0.0031  0.7968
 9193TIP3   OH249069   2.124   2.161  15.755  0.0227  0.0681 -0.0339
 9193TIP3    H149070   2.173   2.191  15.831 -0.0274  0.6803 -0.2423
 9193TIP3    H249071   2.153   2.071  15.742 -1.0007 -0.5373  1.5645
 9194TIP3   OH249072   2.810   5.932  15.405 -0.3925 -0.1094 -0.0431
 9194TIP3    H149073   2.773   5.969  15.485 -1.8206 -0.3206 -0.5814
 9194TIP3    H249074   2.858   6.004  15.366 -1.0614  0.4703  0.1831
 9195TIP3   OH249075   4.887   4.931   2.634  0.2619 -0.1064  0.3241
 9195TIP3    H149076   4.921   4.849   2.597 -1.6169 -0.9905  0.4387
 9195TIP3    H249077   4.826   4.964   2.568  0.6575  0.9782  0.4859
 9196TIP3   OH249078   5.117   5.115   5.904  0.1108 -0.0045  0.1756
 9196TIP3    H149079   5.034   5.131   5.949  0.1986  0.8106  0.0693
 9196TIP3    H249080   5.113   5.173   5.828 -0.4535 -1.9975 -1.4284
 9197TIP3   OH249081   1.082   2.667   3.659 -0.0863 -0.5655  0.0044
 9197TIP3    H149082   1.154   2.607   3.680  1.8734  1.2675 -1.0688
 9197TIP3    H249083   1.057   2.643   3.570  0.3479 -0.1545 -0.2339
 9198TIP3   OH249084   1.847   5.815   0.118 -0.0074  0.2623 -0.1561
 9198TIP3    H149085   1.881   5.761   0.189 -1.3284  0.3971  0.6083
 9198TIP3    H249086   1.806   5.753   0.058 -2.4840  0.3873  1.2506
 9199TIP3   OH249087   1.905   2.569  10.508  0.2112 -0.7064  0.0519
 9199TIP3    H149088   1.914   2.626  10.432  0.1030  1.8400  1.8227
 9199TIP3    H249089   1.994   2.542  10.529  0.3768 -0.3921 -0.2406
 9200TIP3   OH249090   2.539   6.315  13.875 -0.1219  0.8324 -0.0153
 9200TIP3    H149091   2.502   6.276  13.954 -0.0733  0.0798 -0.3587
 9200TIP3    H249092   2.513   6.407  13.879 -2.1886  0.3166 -0.3193
 9201TIP3   OH249093   2.748   3.306  13.341  0.2061  0.3371  0.1880
 9201TIP3    H149094   2.810   3.312  13.269 -1.1535 -0.7537 -1.1353
 9201TIP3    H249095   2.711   3.394  13.349  1.1196  0.7170  0.2531
 9202TIP3   OH249096   2.312   4.389   0.362 -0.0231 -0.2226  0.6233
 9202TIP3    H149097   2.222   4.361   0.349  0.1095 -0.1655 -0.6123
 9202TIP3    H249098   2.365   4.316   0.329  0.3380  0.7888 -1.1832
 9203TIP3   OH249099   6.125   5.317  14.781 -0.2043  0.2064  0.2554
 9203TIP3    H149100   6.063   5.285  14.846 -2.8305  0.8126 -1.7652
 9203TIP3    H249101   6.164   5.395  14.821 -1.2773  0.2098  1.3400
 9204TIP3   OH249102   2.548   5.690  16.295  0.1761 -0.0019  0.0888
 9204TIP3    H149103   2.482   5.622  16.277  0.0564  0.2477 -0.4398
 9204TIP3    H249104   2.587   5.664  16.378 -0.0747 -0.5604  0.0373
 9205TIP3   OH249105   1.884   6.508  12.133  1.1204  0.1820  0.7372
 9205TIP3    H149106   1.860   6.598  12.150  0.2094  0.1353 -0.2133
 9205TIP3    H249107   1.926   6.478  12.214 -2.0519  0.2563  2.5530
 9206TIP3   OH249108   2.865   5.372  12.237  0.1638  0.2445  0.1007
 9206TIP3    H149109   2.945   5.384  12.287 -0.7185  0.4250  1.5413
 9206TIP3    H249110   2.838   5.460  12.213  1.0518  0.1000 -1.4929
 9207TIP3   OH249111   2.027   0.070  11.972  0.3719 -0.2001 -0.0004
 9207TIP3    H149112   1.966   0.006  12.010  0.3991 -0.8094 -0.9410
 9207TIP3    H249113   1.970   0.131  11.926  0.2707  1.0598  1.6930
 9208TIP3   OH249114   3.509   1.138   2.630 -0.1947  0.1034  0.7080
 9208TIP3    H149115   3.566   1.077   2.678  1.7185  1.2991  0.0489
 9208TIP3    H249116   3.446   1.167   2.696  1.7697  0.9806  2.3297
 9209TIP3   OH249117   6.692   5.562  12.026 -0.0406 -0.5422 -0.1154
 9209TIP3    H149118   6.684   5.637  12.084 -1.6868 -0.0003 -1.0036
 9209TIP3    H249119   6.656   5.591  11.943  1.6744 -1.5070 -1.2668
 9210TIP3   OH249120   4.655   6.598  12.667  0.4607  0.0186 -0.3798
 9210TIP3    H149121   4.707   6.633  12.739  1.0129  0.1582 -0.8381
 9210TIP3    H249122   4.576   6.565  12.708  0.5558  0.5409  0.2291
 9211TIP3   OH249123   0.574   5.904   5.250  0.0746  0.5605 -0.1436
 9211TIP3    H149124   0.502   5.902   5.313 -1.0674  0.6029 -1.3973
 9211TIP3    H249125   0.608   5.814   5.250 -0.4423  0.3630 -0.0507
 9212TIP3   OH249126   6.396   4.871   0.270  0.1062 -0.6183  0.2175
 9212TIP3    H149127   6.365   4.783   0.248  0.6041 -1.0677  1.2511
 9212TIP3    H249128   6.365   4.886   0.360 -1.0076  0.7565 -0.3641
 9213TIP3   OH249129   5.676   3.602  15.541 -0.0458 -0.0140 -0.1082
 9213TIP3    H149130   5.722   3.619  15.623  0.4165 -2.2219  0.1583
 9213TIP3    H249131   5.635   3.685  15.518  2.8491  1.6917  0.4250
 9214TIP3   OH249132   0.042   5.495   6.487  0.1943 -0.0893  0.1742
 9214TIP3    H149133   0.127   5.531   6.462 -0.1912  1.3581  0.8349
 9214TIP3    H249134  -0.019   5.532   6.423 -0.3034  0.9849  1.2342
 9215TIP3   OH249135   2.375   4.884  13.926 -0.3021  0.4088  0.4804
 9215TIP3    H149136   2.357   4.882  13.832  1.2342  2.2167  0.0990
 9215TIP3    H249137   2.393   4.976  13.946  1.1177 -0.1689  2.1815
 9216TIP3   OH249138   1.364   6.586   1.853 -0.1561  0.2489 -0.2280
 9216TIP3    H149139   1.332   6.604   1.764 -0.7822  2.8417  0.4366
 9216TIP3    H249140   1.305   6.636   1.910 -0.0610 -1.7259  1.7224
 9217TIP3   OH249141   6.356   6.116  11.927  0.0031  0.5157  0.4294
 9217TIP3    H149142   6.275   6.069  11.906  0.9426 -0.1381 -2.1001
 9217TIP3    H249143   6.368   6.176  11.853  1.0530  1.7151  1.5238
 9218TIP3   OH249144   3.093   4.024   6.040  0.0473  0.7995  0.3782
 9218TIP3    H149145   3.097   3.944   6.093 -1.0931 -0.1233 -0.8533
 9218TIP3    H249146   3.171   4.019   5.984  1.2340  1.7585  1.8899
 9219TIP3   OH249147   0.999   2.886  14.014  0.4449  0.0135  0.0251
 9219TIP3    H149148   0.990   2.800  14.055 -0.8135  0.0716 -0.0944
 9219TIP3    H249149   0.991   2.949  14.086 -0.4202  0.0697 -0.1019
 9220TIP3   OH249150   3.372   4.252  16.407 -0.3330  0.2361  0.3818
 9220TIP3    H149151   3.438   4.299  16.458 -2.2151  1.8883  1.4118
 9220TIP3    H249152   3.361   4.305  16.328 -0.7351  0.2065  0.4172
 9221TIP3   OH249153   5.016   5.696   0.662 -0.2231 -0.7190  0.5303
 9221TIP3    H149154   4.956   5.769   0.645 -1.9423 -2.4163 -1.0888
 9221TIP3    H249155   5.002   5.674   0.754  0.0982  0.7166  0.9631
 9222TIP3   OH249156   6.744   3.372   5.497  0.1510  0.2586 -0.2686
 9222TIP3    H149157   6.742   3.361   5.592  0.5520  0.1649 -0.2707
 9222TIP3    H249158   6.688   3.302   5.463 -0.2768  0.5054 -0.0861
 9223TIP3   OH249159   0.934   0.366  10.695  0.1921  1.1431  0.1033
 9223TIP3    H149160   0.846   0.397  10.678 -0.6992 -2.4448 -3.5451
 9223TIP3    H249161   0.923   0.276  10.727  2.5137  1.0184  0.7771
 9224TIP3   OH249162   1.789   4.737   5.840 -0.3465 -0.4638 -0.3142
 9224TIP3    H149163   1.743   4.655   5.855 -0.0658 -0.3278  1.5820
 9224TIP3    H249164   1.734   4.785   5.778 -1.0514 -1.6444 -0.6222
 9225TIP3   OH249165   5.672   5.007  14.367  0.1802  0.2345  0.3208
 9225TIP3    H149166   5.581   5.032  14.348  0.0611 -0.0990  0.4484
 9225TIP3    H249167   5.717   5.012  14.283 -0.5428 -2.1324 -0.2755
 9226TIP3   OH249168   1.158   2.449   4.304  0.0405  0.3512 -0.0992
 9226TIP3    H149169   1.245   2.460   4.343 -0.1913  2.0282  0.0075
 9226TIP3    H249170   1.156   2.509   4.230 -1.5898  1.6114  0.8942
 9227TIP3   OH249171   3.548   1.784   5.728 -0.1576  0.2464 -0.0626
 9227TIP3    H149172   3.625   1.793   5.672 -0.4487  0.6624 -0.3935
 9227TIP3    H249173   3.496   1.714   5.687  1.9184 -2.9526  2.2975
 9228TIP3   OH249174   3.631   4.160  14.421  0.0717 -0.4808 -0.4286
 9228TIP3    H149175   3.582   4.138  14.500 -1.0566 -1.7921 -1.4476
 9228TIP3    H249176   3.643   4.255  14.426 -0.1252 -0.5187  1.2181
 9229TIP3   OH249177   0.771   3.795   1.584 -0.2795 -0.6707  0.1699
 9229TIP3    H149178   0.856   3.752   1.572 -0.2702 -0.8877  0.9539
 9229TIP3    H249179   0.737   3.806   1.495  0.9938  0.3021 -0.2242
 9230TIP3   OH249180   1.849   6.088  12.323 -0.5878  0.2068 -0.7146
 9230TIP3    H149181   1.845   6.015  12.262 -1.6716 -0.6818  0.3635
 9230TIP3    H249182   1.765   6.085  12.369 -0.1278  1.3426  0.2377
 9231TIP3   OH249183   4.502   3.565  14.544  0.6455 -0.2522 -0.0416
 9231TIP3    H149184   4.530   3.541  14.456  0.6335  0.3709 -0.2148
 9231TIP3    H249185   4.416   3.525  14.553  0.5768 -0.1809 -0.3729
 9232TIP3   OH249186   2.999   0.834  13.725 -0.9598  0.3309 -0.3480
 9232TIP3    H149187   2.983   0.750  13.767  0.6004  0.0043 -0.3291
 9232TIP3    H249188   3.031   0.890  13.796 -3.0341  1.3183 -0.1262
 9233TIP3   OH249189   0.410   1.293  16.462 -0.5670 -0.2670  0.3829
 9233TIP3    H149190   0.424   1.351  16.537  0.3053 -2.3531  1.9085
 9233TIP3    H249191   0.339   1.235  16.490 -1.1369 -0.2291 -0.9395
 9234TIP3   OH249192   6.434   2.344   5.568  0.7210 -0.2969  0.6206
 9234TIP3    H149193   6.512   2.399   5.574  1.9401 -2.0950  2.1210
 9234TIP3    H249194   6.443   2.298   5.484  0.2600  0.8479 -0.0978
 9235TIP3   OH249195   3.168   0.323   2.240 -0.1974  0.9390 -0.0763
 9235TIP3    H149196   3.261   0.333   2.220 -0.4286  0.2978 -1.6235
 9235TIP3    H249197   3.130   0.409   2.221 -0.0353  0.9873 -0.1821
 9236TIP3   OH249198   4.388   5.587   4.931 -0.3906  0.2699  0.0025
 9236TIP3    H149199   4.418   5.508   4.887  1.1570  0.5429  0.5045
 9236TIP3    H249200   4.379   5.652   4.861  1.3582  0.5006 -0.0561
 9237TIP3   OH249201   0.745   2.861   2.898  0.3211 -0.6868 -0.2153
 9237TIP3    H149202   0.718   2.807   2.824 -1.5763  1.1538 -0.9417
 9237TIP3    H249203   0.678   2.846   2.965  0.5788 -0.3247  0.1308
 9238TIP3   OH249204   3.314   0.255  16.280  0.0711 -0.0004  0.2610
 9238TIP3    H149205   3.383   0.214  16.331  0.3867 -1.5840 -1.3490
 9238TIP3    H249206   3.244   0.271  16.344  0.7744 -1.0840  1.3587
 9239TIP3   OH249207   1.817   0.408  13.081 -0.5945  0.0381 -0.6511
 9239TIP3    H149208   1.844   0.330  13.033 -2.5785 -0.6228 -0.7943
 9239TIP3    H249209   1.816   0.379  13.173  0.0587  0.3363 -0.5458
 9240TIP3   OH249210   4.417   0.221  15.182  0.9041  0.1791 -0.0317
 9240TIP3    H149211   4.371   0.151  15.137  1.8281 -0.7888  0.4931
 9240TIP3    H249212   4.365   0.237  15.261 -0.1865  1.2184 -0.9227
 9241TIP3   OH249213   1.191   0.628  14.518  0.6999  0.1292 -0.5407
 9241TIP3    H149214   1.246   0.703  14.495 -0.1570  0.3356 -2.1180
 9241TIP3    H249215   1.243   0.552  14.493  0.5707  0.3040 -1.4040
 9242TIP3   OH249216   0.100   5.268   1.481  0.3903  0.2796  0.1684
 9242TIP3    H149217   0.151   5.201   1.525 -0.1485  0.4728  1.1240
 9242TIP3    H249218   0.104   5.245   1.388  0.2158 -1.0775  0.4719
 9243TIP3   OH249219   1.914   6.278   5.706  0.4554 -0.3279  0.2657
 9243TIP3    H149220   1.893   6.293   5.798  0.3338 -2.5029  0.6351
 9243TIP3    H249221   1.833   6.299   5.659  1.1986  3.1726  0.2958
 9244TIP3   OH249222   6.206   0.987  16.634  0.0071 -0.1811  0.5395
 9244TIP3    H149223   6.202   0.904  16.682 -0.0871 -0.6364 -0.2305
 9244TIP3    H249224   6.134   0.981  16.571  0.7241 -0.0246 -0.3145
 9245TIP3   OH249225   5.271   5.696   5.849 -0.2666  0.1380  0.3496
 9245TIP3    H149226   5.195   5.656   5.806 -0.9182  0.4420  1.2020
 9245TIP3    H249227   5.303   5.760   5.786 -1.6062  1.0411  0.5365
 9246TIP3   OH249228   4.145   4.707  11.215  0.0399 -0.3948  0.4972
 9246TIP3    H149229   4.068   4.763  11.204  1.4251  1.6399  0.5278
 9246TIP3    H249230   4.144   4.649  11.139 -2.6394 -1.9181  1.5866
 9247TIP3   OH249231   6.644   0.318  12.549 -0.1811  0.3518 -0.5338
 9247TIP3    H149232   6.703   0.296  12.477 -0.2237 -0.6873 -0.2683
 9247TIP3    H249233   6.615   0.234  12.583 -0.1692  0.8236  0.7029
 9248TIP3   OH249234   6.411   4.349  16.766  0.9990 -0.1845  0.1144
 9248TIP3    H149235   6.389   4.355  16.673  1.2249 -0.6025  0.0295
 9248TIP3    H249236   6.328   4.359  16.812  0.8290 -0.3733 -0.1505
 9249TIP3   OH249237   4.022   5.312  12.366  0.4467 -0.0851  0.5753
 9249TIP3    H149238   4.055   5.336  12.279  0.7956 -2.4142 -0.0074
 9249TIP3    H249239   4.064   5.373  12.426  0.5310  1.3045 -0.8426
 9250TIP3   OH249240   2.869   3.533   3.234  0.3675 -0.2895  0.2611
 9250TIP3    H149241   2.893   3.465   3.170 -0.5223  0.3558 -0.8123
 9250TIP3    H249242   2.926   3.517   3.309  0.8044 -1.6600 -0.3221
 9251TIP3   OH249243   6.473   2.969  13.166  0.8597  0.1364 -0.1795
 9251TIP3    H149244   6.387   3.011  13.166  1.4284  1.3155 -0.8395
 9251TIP3    H249245   6.489   2.946  13.075  2.0151  1.5711 -0.3731
 9252TIP3   OH249246   0.515   6.095   3.497 -0.4421  0.1561  0.0866
 9252TIP3    H149247   0.498   6.032   3.567  2.6664  0.1977  1.0172
 9252TIP3    H249248   0.518   6.180   3.541 -1.7148  0.6190 -0.6838
 9253TIP3   OH249249   0.388   3.227  14.158 -0.2512 -0.2080 -0.4823
 9253TIP3    H149250   0.310   3.279  14.143 -0.1009  0.8428  2.0254
 9253TIP3    H249251   0.364   3.166  14.227  1.1996  0.3307  0.5457
 9254TIP3   OH249252   2.732   5.831   2.718 -0.1169  0.5612 -0.5085
 9254TIP3    H149253   2.768   5.765   2.777 -1.4131  0.5462  0.3014
 9254TIP3    H249254   2.746   5.914   2.763 -1.7353  0.4866  0.1763
 9255TIP3   OH249255   5.368   2.481   2.368  0.4419  0.1405 -0.3648
 9255TIP3    H149256   5.454   2.516   2.391 -0.1063  1.1444  0.2487
 9255TIP3    H249257   5.370   2.473   2.273  0.1061  3.3787 -0.7748
 9256TIP3   OH249258   3.257   3.397   0.851 -0.0111 -0.2561 -0.3305
 9256TIP3    H149259   3.308   3.349   0.786  0.1643 -0.9855  0.3335
 9256TIP3    H249260   3.169   3.358   0.845  0.1265 -0.6495  0.1958
 9257TIP3   OH249261   4.065   4.747  13.610  0.6585 -0.1636  0.1363
 9257TIP3    H149262   4.124   4.820  13.625  0.3592 -0.0013  0.5260
 9257TIP3    H249263   3.987   4.767  13.662 -0.1254  0.0885 -1.0895
 9258TIP3   OH249264   3.880   6.418   0.900  0.2810  0.1996 -0.3355
 9258TIP3    H149265   3.838   6.384   0.979  0.1346  0.1017 -0.4547
 9258TIP3    H249266   3.926   6.497   0.930 -0.7968  0.8744 -0.3792
 9259TIP3   OH249267   0.574   3.223  16.909  0.2212 -0.2706  0.1175
 9259TIP3    H149268   0.543   3.313  16.917 -1.7831 -0.9768  1.0181
 9259TIP3    H249269   0.657   3.230  16.862  0.9873  2.1809  1.6475
 9260TIP3   OH249270   2.549   6.179  13.159 -0.0617 -0.1362 -0.7775
 9260TIP3    H149271   2.552   6.161  13.253 -0.7504 -2.6901 -1.1665
 9260TIP3    H249272   2.523   6.095  13.119 -1.3677  1.2692 -3.1209
 9261TIP3   OH249273   3.686   1.768   3.075 -0.2112 -0.2154 -0.0762
 9261TIP3    H149274   3.781   1.770   3.087 -0.1203 -1.8450 -0.2755
 9261TIP3    H249275   3.651   1.755   3.163 -0.4954  3.3402  0.4901
 9262TIP3   OH249276   0.736   6.666   4.952  0.4000 -0.3792  0.2366
 9262TIP3    H149277   0.722   6.636   5.042  0.8135  0.8636  0.7413
 9262TIP3    H249278   0.796   6.741   4.961 -2.3246  2.1177 -0.6628
 9263TIP3   OH249279   4.783   4.346   2.783  0.7670 -0.3708  0.2015
 9263TIP3    H149280   4.791   4.313   2.873  1.6698 -0.9852 -0.0925
 9263TIP3    H249281   4.842   4.291   2.732  0.5677  0.2390 -0.7071
 9264TIP3   OH249282   4.041   3.945   2.880 -0.2914  0.2597  0.3100
 9264TIP3    H149283   4.044   3.909   2.792 -2.0088 -2.6329  1.2871
 9264TIP3    H249284   3.961   3.909   2.918  0.4224  1.3483  3.0960
 9265TIP3   OH249285   3.479   3.718  12.568 -0.4566  0.2575 -0.1139
 9265TIP3    H149286   3.547   3.736  12.633 -0.8295  2.0625 -0.1474
 9265TIP3    H249287   3.455   3.627  12.582  0.2167  0.3063  1.5907
 9266TIP3   OH249288   3.782   5.143  17.108  0.1825 -0.7262 -0.0616
 9266TIP3    H149289   3.799   5.211  17.172 -1.1576 -1.0394  0.6786
 9266TIP3    H249290   3.735   5.188  17.037  1.7792 -0.3544 -0.9138
 9267TIP3   OH249291   0.725   2.646  12.512  1.1756 -1.0157 -1.0500
 9267TIP3    H149292   0.794   2.590  12.548  0.4618 -0.9684  0.4750
 9267TIP3    H249293   0.662   2.655  12.583  1.2757  1.7596 -1.2122
 9268TIP3   OH249294   3.954   2.057  15.169 -0.0758  0.3831 -0.4948
 9268TIP3    H149295   3.880   2.043  15.228 -0.2664  1.4074 -0.4677
 9268TIP3    H249296   3.927   2.016  15.087 -0.6672  0.7218 -0.4778
 9269TIP3   OH249297   0.546   0.236   4.047 -0.4830 -0.2827  0.4940
 9269TIP3    H149298   0.526   0.191   3.964  0.0119  1.2291 -0.4831
 9269TIP3    H249299   0.639   0.254   4.043 -0.8078  1.5839  0.4338
 9270TIP3   OH249300   4.396   3.090  15.647 -0.3241 -0.1876  0.0949
 9270TIP3    H149301   4.456   3.111  15.575 -0.6274  2.6791  0.5627
 9270TIP3    H249302   4.450   3.042  15.710  0.4923 -0.8779 -1.0871
 9271TIP3   OH249303   3.075   3.234   4.227  0.2037 -0.1604 -0.5152
 9271TIP3    H149304   3.093   3.203   4.138 -1.5435 -1.7358 -0.3805
 9271TIP3    H249305   2.982   3.256   4.227  0.3296  0.4872  0.7539
 9272TIP3   OH249306   5.266   3.000  12.675  0.4516 -0.3916  0.1709
 9272TIP3    H149307   5.197   3.027  12.737  0.6828  1.4568 -0.3203
 9272TIP3    H249308   5.257   2.905  12.670 -0.9696 -0.3687  1.4040
 9273TIP3   OH249309   3.641   5.646  14.614 -0.0278 -0.3455 -0.0339
 9273TIP3    H149310   3.586   5.593  14.557  0.1022 -1.5655  0.9013
 9273TIP3    H249311   3.676   5.583  14.678  1.0695  0.6865  0.4318
 9274TIP3   OH249312   6.724   3.425   6.024  0.1828  0.1367  0.2306
 9274TIP3    H149313   6.793   3.364   6.050 -1.0275 -1.8839 -0.9994
 9274TIP3    H249314   6.668   3.433   6.102  0.9917  0.6335  0.7702
 9275TIP3   OH249315   5.448   3.987  13.123 -0.1786  0.2074  0.1184
 9275TIP3    H149316   5.408   3.993  13.209 -0.6344 -1.0036  0.0030
 9275TIP3    H249317   5.508   4.062  13.119 -0.9942  0.9245  1.0348
 9276TIP3   OH249318   3.785   5.503  15.794 -0.1756  0.6949  0.0626
 9276TIP3    H149319   3.873   5.500  15.832  0.9087  2.0158 -2.1603
 9276TIP3    H249320   3.791   5.568  15.724 -2.1242 -1.2898 -2.1143
 9277TIP3   OH249321   4.606   5.852   5.180 -0.1041  0.3463  0.1527
 9277TIP3    H149322   4.515   5.880   5.169 -0.4830  0.0788  2.2784
 9277TIP3    H249323   4.635   5.833   5.091 -1.5625  2.1176 -0.7717
 9278TIP3   OH249324   3.842   0.720  16.936  0.4953 -0.3937 -0.1703
 9278TIP3    H149325   3.838   0.685  16.847  2.3211  2.5384 -1.5840
 9278TIP3    H249326   3.928   0.694  16.969  0.4924 -0.0969  0.0785
 9279TIP3   OH249327   1.936   1.859  16.141  0.1136 -0.6322 -0.2673
 9279TIP3    H149328   1.851   1.847  16.183  0.2343  0.4956  0.3257
 9279TIP3    H249329   1.930   1.944  16.096  0.5081 -1.1158 -1.2806
 9280TIP3   OH249330   4.120   6.351  14.395  0.9703  0.2652  0.0262
 9280TIP3    H149331   4.040   6.402  14.387  0.9553  0.2295 -0.0565
 9280TIP3    H249332   4.127   6.332  14.488  1.2931  0.9185  0.1359
 9281TIP3   OH249333   2.471   2.221   2.574  0.0011 -0.2306  0.0233
 9281TIP3    H149334   2.535   2.263   2.517 -0.3327 -0.5265 -0.5712
 9281TIP3    H249335   2.440   2.292   2.631  2.2209 -0.4313  1.6354
 9282TIP3   OH249336   3.973   2.358  15.463  0.2594 -0.1927 -0.0390
 9282TIP3    H149337   3.992   2.451  15.467  1.5634 -0.3450 -1.5045
 9282TIP3    H249338   3.897   2.351  15.405 -0.4295 -0.0049  0.8185
 9283TIP3   OH249339   0.447   5.975   0.208  0.4418  0.3733 -0.3235
 9283TIP3    H149340   0.362   5.994   0.247  0.6421  1.1239 -0.2407
 9283TIP3    H249341   0.448   5.880   0.198 -0.0743  0.2781  0.4370
 9284TIP3   OH249342   5.212   2.137   0.338 -0.4560 -0.2023 -0.0435
 9284TIP3    H149343   5.142   2.200   0.354  0.0109 -0.0881  1.6794
 9284TIP3    H249344   5.184   2.090   0.259 -1.4405  1.2507 -0.5912
 9285TIP3   OH249345   0.151   5.347   6.090 -0.2998 -0.3587 -0.7733
 9285TIP3    H149346   0.106   5.262   6.085  0.3590 -0.7416 -0.2965
 9285TIP3    H249347   0.213   5.337   6.162 -1.9053  1.3544  0.9555
 9286TIP3   OH249348   1.827   2.593   2.370  0.5088  0.6920 -0.0657
 9286TIP3    H149349   1.785   2.507   2.372 -1.2730  1.5321  1.2521
 9286TIP3    H249350   1.909   2.578   2.323  0.3610 -1.7655  0.3095
 9287TIP3   OH249351   6.203   4.342  14.852  0.1332  0.7574  0.2297
 9287TIP3    H149352   6.261   4.380  14.917  1.3729 -1.2927  0.4223
 9287TIP3    H249353   6.245   4.359  14.768  0.1242  0.7806  0.2304
 9288TIP3   OH249354   2.387   2.617  11.462 -0.0267 -0.2793  0.0754
 9288TIP3    H149355   2.396   2.593  11.370  0.3816  0.7350 -0.1721
 9288TIP3    H249356   2.300   2.587  11.486 -0.5942  0.4149 -0.9799
 9289TIP3   OH249357   3.770   4.787  11.045  0.2515 -0.3740 -0.4722
 9289TIP3    H149358   3.841   4.849  11.064 -1.0038  1.3917 -1.2185
 9289TIP3    H249359   3.809   4.723  10.985  1.6298 -0.3896  0.4101
 9290TIP3   OH249360   6.683   5.774   2.731  0.9700  0.7306  0.2718
 9290TIP3    H149361   6.624   5.760   2.805  0.3764  0.6034 -0.2220
 9290TIP3    H249362   6.718   5.687   2.711 -1.7790 -0.0336 -2.0042
 9291TIP3   OH249363   0.614   5.019  17.073 -0.7580  0.1328 -0.2004
 9291TIP3    H149364   0.659   4.958  17.131 -1.8803 -0.0980  0.4691
 9291TIP3    H249365   0.633   5.106  17.110  0.1458  0.1487 -0.6645
 9292TIP3   OH249366   5.072   0.033   0.553  0.0079  0.3465 -0.3011
 9292TIP3    H149367   5.041  -0.050   0.518  1.3975 -0.4775  0.3479
 9292TIP3    H249368   5.005   0.060   0.615  0.7305 -1.6300  1.4508
 9293TIP3   OH249369   6.715   1.395  15.367 -0.1387 -0.3778 -0.1115
 9293TIP3    H149370   6.646   1.361  15.309 -0.4091 -3.4439  1.7518
 9293TIP3    H249371   6.797   1.370  15.324 -0.3143 -1.4073  0.1236
 9294TIP3   OH249372   6.307   0.278   1.330  0.1723 -0.1951 -0.3454
 9294TIP3    H149373   6.341   0.354   1.283  1.4976 -0.0075  0.8274
 9294TIP3    H249374   6.350   0.203   1.288 -0.2594 -0.2034 -0.7735
 9295TIP3   OH249375   0.601   6.232  13.149 -0.1658  0.4976 -0.4404
 9295TIP3    H149376   0.630   6.322  13.165 -0.8780  0.9843 -1.6975
 9295TIP3    H249377   0.537   6.240  13.078 -0.9131 -0.9062  0.0366
 9296TIP3   OH249378   6.597   5.004   0.137 -0.4473  0.2455  0.2426
 9296TIP3    H149379   6.621   4.994   0.045  2.9389 -1.6442  1.1820
 9296TIP3    H249380   6.554   4.922   0.160  1.5219 -0.6347  1.0091
 9297TIP3   OH249381   2.076   0.762   4.651 -0.1702  0.0840 -0.1448
 9297TIP3    H149382   2.165   0.786   4.626  0.0182 -0.7228 -0.2640
 9297TIP3    H249383   2.053   0.690   4.593  0.0399 -1.4070  1.5037
 9298TIP3   OH249384   5.764   6.435  14.201 -0.2321  0.6516  0.1017
 9298TIP3    H149385   5.748   6.529  14.213  1.8605  0.8635  2.0961
 9298TIP3    H249386   5.723   6.414  14.118 -1.4459  3.1580 -0.0375
 9299TIP3   OH249387   1.925   6.790  13.398  0.3923  0.4051 -0.0863
 9299TIP3    H149388   1.916   6.797  13.303  0.8981 -0.6419 -0.2255
 9299TIP3    H249389   1.836   6.776  13.430  0.3972 -0.8525 -0.5683
 9300TIP3   OH249390   6.454   6.407  15.201  0.6713  0.1726 -0.0594
 9300TIP3    H149391   6.443   6.350  15.125  2.9702 -0.8223  0.2530
 9300TIP3    H249392   6.416   6.358  15.274 -0.6761  0.7090 -0.3776
 9301TIP3   OH249393   3.623   6.647  15.099 -0.7986 -0.3336  0.1366
 9301TIP3    H149394   3.603   6.656  15.193 -1.3270 -0.6535  0.0608
 9301TIP3    H249395   3.538   6.632  15.058 -0.9697  2.4546 -0.7556
 9302TIP3   OH249396   5.739   5.883   2.535  0.5603  0.2083  0.2763
 9302TIP3    H149397   5.675   5.830   2.488 -0.1945 -0.7861  2.3511
 9302TIP3    H249398   5.815   5.826   2.544  0.0756 -0.2547  1.7132
 9303TIP3   OH249399   0.996   4.648  10.677 -0.4697  0.3381  0.2441
 9303TIP3    H149400   1.086   4.657  10.708 -0.3303  2.2436 -0.5610
 9303TIP3    H249401   0.947   4.711  10.729 -1.0097  0.5402 -0.5031
 9304TIP3   OH249402   2.195   3.152  11.688 -0.5699  0.0935 -0.1743
 9304TIP3    H149403   2.286   3.167  11.716 -0.7715  2.1454 -0.4726
 9304TIP3    H249404   2.159   3.240  11.675 -2.0171 -0.7071 -1.9742
 9305TIP3   OH249405   4.555   5.838   0.621  0.0593 -0.1126  0.2977
 9305TIP3    H149406   4.474   5.880   0.648 -0.4214 -1.2769  0.7255
 9305TIP3    H249407   4.540   5.744   0.635  1.1316 -0.4326 -0.5164
 9306TIP3   OH249408   4.856   2.113   3.585 -0.2668  0.4071  0.5626
 9306TIP3    H149409   4.899   2.029   3.602  0.9601  1.1398  1.1712
 9306TIP3    H249410   4.834   2.110   3.492  1.4109  0.1357  0.1364
 9307TIP3   OH249411   3.669   4.421   1.970 -0.3040 -0.1781  0.3043
 9307TIP3    H149412   3.660   4.512   1.999 -0.5328 -0.4233  1.0273
 9307TIP3    H249413   3.731   4.426   1.897  0.5291  0.4329  1.0169
 9308TIP3   OH249414   4.918   2.077  11.466  0.1038  0.6267  0.0182
 9308TIP3    H149415   4.891   2.117  11.549 -0.4895  0.4653 -0.0952
 9308TIP3    H249416   4.961   2.147  11.419 -0.2978  0.9464  0.1198
 9309TIP3   OH249417   2.420   5.823  17.008 -0.3927 -0.2829 -0.2192
 9309TIP3    H149418   2.349   5.858  16.954 -2.2125 -2.3934  0.6350
 9309TIP3    H249419   2.406   5.728  17.007  2.1918 -0.7438  0.3615
 9310TIP3   OH249420   2.306   3.312  14.093  0.0528  0.5786  0.1050
 9310TIP3    H149421   2.289   3.344  14.005  1.1593  1.5136  0.2109
 9310TIP3    H249422   2.401   3.315  14.103  0.0332 -0.5615  0.9530
 9311TIP3   OH249423   1.301   6.014  14.318 -0.0531  0.0566 -0.3790
 9311TIP3    H149424   1.318   6.018  14.224  1.4497  1.6383 -0.0843
 9311TIP3    H249425   1.375   5.964  14.354 -0.0192  0.4401  0.0917
 9312TIP3   OH249426   3.930   4.206  15.640 -0.4532  0.4270 -0.7446
 9312TIP3    H149427   3.928   4.111  15.626  0.5224  0.4421 -1.1171
 9312TIP3    H249428   3.937   4.242  15.552  1.7078  0.7185 -0.5010
 9313TIP3   OH249429   0.943   1.684  12.675  0.1874  0.3944  0.2239
 9313TIP3    H149430   1.018   1.677  12.734 -0.1217  1.0901  0.7132
 9313TIP3    H249431   0.977   1.658  12.589  0.7491 -0.2055  0.6246
 9314TIP3   OH249432   4.017   5.747   0.651 -0.2425 -0.3013 -1.2249
 9314TIP3    H149433   4.092   5.690   0.634 -0.8467 -1.5923  0.2906
 9314TIP3    H249434   4.004   5.794   0.568  2.0869 -0.1895 -1.5964
 9315TIP3   OH249435   2.706   3.246   6.862  0.4823 -0.1957  0.7855
 9315TIP3    H149436   2.654   3.175   6.822  1.4353  0.9233 -2.8757
 9315TIP3    H249437   2.653   3.325   6.847  0.5670  0.2211  2.5309
 9316TIP3   OH249438   6.639   3.559  16.238  1.0511 -0.3059 -0.1520
 9316TIP3    H149439   6.587   3.626  16.193  2.1526 -0.4568 -1.7366
 9316TIP3    H249440   6.574   3.503  16.280 -0.1436 -0.6972 -2.3661
 9317TIP3   OH249441   6.030   2.942   1.490 -0.7142  0.1815 -0.3379
 9317TIP3    H149442   6.007   2.868   1.548 -0.0578 -1.1176 -1.6671
 9317TIP3    H249443   5.965   2.938   1.421 -0.5496  0.7306 -0.5226
 9318TIP3   OH249444   0.064   2.577   5.299 -0.6098 -0.4433  0.2641
 9318TIP3    H149445   0.152   2.541   5.310 -0.9166 -1.6904 -1.0512
 9318TIP3    H249446   0.077   2.661   5.255 -0.0871 -0.8341 -0.3465
 9319TIP3   OH249447   4.625   5.327  12.145  0.5772 -0.0030 -0.9515
 9319TIP3    H149448   4.630   5.413  12.185  0.0450 -0.8147  0.9634
 9319TIP3    H249449   4.538   5.323  12.104 -0.0034 -0.1627  0.2756
 9320TIP3   OH249450   4.304   2.437   4.740  0.5106  0.0354  0.4515
 9320TIP3    H149451   4.256   2.508   4.783  1.1792 -0.4040  1.9661
 9320TIP3    H249452   4.243   2.405   4.673  0.0706  1.7880 -0.0358
 9321TIP3   OH249453   2.943   0.583   0.392  0.0761 -0.0173 -0.4424
 9321TIP3    H149454   3.000   0.641   0.444  1.3754 -0.6459 -1.1123
 9321TIP3    H249455   2.912   0.638   0.321 -0.0948  0.3136 -0.1177
 9322TIP3   OH249456   5.783   2.060   2.530 -0.3409 -0.0713 -0.3342
 9322TIP3    H149457   5.804   2.062   2.437 -1.1516  2.2105 -0.5228
 9322TIP3    H249458   5.773   1.967   2.550 -1.4494 -0.5851 -2.8540
 9323TIP3   OH249459   5.292   5.543   6.076  0.1477  0.2393  0.0165
 9323TIP3    H149460   5.295   5.582   5.988  1.2517  0.5966  0.1902
 9323TIP3    H249461   5.290   5.619   6.135 -0.8588  0.0011  0.3043
 9324TIP3   OH249462   2.409   6.646  13.681 -0.1582 -0.3003  0.0573
 9324TIP3    H149463   2.414   6.587  13.756  0.8837 -2.1705 -1.3739
 9324TIP3    H249464   2.340   6.609  13.626 -2.0059  1.9344  0.7387
 9325TIP3   OH249465   0.197   6.623   3.797  0.2733  0.0998  0.0385
 9325TIP3    H149466   0.279   6.655   3.834  0.3010  1.2337 -0.9434
 9325TIP3    H249467   0.134   6.629   3.869  1.2272 -1.7265  1.0957
 9326TIP3   OH249468   2.092   3.429  16.289  0.6701 -0.5722  0.3388
 9326TIP3    H149469   2.153   3.454  16.219  1.4049  0.3372  1.2808
 9326TIP3    H249470   2.143   3.371  16.345  0.2931 -0.7496  0.5012
 9327TIP3   OH249471   3.204   2.940  15.746 -0.3819  0.2714 -0.0506
 9327TIP3    H149472   3.282   2.884  15.746 -1.4556 -1.2920  0.5986
 9327TIP3    H249473   3.230   3.016  15.694  1.0820 -0.8862 -1.1290
 9328TIP3   OH249474   4.231   2.800  16.503 -0.6520 -0.2819 -0.1180
 9328TIP3    H149475   4.302   2.825  16.562 -0.3302 -0.4464 -0.4296
 9328TIP3    H249476   4.162   2.767  16.560 -0.9769  1.0360  0.2932
 9329TIP3   OH249477   1.483   0.010   3.858  0.2233 -0.1241 -0.1146
 9329TIP3    H149478   1.431  -0.070   3.851  1.2718 -0.7006 -2.0200
 9329TIP3    H249479   1.418   0.080   3.856 -0.5865 -0.8214 -2.6350
 9330TIP3   OH249480   4.131   5.960  14.375 -0.2071 -0.1683  0.4273
 9330TIP3    H149481   4.181   6.007  14.441 -1.4005 -0.0261  1.2776
 9330TIP3    H249482   4.130   6.018  14.298  1.5142 -0.5033  0.1325
 9331TIP3   OH249483   0.703   5.381  12.301 -0.0924  0.6248 -0.0757
 9331TIP3    H149484   0.682   5.410  12.212 -1.7218  2.4702  0.8335
 9331TIP3    H249485   0.685   5.287  12.300  0.4887  0.4876 -1.8300
 9332TIP3   OH249486   4.616   4.041  13.448 -0.6711  0.6375  0.5038
 9332TIP3    H149487   4.584   3.974  13.508 -1.1521  1.6560  1.4209
 9332TIP3    H249488   4.632   4.118  13.504 -1.3656  1.6872 -0.6860
 9333TIP3   OH249489   1.272   3.764  14.375  0.3897  0.0346  0.1989
 9333TIP3    H149490   1.326   3.743  14.299  0.3518  0.1526  0.1385
 9333TIP3    H249491   1.186   3.784  14.338 -0.2043 -1.9063  0.4231
 9334TIP3   OH249492   3.567   5.646  11.645  0.2983  0.4101 -0.4146
 9334TIP3    H149493   3.596   5.684  11.562  0.1085 -0.4860 -0.9096
 9334TIP3    H249494   3.471   5.650  11.641  0.1488 -2.1688 -1.5333
 9335TIP3   OH249495   1.507   6.635  11.599 -0.1384  0.6229 -0.3658
 9335TIP3    H149496   1.423   6.664  11.562 -0.2842  1.6046  0.6801
 9335TIP3    H249497   1.566   6.708  11.582  0.2100  0.4061 -0.0850
 9336TIP3   OH249498   0.831   3.717   3.473  0.0132  0.2475 -0.6875
 9336TIP3    H149499   0.824   3.640   3.529 -2.2264 -0.1122 -1.3568
 9336TIP3    H249500   0.862   3.786   3.532 -1.7122 -0.2533  0.9072
 9337TIP3   OH249501   5.126   6.034  15.298 -0.4059  0.2880  0.1559
 9337TIP3    H149502   5.112   5.985  15.378  0.6973 -0.4657 -0.0956
 9337TIP3    H249503   5.076   6.115  15.310 -1.4649 -0.4676  0.9657
 9338TIP3   OH249504   4.325   4.970   2.059  0.1137  0.1898 -0.0512
 9338TIP3    H149505   4.270   5.042   2.028 -1.5641 -1.6057 -1.5259
 9338TIP3    H249506   4.389   4.958   1.990 -0.5274 -0.6226 -0.5282
 9339TIP3   OH249507   6.089   6.101   6.066 -0.0936  0.0076  0.2153
 9339TIP3    H149508   6.074   6.195   6.066  0.5193  0.1257 -1.1362
 9339TIP3    H249509   6.111   6.080   5.975  1.4530 -1.1724  0.8253
 9340TIP3   OH249510   3.458   5.364   4.766  0.7797  0.2993  0.0381
 9340TIP3    H149511   3.449   5.274   4.734 -1.5520  0.5874 -0.2766
 9340TIP3    H249512   3.550   5.371   4.791  1.2106 -1.9148 -0.6758
 9341TIP3   OH249513   5.877   1.309   5.639 -0.7854  0.4251 -0.4340
 9341TIP3    H149514   5.966   1.278   5.653 -1.6573 -2.0913  0.1300
 9341TIP3    H249515   5.866   1.307   5.544 -0.3907  0.2234 -0.4777
 9342TIP3   OH249516   6.799   1.640   2.221 -0.4584 -0.3842  0.0814
 9342TIP3    H149517   6.726   1.699   2.204 -0.9370 -0.7858  0.6957
 9342TIP3    H249518   6.831   1.665   2.307  0.3353 -0.0096 -0.3136
 9343TIP3   OH249519   3.027   6.627  16.896  0.4033  0.2969  0.0093
 9343TIP3    H149520   3.108   6.608  16.848  0.1490 -0.7173 -0.0403
 9343TIP3    H249521   2.960   6.576  16.851 -0.0045  0.0334  0.8956
 9344TIP3   OH249522   3.238   2.041  13.365 -0.1118 -0.3768  0.4111
 9344TIP3    H149523   3.246   2.035  13.460 -0.5464 -1.5349  0.3947
 9344TIP3    H249524   3.167   1.980  13.343  1.1779 -1.5117 -0.8217
 9345TIP3   OH249525   3.166   2.230  17.232  0.1671 -0.0309 -0.4891
 9345TIP3    H149526   3.173   2.282  17.312  3.0463  1.1004 -1.3176
 9345TIP3    H249527   3.202   2.145  17.255  3.3084  1.0087 -0.9668
 9346TIP3   OH249528   5.164   3.534  14.702  0.2224  0.2437  0.4100
 9346TIP3    H149529   5.178   3.515  14.795  0.7033 -2.2297 -0.1018
 9346TIP3    H249530   5.109   3.613  14.702  0.4325  0.4685  2.7664
 9347TIP3   OH249531   6.651   0.698   4.710 -0.5705 -0.1099  0.6248
 9347TIP3    H149532   6.611   0.729   4.792 -0.4854 -0.5480  0.8390
 9347TIP3    H249533   6.682   0.610   4.731 -1.2890 -0.5568 -0.1172
 9348TIP3   OH249534   6.604   6.404   0.095  0.2995  0.9364 -0.2561
 9348TIP3    H149535   6.623   6.446   0.178 -2.8848  0.1516  0.9915
 9348TIP3    H249536   6.659   6.325   0.095  0.7610  1.2493  0.8180
 9349TIP3   OH249537   4.934   4.434  11.032 -0.3015 -0.7125  0.2304
 9349TIP3    H149538   4.887   4.447  11.115 -0.5425  1.9418 -0.2385
 9349TIP3    H249539   4.875   4.379  10.980 -1.7379  0.3992  0.6104
 9350TIP3   OH249540   2.230   3.215  13.017  0.3154 -0.0358 -0.1299
 9350TIP3    H149541   2.307   3.259  13.053  0.7341 -1.7420  1.1931
 9350TIP3    H249542   2.247   3.211  12.923  1.8693 -0.3870  0.1334
 9351TIP3   OH249543   4.531   3.445  12.097 -0.2533 -0.4454 -0.0387
 9351TIP3    H149544   4.480   3.379  12.143  0.3524 -1.1866 -0.4049
 9351TIP3    H249545   4.553   3.510  12.164  0.7086 -1.5643  0.7639
 9352TIP3   OH249546   1.131   2.338  12.069 -0.3206 -0.1534  0.5040
 9352TIP3    H149547   1.077   2.261  12.054  0.7844 -1.2369  1.8073
 9352TIP3    H249548   1.146   2.374  11.982  0.7978 -2.6159 -0.4351
 9353TIP3   OH249549   1.543   2.325  15.822  0.2668 -0.0871  0.3739
 9353TIP3    H149550   1.572   2.285  15.739  1.9201 -0.4902  1.1013
 9353TIP3    H249551   1.521   2.250  15.878 -0.6993  0.1798  0.3761
 9354TIP3   OH249552   2.491   4.788   2.819  0.8146 -0.1226 -0.0587
 9354TIP3    H149553   2.413   4.840   2.799  1.9781  2.8244  2.4027
 9354TIP3    H249554   2.457   4.712   2.867 -0.5989  0.6121  0.1578
 9355TIP3   OH249555   0.989   6.591  15.292 -0.2270 -0.2512 -0.4667
 9355TIP3    H149556   0.936   6.599  15.213  0.6105 -0.8007 -1.1117
 9355TIP3    H249557   0.965   6.505  15.328  1.9520 -1.6613 -2.1351
 9356TIP3   OH249558   0.425   3.758   0.103  0.0622  0.4318  0.3824
 9356TIP3    H149559   0.435   3.850   0.126 -0.0787  1.1635 -2.2188
 9356TIP3    H249560   0.387   3.759   0.015  1.9922 -2.0550 -0.5992
 9357TIP3   OH249561   5.449   4.895   4.337  0.1252  0.0269  0.3978
 9357TIP3    H149562   5.396   4.926   4.411  0.7585  0.7517  0.5532
 9357TIP3    H249563   5.536   4.931   4.353  0.7457 -1.3686  0.2781
 9358TIP3   OH249564   4.772   5.479   1.406  0.3633 -0.1994 -0.1162
 9358TIP3    H149565   4.763   5.535   1.329  0.0331 -0.5057 -0.3052
 9358TIP3    H249566   4.840   5.520   1.459 -0.3302  0.7381  0.0654
 9359TIP3   OH249567   1.683   1.894  14.583 -0.1565 -0.4574  0.5477
 9359TIP3    H149568   1.720   1.846  14.657 -0.5761 -0.0749  1.0159
 9359TIP3    H249569   1.632   1.964  14.624  0.7909  0.6615 -0.1192
 9360TIP3   OH249570   0.832   6.535  14.244 -0.6798  0.2413  0.2073
 9360TIP3    H149571   0.857   6.454  14.201  1.1803  0.3575  0.9739
 9360TIP3    H249572   0.897   6.546  14.314 -0.7195  2.5213 -0.0508
 9361TIP3   OH249573   3.194   3.919   0.473 -0.2794  0.6049  0.1845
 9361TIP3    H149574   3.150   3.946   0.553 -0.3093  0.7228  0.1290
 9361TIP3    H249575   3.191   3.824   0.475 -0.0782  0.6019  0.4359
 9362TIP3   OH249576   5.441   3.465  15.424  0.1796  0.0064  0.0459
 9362TIP3    H149577   5.488   3.437  15.346 -0.6050  2.0652 -1.2651
 9362TIP3    H249578   5.507   3.508  15.478  1.1336 -3.0493  1.5263
 9363TIP3   OH249579   1.609   4.385   3.512  0.1576  0.0017 -0.1758
 9363TIP3    H149580   1.654   4.301   3.499  0.7607  0.2152  0.4383
 9363TIP3    H249581   1.677   4.451   3.495 -0.5820  0.4088 -1.6910
 9364TIP3   OH249582   3.061   3.932   2.725 -0.0919  0.1857  0.2019
 9364TIP3    H149583   3.010   4.000   2.769 -0.2202 -0.6191  1.3730
 9364TIP3    H249584   3.099   3.975   2.649  2.1022  2.3711  2.3380
 9365TIP3   OH249585   2.763   2.387  13.134  0.2256  0.7489  0.6140
 9365TIP3    H149586   2.729   2.316  13.190  1.6492  0.1097  0.7037
 9365TIP3    H249587   2.851   2.402  13.166  1.0993  0.3602 -1.4551
 9366TIP3   OH249588   3.856   2.516   1.159 -0.2346 -0.0462 -0.5304
 9366TIP3    H149589   3.928   2.466   1.197  0.1951 -0.5603 -1.9575
 9366TIP3    H249590   3.791   2.522   1.230  0.3928 -1.2310  0.1858
 9367TIP3   OH249591   5.718   1.373   0.770 -0.3248 -0.0547 -0.2527
 9367TIP3    H149592   5.785   1.315   0.808  0.3251  1.8547  1.7227
 9367TIP3    H249593   5.646   1.371   0.833  0.7390  3.1087  1.2598
 9368TIP3   OH249594   5.703   1.024  15.779 -0.3294 -0.1859 -0.2980
 9368TIP3    H149595   5.669   1.024  15.690 -0.3016  0.0540 -0.3093
 9368TIP3    H249596   5.649   1.087  15.826  0.4643  0.6320 -0.4602
 9369TIP3   OH249597   0.771   5.979  12.131 -0.0201 -0.2614 -0.5391
 9369TIP3    H149598   0.781   5.891  12.167  0.0292  0.2594  0.7651
 9369TIP3    H249599   0.849   6.026  12.159 -0.6711  0.5741 -0.0590
 9370TIP3   OH249600   6.517   3.909  11.757 -0.3178  0.5868  0.0821
 9370TIP3    H149601   6.494   3.819  11.779 -0.4610  0.6298  0.1056
 9370TIP3    H249602   6.481   3.962  11.829 -0.7772  0.7267 -0.2507
 9371TIP3   OH249603   5.774   1.593  12.824  0.1087 -0.4417  0.0451
 9371TIP3    H149604   5.856   1.572  12.779 -0.2475  0.1897 -0.9353
 9371TIP3    H249605   5.753   1.514  12.874 -0.0793 -1.6306 -1.8123
 9372TIP3   OH249606   3.050   5.275   2.828 -0.1134  0.0283  0.7045
 9372TIP3    H149607   3.034   5.202   2.768  3.1245 -0.2306 -0.0583
 9372TIP3    H249608   2.977   5.334   2.814 -1.1019 -1.5165 -1.1595
 9373TIP3   OH249609   1.870   0.615  11.992 -0.0826 -0.0221  0.2404
 9373TIP3    H149610   1.792   0.562  11.974 -1.1033  1.7873 -1.0814
 9373TIP3    H249611   1.839   0.705  11.986  2.0176  0.7547  0.2505
 9374TIP3   OH249612   6.296   2.170  16.096  0.2056 -0.3613 -0.1136
 9374TIP3    H149613   6.318   2.260  16.072  1.2203 -0.6535 -0.3065
 9374TIP3    H249614   6.287   2.124  16.013 -1.0419 -0.2894 -0.0406
 9375TIP3   OH249615   0.501   2.670  14.405  0.1238 -0.9768  0.0089
 9375TIP3    H149616   0.471   2.718  14.482 -0.0091  1.3794 -1.4277
 9375TIP3    H249617   0.474   2.724  14.331  2.5804 -1.7847 -1.6005
 9376TIP3   OH249618   6.091   6.340  11.625 -0.3602  0.1482 -0.2714
 9376TIP3    H149619   6.095   6.379  11.538  1.8248 -2.7938 -1.6713
 9376TIP3    H249620   6.178   6.302  11.638 -1.0360 -0.6323  2.6540
 9377TIP3   OH249621   0.880   4.694   2.398 -0.3936 -0.2990  0.0328
 9377TIP3    H149622   0.872   4.617   2.341 -0.3987  0.1471 -0.5746
 9377TIP3    H249623   0.963   4.680   2.444 -0.1764 -0.4561 -0.3978
 9378TIP3   OH249624   2.798   1.884  12.884  0.1047 -0.1066 -0.3099
 9378TIP3    H149625   2.761   1.801  12.856 -1.6113  0.3102  0.5302
 9378TIP3    H249626   2.789   1.942  12.808 -1.0200 -0.0341 -0.1530
 9379TIP3   OH249627   3.648   0.099   2.913 -0.1856 -0.2003  0.3881
 9379TIP3    H149628   3.682   0.183   2.945 -0.1310 -0.3706  0.7837
 9379TIP3    H249629   3.714   0.035   2.940  0.1012 -0.2902 -0.4926
 9380TIP3   OH249630   1.668   5.078  16.512  0.1986  0.2750 -0.0371
 9380TIP3    H149631   1.728   5.092  16.439 -0.0204 -0.6729 -0.4210
 9380TIP3    H249632   1.715   5.020  16.571 -0.3065 -0.4626 -0.3312
 9381TIP3   OH249633   3.492   3.649  15.070  0.3575  0.4145 -0.0423
 9381TIP3    H149634   3.519   3.684  15.155 -1.7897  2.1857  0.0098
 9381TIP3    H249635   3.402   3.621  15.083  0.3528 -0.3181 -1.4673
 9382TIP3   OH249636   5.681   0.380   3.493  0.1273  0.1345  0.3675
 9382TIP3    H149637   5.742   0.374   3.566 -0.2398  0.3280  0.6894
 9382TIP3    H249638   5.697   0.467   3.456  0.7450 -0.1997 -0.1664
 9383TIP3   OH249639   4.320   1.047   3.242  0.7232  0.1339 -0.1849
 9383TIP3    H149640   4.249   0.994   3.277  1.2880  0.7056  1.9707
 9383TIP3    H249641   4.288   1.137   3.247  1.6515  0.4353  1.1411
 9384TIP3   OH249642   3.407   2.053   2.570 -0.0638 -0.3191 -0.2668
 9384TIP3    H149643   3.474   2.037   2.636 -1.3500 -0.4302  1.0619
 9384TIP3    H249644   3.405   1.974   2.517  1.7381  0.1865 -1.1928
 9385TIP3   OH249645   2.128   2.281   3.052  0.2386 -0.3383 -0.3755
 9385TIP3    H149646   2.173   2.335   2.988 -1.6743  1.6544 -0.1494
 9385TIP3    H249647   2.153   2.191   3.030 -0.9679  0.1301 -4.4760
 9386TIP3   OH249648   1.222   4.203  13.262  0.4252  0.4897 -0.6056
 9386TIP3    H149649   1.216   4.150  13.183 -0.8747  2.1622 -1.6807
 9386TIP3    H249650   1.133   4.235  13.277  1.0237  1.7652  0.4314
 9387TIP3   OH249651   1.816   3.550  14.594  0.2931 -0.0550  0.0972
 9387TIP3    H149652   1.845   3.482  14.654  0.7415 -0.0877 -0.1495
 9387TIP3    H249653   1.776   3.617  14.651 -0.1808 -0.5324  0.3335
 9388TIP3   OH249654   1.415   4.221   5.982 -0.0164  0.2193  0.0203
 9388TIP3    H149655   1.415   4.269   6.065  2.7277  0.9508 -0.3032
 9388TIP3    H249656   1.500   4.177   5.980  0.0546  0.3222 -2.4573
 9389TIP3   OH249657   6.276   4.006   6.573  0.0073  0.5084 -0.2319
 9389TIP3    H149658   6.238   3.923   6.602  0.3485 -0.5435 -2.5923
 9389TIP3    H249659   6.348   4.023   6.635 -0.1836 -0.8603  0.3895
 9390TIP3   OH249660   2.016   3.293   5.857  0.1013 -0.2061  0.8170
 9390TIP3    H149661   1.973   3.287   5.943  0.8365  2.5288  1.4598
 9390TIP3    H249662   1.952   3.337   5.802  0.8512  1.0016  0.8941
 9391TIP3   OH249663   6.278   1.460  16.787 -0.1338  0.8174  0.0903
 9391TIP3    H149664   6.234   1.376  16.797  1.3984 -0.3929 -2.3685
 9391TIP3    H249665   6.371   1.440  16.797  0.2351  2.3340 -0.0335
 9392TIP3   OH249666   4.715   4.626  16.503 -0.6098  0.1724 -0.1098
 9392TIP3    H149667   4.659   4.636  16.580 -0.5472  0.0364 -0.0460
 9392TIP3    H249668   4.728   4.531  16.495 -0.2601  0.2109 -0.0268
 9393TIP3   OH249669   3.913   6.097   0.942 -0.3961 -0.1290  0.0505
 9393TIP3    H149670   3.932   6.184   0.908 -0.5003  0.3935  1.2820
 9393TIP3    H249671   3.998   6.052   0.942 -0.2287  0.1844  0.0080
 9394TIP3   OH249672   3.065   0.662   4.048  0.5229 -0.1146 -0.1450
 9394TIP3    H149673   3.057   0.736   4.109 -0.5885 -0.2128 -0.1436
 9394TIP3    H249674   3.035   0.586   4.098  0.2535 -0.3138 -0.6055
 9395TIP3   OH249675   3.065   5.755   5.702  0.3527 -0.5919  0.6196
 9395TIP3    H149676   3.133   5.748   5.769  0.5045  1.0138  0.6812
 9395TIP3    H249677   3.109   5.733   5.620  1.1766  1.0572  0.5655
 9396TIP3   OH249678   5.063   5.979  10.658  0.9327 -0.2208 -0.0197
 9396TIP3    H149679   5.041   5.989  10.751  1.1253 -2.6766  0.3531
 9396TIP3    H249680   4.978   5.963  10.616  0.4070  3.6811 -0.8578
 9397TIP3   OH249681   4.810   3.618  10.644 -0.0666 -0.2847  0.5977
 9397TIP3    H149682   4.876   3.668  10.694  1.6380 -0.9192 -0.9049
 9397TIP3    H249683   4.861   3.555  10.594 -1.8419 -0.7614 -0.7046
 9398TIP3   OH249684   5.679   4.768   3.881  0.1823 -0.2345 -0.1318
 9398TIP3    H149685   5.700   4.688   3.929  1.9881  0.4129  0.2219
 9398TIP3    H249686   5.673   4.836   3.947  1.2538  0.3995 -0.6664
 9399TIP3   OH249687   5.859   3.097   2.090  0.4073  0.1177  0.0399
 9399TIP3    H149688   5.949   3.083   2.063  0.0785 -0.4698 -0.8249
 9399TIP3    H249689   5.862   3.174   2.147  1.6603 -0.7966  1.2787
 9400TIP3   OH249690   4.209   5.264  16.182  0.0078 -0.4491 -0.3351
 9400TIP3    H149691   4.133   5.309  16.220  0.9343 -0.4888  1.6653
 9400TIP3    H249692   4.173   5.180  16.151 -0.7209 -0.6426  0.9415
 9401TIP3   OH249693   2.034   3.551   2.628 -0.0638  0.0631  0.1939
 9401TIP3    H149694   1.952   3.591   2.658  1.1389  1.4949  1.7686
 9401TIP3    H249695   2.026   3.550   2.532 -1.8761  0.2547  0.3125
 9402TIP3   OH249696   2.440   4.907  12.989 -0.2327 -0.4619 -0.2605
 9402TIP3    H149697   2.432   5.000  12.969  0.2132 -0.7465 -1.9011
 9402TIP3    H249698   2.356   4.884  13.029  0.2272  0.9614  1.7185
 9403TIP3   OH249699   3.944   4.326  16.940  0.2787 -0.2204  0.0699
 9403TIP3    H149700   4.005   4.263  16.980 -0.4618 -1.0504 -0.0551
 9403TIP3    H249701   3.997   4.403  16.922  1.0693 -0.5549  0.8641
 9404TIP3   OH249702   2.748   2.526   3.908  0.6737  0.5334  0.3538
 9404TIP3    H149703   2.705   2.550   3.825 -0.5955  2.2740  1.4444
 9404TIP3    H249704   2.833   2.491   3.881 -0.2394 -0.2755 -1.7406
 9405TIP3   OH249705   5.905   2.746  13.205  0.1731 -0.4730  0.3854
 9405TIP3    H149706   5.896   2.660  13.165  0.9124  0.7590 -2.7055
 9405TIP3    H249707   5.989   2.779  13.174 -1.9693  3.0784 -2.4026
 9406TIP3   OH249708   6.286   6.041   5.229 -0.0213  0.1174  0.2630
 9406TIP3    H149709   6.335   6.091   5.163 -0.5027 -0.7091 -0.7432
 9406TIP3    H249710   6.204   6.089   5.241  0.5973  0.9843  1.2568
 9407TIP3   OH249711   3.269   2.228   1.904  0.4387  0.3702 -0.2192
 9407TIP3    H149712   3.198   2.220   1.839  0.2133 -2.1888  0.2606
 9407TIP3    H249713   3.249   2.310   1.949 -1.9097  0.0363 -0.4951
 9408TIP3   OH249714   3.190   5.743  16.008 -0.3166 -0.3438 -0.0576
 9408TIP3    H149715   3.206   5.679  15.939 -0.9409  0.1555 -0.6837
 9408TIP3    H249716   3.133   5.808  15.967 -0.4261  0.1360  0.8349
 9409TIP3   OH249717   2.858   3.845  12.826  0.2911  0.2820 -0.1028
 9409TIP3    H149718   2.767   3.841  12.855  0.7820 -0.6964  1.4206
 9409TIP3    H249719   2.877   3.756  12.795  0.3834  0.8034 -1.6254
 9410TIP3   OH249720   3.078   4.533  13.539 -0.4757  0.0671  0.0415
 9410TIP3    H149721   3.013   4.584  13.588  0.0036  0.4209  0.3074
 9410TIP3    H249722   3.059   4.553  13.447 -0.9386 -0.0685  0.1049
 9411TIP3   OH249723   5.618   2.108   1.390  0.2979 -0.3994 -0.3989
 9411TIP3    H149724   5.621   2.013   1.403 -1.1762 -1.3495 -4.8937
 9411TIP3    H249725   5.706   2.130   1.359  0.2656 -0.6128 -0.6515
 9412TIP3   OH249726   5.409   6.440  17.096  0.2120  0.2157 -0.3694
 9412TIP3    H149727   5.390   6.521  17.049  1.1340 -0.8747 -2.7674
 9412TIP3    H249728   5.504   6.432  17.093  0.1002 -1.2341 -0.7153
 9413TIP3   OH249729   2.789   0.390   2.368 -0.2780  0.1885  0.0992
 9413TIP3    H149730   2.751   0.390   2.280  1.5833  0.6562 -0.7587
 9413TIP3    H249731   2.835   0.306   2.375  0.9084  0.8052 -0.0188
 9414TIP3   OH249732   4.902   0.977   4.389  0.0002 -0.3491 -0.4952
 9414TIP3    H149733   4.905   0.884   4.412  0.4715  0.2770  2.2508
 9414TIP3    H249734   4.815   0.990   4.353 -0.7004 -1.5240  0.6980
 9415TIP3   OH249735   3.141   4.571  16.192  0.1479 -0.0637 -0.0348
 9415TIP3    H149736   3.154   4.666  16.189 -2.4053  0.3859  0.5438
 9415TIP3    H249737   3.199   4.537  16.124  1.4385  1.8461  0.0162
 9416TIP3   OH249738   3.787   0.833   3.652  0.0463  0.0860 -0.5171
 9416TIP3    H149739   3.711   0.779   3.676 -0.0998  0.6601  0.3531
 9416TIP3    H249740   3.860   0.772   3.648 -0.3227 -0.3514 -0.6220
 9417TIP3   OH249741   0.691   6.511   0.538  0.5557  0.6751  0.3453
 9417TIP3    H149742   0.676   6.587   0.482  1.8539  0.2458 -0.6182
 9417TIP3    H249743   0.780   6.484   0.518  0.2274 -0.9071  0.9180
 9418TIP3   OH249744   1.939   0.868  17.189 -0.0312  0.4424  0.0733
 9418TIP3    H149745   1.907   0.938  17.133 -0.3013  1.4142  1.3888
 9418TIP3    H249746   2.034   0.877  17.188 -0.0776  1.0067  0.4430
 9419TIP3   OH249747   0.524   0.564   5.717  0.1886 -0.3698 -0.6975
 9419TIP3    H149748   0.589   0.633   5.734  1.7878 -1.4785 -1.9427
 9419TIP3    H249749   0.486   0.546   5.803  1.3777  0.4700  0.0546
 9420TIP3   OH249750   0.561   1.813  11.557 -0.1531 -0.5555 -0.3428
 9420TIP3    H149751   0.487   1.854  11.512  0.5804  0.1871 -0.9031
 9420TIP3    H249752   0.547   1.835  11.650 -0.7434 -0.6128 -0.4094
 9421TIP3   OH249753   1.259   3.543  10.764  0.6566 -0.1583 -0.5970
 9421TIP3    H149754   1.260   3.515  10.673 -0.4819 -0.4277 -0.5373
 9421TIP3    H249755   1.342   3.512  10.800  0.7485 -0.7719 -1.3234
 9422TIP3   OH249756   1.656   4.016  16.890 -0.0821  0.2484  1.0562
 9422TIP3    H149757   1.749   3.999  16.879 -0.3678 -0.5535 -0.4309
 9422TIP3    H249758   1.636   4.083  16.824 -0.6362  0.0757  1.0464
 9423TIP3   OH249759   3.197   5.469   2.711 -0.0311 -0.3888 -0.6787
 9423TIP3    H149760   3.253   5.497   2.783  0.3548  0.2802 -1.2357
 9423TIP3    H249761   3.166   5.382   2.738 -0.6615  0.2339  0.7325
 9424TIP3   OH249762   4.485   0.253   2.751 -0.3093 -0.0296  0.1748
 9424TIP3    H149763   4.550   0.233   2.818  0.2909  1.5744  0.1096
 9424TIP3    H249764   4.446   0.336   2.779 -0.2413  0.5316 -1.3196
 9425TIP3   OH249765   1.045   0.142   2.654 -0.6642 -0.3398 -0.1769
 9425TIP3    H149766   1.124   0.196   2.652 -1.2884  0.6797  1.0345
 9425TIP3    H249767   0.976   0.199   2.621 -0.9118 -1.2272 -1.2497
 9426TIP3   OH249768   4.057   4.408   3.218  0.4154  0.1919  0.0577
 9426TIP3    H149769   4.119   4.335   3.220  0.7441  0.2873 -2.4382
 9426TIP3    H249770   3.973   4.370   3.242  0.9432 -0.5433  0.7755
 9427TIP3   OH249771   5.308   5.359   0.879  0.5048 -0.0990  0.2977
 9427TIP3    H149772   5.381   5.422   0.880 -1.1796  2.0122 -0.2098
 9427TIP3    H249773   5.280   5.353   0.970  3.1652 -3.4164  1.0829
 9428TIP3   OH249774   5.704   1.078  15.484  0.2502  0.0009  0.0783
 9428TIP3    H149775   5.621   1.053  15.445  0.4240 -0.1790 -0.1837
 9428TIP3    H249776   5.686   1.160  15.530  0.0221  0.1640 -0.3012
 9429TIP3   OH249777   0.170   6.738   3.506  0.1365  0.6521 -0.1936
 9429TIP3    H149778   0.213   6.714   3.588 -0.1182  0.4836 -0.1086
 9429TIP3    H249779   0.157   6.655   3.460 -0.8085  0.6080  0.1314
 9430TIP3   OH249780   1.767   1.242  11.538 -0.1886  0.1137 -0.4512
 9430TIP3    H149781   1.850   1.258  11.583  0.6115  0.0347 -1.8242
 9430TIP3    H249782   1.712   1.317  11.561  0.2233  0.1119  0.5664
 9431TIP3   OH249783   1.444   5.519   2.707 -0.3570 -0.2835 -0.1794
 9431TIP3    H149784   1.402   5.558   2.630 -0.6315  0.7423  0.4682
 9431TIP3    H249785   1.478   5.594   2.756  2.1842 -1.0392 -0.6120
 9432TIP3   OH249786   2.535   3.846   3.268 -0.6749  0.4882  0.0460
 9432TIP3    H149787   2.518   3.940   3.272  0.7651  0.7533  0.7515
 9432TIP3    H249788   2.613   3.838   3.212 -0.3896 -0.2133  0.5243
 9433TIP3   OH249789   6.344   0.171  12.450 -0.0389 -0.1905 -0.1429
 9433TIP3    H149790   6.376   0.260  12.433 -1.2514  0.0992 -1.0359
 9433TIP3    H249791   6.320   0.171  12.542 -1.3091  0.8454 -0.4492
 9434TIP3   OH249792   0.756   4.355   0.623  0.2974 -0.7282 -0.2434
 9434TIP3    H149793   0.762   4.263   0.597 -0.2113 -0.8790  0.1544
 9434TIP3    H249794   0.794   4.403   0.549 -1.9387 -1.0790 -1.7479
 9435TIP3   OH249795   0.482   3.140   4.946  0.2104 -0.6563  0.0872
 9435TIP3    H149796   0.577   3.133   4.955  0.2365 -0.4327 -0.0261
 9435TIP3    H249797   0.448   3.067   4.998  0.3376  0.6653  2.1066
 9436TIP3   OH249798   5.172   2.514  15.286  0.0114  0.0519  0.0777
 9436TIP3    H149799   5.153   2.463  15.207 -0.9141  1.4192 -0.6309
 9436TIP3    H249800   5.264   2.538  15.277  0.1750 -0.6176 -0.0938
 9437TIP3   OH249801   6.543   5.809  12.329  0.4425 -0.3457 -0.4909
 9437TIP3    H149802   6.632   5.814  12.296  0.5253 -0.7361 -0.3294
 9437TIP3    H249803   6.489   5.842  12.257  0.8160  1.1607 -0.1031
 9438TIP3   OH249804   6.655   6.640   3.802  0.7215 -0.8470 -0.2917
 9438TIP3    H149805   6.722   6.599   3.748  1.1130 -0.0467 -0.4388
 9438TIP3    H249806   6.601   6.568   3.833  1.2461 -1.4382 -0.7279
 9439TIP3   OH249807   2.216   5.549   0.724 -0.2078  0.6254 -0.4057
 9439TIP3    H149808   2.126   5.520   0.740 -0.0243  0.8738  1.2140
 9439TIP3    H249809   2.222   5.635   0.766  1.1026  0.1135  0.5261
 9440TIP3   OH249810   5.091   0.820  14.934  0.3990 -0.2165 -0.6188
 9440TIP3    H149811   5.140   0.742  14.907  2.3083  0.2621  1.2093
 9440TIP3    H249812   5.100   0.881  14.860  0.4934 -1.0315 -1.2969
 9441TIP3   OH249813   0.868   5.718  12.497 -0.5034  0.4492 -0.1018
 9441TIP3    H149814   0.783   5.751  12.526 -0.8385 -0.5657  0.1233
 9441TIP3    H249815   0.847   5.658  12.425 -0.0034  0.0359  0.0876
 9442TIP3   OH249816   3.079   0.701   3.757  0.1832 -0.2558 -1.5005
 9442TIP3    H149817   3.058   0.673   3.846 -1.7642  0.5625 -1.6551
 9442TIP3    H249818   3.100   0.794   3.766  1.6366 -0.5495 -1.6864
 9443TIP3   OH249819   1.000   3.919  15.262  0.5295 -0.7080 -0.2103
 9443TIP3    H149820   0.945   3.924  15.184 -0.2957  0.0881  0.3977
 9443TIP3    H249821   0.977   3.997  15.313  1.3269 -1.0107  0.6470
 9444TIP3   OH249822   3.435   3.787  12.124 -0.0579 -0.4561 -0.1760
 9444TIP3    H149823   3.498   3.715  12.126 -0.0039 -0.4034  0.2186
 9444TIP3    H249824   3.484   3.862  12.158 -0.3425 -0.4221  0.1672
 9445TIP3   OH249825   0.484   0.072   6.533  0.0184  0.3514  0.4165
 9445TIP3    H149826   0.540  -0.004   6.541 -0.2200  0.2232  0.9563
 9445TIP3    H249827   0.520   0.122   6.459 -0.0825 -0.4931 -0.2175
 9446TIP3   OH249828   6.748   3.073  17.061 -0.7168 -0.2340  0.1163
 9446TIP3    H149829   6.687   3.002  17.042 -0.5355 -0.5154  0.5636
 9446TIP3    H249830   6.707   3.150  17.023 -0.8982 -0.5816 -0.4120
 9447TIP3   OH249831   4.748   1.092   5.588  0.0176 -0.2024  0.1805
 9447TIP3    H149832   4.718   1.117   5.676 -0.7702  0.5799 -0.2999
 9447TIP3    H249833   4.671   1.100   5.533  0.3779 -1.2364 -0.4931
 9448TIP3   OH249834   0.577   2.438   3.623 -0.2179 -0.0107  0.2607
 9448TIP3    H149835   0.537   2.485   3.697  0.6695 -0.9567  1.3950
 9448TIP3    H249836   0.556   2.491   3.546 -1.9427  0.5445  1.0654
 9449TIP3   OH249837   5.189   2.112  15.264  0.1028 -0.3694 -0.0757
 9449TIP3    H149838   5.153   2.034  15.307 -0.0332  0.5679  1.5961
 9449TIP3    H249839   5.275   2.085  15.234 -0.2966 -1.4144 -0.3343
 9450TIP3   OH249840   5.675   5.648  13.614 -0.1757 -0.4741  0.2870
 9450TIP3    H149841   5.690   5.742  13.624 -0.5910 -0.2264 -1.1688
 9450TIP3    H249842   5.740   5.620  13.549 -0.5080 -1.0609  0.1983
 9451TIP3   OH249843   2.513   3.862  11.160 -0.8777 -0.2126 -0.4779
 9451TIP3    H149844   2.569   3.868  11.082 -0.4073  0.4572 -0.0959
 9451TIP3    H249845   2.456   3.939  11.154 -0.4270  0.1754  0.1521
 9452TIP3   OH249846   3.037   0.965   5.742  0.3201 -0.3253 -0.1183
 9452TIP3    H149847   3.057   1.003   5.827 -0.7410 -2.5565  1.2448
 9452TIP3    H249848   2.965   1.018   5.709  1.7115  1.4865 -0.3719
 9453TIP3   OH249849   5.091   4.208   0.424  0.2675  0.1365  0.3689
 9453TIP3    H149850   5.059   4.283   0.473 -0.3104  0.5407 -0.5960
 9453TIP3    H249851   5.173   4.238   0.385  2.1410 -1.0191  3.1481
 9454TIP3   OH249852   0.666   6.044   5.487  0.1857 -0.3876 -0.4113
 9454TIP3    H149853   0.677   6.004   5.401 -0.6078  1.3279 -1.3713
 9454TIP3    H249854   0.573   6.067   5.491  0.7040  1.8803 -0.2066
 9455TIP3   OH249855   2.837   3.020  13.253 -0.6157  0.5537  0.2450
 9455TIP3    H149856   2.845   3.108  13.215 -0.6447 -0.0377 -1.1835
 9455TIP3    H249857   2.884   3.026  13.337  1.2928  1.3535 -0.8208
 9456TIP3   OH249858   3.208   0.795   3.364 -0.0019 -0.7302  0.3234
 9456TIP3    H149859   3.233   0.843   3.285 -1.6119 -0.4510 -0.0491
 9456TIP3    H249860   3.236   0.851   3.436  1.5317 -1.0111 -0.0090
 9457TIP3   OH249861   4.791   4.346  10.639 -0.1096  0.0552  0.2813
 9457TIP3    H149862   4.867   4.303  10.601  0.7186  1.4684  0.2871
 9457TIP3    H249863   4.819   4.436  10.655 -1.2158  0.1520  1.9490
 9458TIP3   OH249864   1.124   5.193  16.277 -0.1120 -0.0135  0.3654
 9458TIP3    H149865   1.164   5.131  16.217  0.4798 -0.3235  1.0728
 9458TIP3    H249866   1.173   5.184  16.359 -0.4140  0.9377  0.6715
 9459TIP3   OH249867   5.380   1.491   2.073  0.3455  0.7543 -0.1437
 9459TIP3    H149868   5.365   1.482   2.167  0.3741  3.5975  0.2054
 9459TIP3    H249869   5.295   1.517   2.038  0.6214  0.8978 -0.7194
 9460TIP3   OH249870   6.752   2.254   1.849 -0.4271  0.3528 -0.3021
 9460TIP3    H149871   6.736   2.188   1.781 -0.8636  0.4460 -0.2919
 9460TIP3    H249872   6.680   2.315   1.840  1.5668  2.6141 -2.4081
 9461TIP3   OH249873   2.144   1.070  15.113  0.4903  0.3555 -0.6716
 9461TIP3    H149874   2.063   1.108  15.078 -0.6988 -0.4254  1.0674
 9461TIP3    H249875   2.160   1.119  15.194  1.4572  0.1164 -0.7084
 9462TIP3   OH249876   5.902   2.628   4.595  0.0913 -0.5555  0.0918
 9462TIP3    H149877   5.994   2.640   4.571  0.0238  0.3887  0.2888
 9462TIP3    H249878   5.879   2.543   4.558  0.5078  0.0474 -1.6531
 9463TIP3   OH249879   2.404   2.530   3.078 -0.0725 -0.6075  0.1854
 9463TIP3    H149880   2.467   2.523   3.150  1.7762  0.8603 -1.1844
 9463TIP3    H249881   2.318   2.527   3.120  0.9285 -0.5779  2.3477
 9464TIP3   OH249882   0.941   6.076  12.893  0.1021  0.8094 -0.6049
 9464TIP3    H149883   1.019   6.067  12.838  0.3392  0.1396 -0.1768
 9464TIP3    H249884   0.903   5.988  12.894 -1.2111  1.3402 -1.6026
 9465TIP3   OH249885   4.748   2.135   2.678 -0.6860 -0.6729 -0.2597
 9465TIP3    H149886   4.810   2.174   2.740 -0.5287 -1.3962  0.0395
 9465TIP3    H249887   4.801   2.110   2.603 -0.9297  0.5430 -0.8735
 9466TIP3   OH249888   2.851   2.982   5.055 -0.2414  0.4809  0.3364
 9466TIP3    H149889   2.899   2.948   4.979 -0.4156  1.0081 -0.0128
 9466TIP3    H249890   2.762   2.951   5.043 -0.3726  0.9479  0.0822
 9467TIP3   OH249891   4.139   4.614  14.842 -0.3765 -0.0593 -0.4812
 9467TIP3    H149892   4.204   4.607  14.773  0.0778  0.6166 -0.1313
 9467TIP3    H249893   4.181   4.667  14.910 -2.0628  2.3960 -1.2139
 9468TIP3   OH249894   4.075   4.814  15.058 -0.2272 -0.0126  0.0324
 9468TIP3    H149895   4.072   4.718  15.064 -0.4560 -0.0956 -1.2348
 9468TIP3    H249896   4.005   4.843  15.117 -2.3215 -0.7561 -1.9313
 9469TIP3   OH249897   3.819   1.964  11.446  0.1937 -0.1639 -0.1651
 9469TIP3    H149898   3.854   1.968  11.356 -0.2141  0.3932 -0.3061
 9469TIP3    H249899   3.787   1.875  11.455 -0.6205  0.0424 -0.9079
 9470TIP3   OH249900   5.213   0.972   5.351  0.0243 -0.1875 -0.0799
 9470TIP3    H149901   5.128   1.008   5.380 -0.2522 -0.0853 -0.9851
 9470TIP3    H249902   5.200   0.878   5.350  0.6186 -0.3286  1.8908
 9471TIP3   OH249903   2.199   5.364  15.836  0.2832  0.2825 -0.0110
 9471TIP3    H149904   2.202   5.303  15.910  0.6677 -1.7679 -1.6317
 9471TIP3    H249905   2.114   5.406  15.844  0.0690 -0.3333  1.2627
 9472TIP3   OH249906   5.466   6.347  13.745 -0.2476  0.0122  1.0139
 9472TIP3    H149907   5.546   6.357  13.694 -0.9880  0.8402 -0.0276
 9472TIP3    H249908   5.428   6.264  13.715 -1.0894  0.8718 -0.4361
 9473TIP3   OH249909   2.389   3.123   2.626  0.1012 -0.1519  0.7320
 9473TIP3    H149910   2.342   3.106   2.545 -0.5693  1.7934  0.6558
 9473TIP3    H249911   2.379   3.217   2.640  1.6896 -0.1467  2.1556
 9474TIP3   OH249912   0.434   5.160  11.665 -0.6425 -0.3160  0.4861
 9474TIP3    H149913   0.470   5.073  11.681  1.7049  0.0490 -2.0233
 9474TIP3    H249914   0.341   5.145  11.647 -0.8698 -1.9203  2.6889
 9475TIP3   OH249915   4.449   2.534  11.514  0.4578  0.0540  0.0948
 9475TIP3    H149916   4.374   2.593  11.521  0.9580  0.8551 -1.0926
 9475TIP3    H249917   4.459   2.498  11.602 -0.7203  0.6703  0.4996
 9476TIP3   OH249918   3.486   6.638  14.092 -0.4499 -0.1523 -0.3689
 9476TIP3    H149919   3.538   6.611  14.017  0.0995 -0.2360  0.0301
 9476TIP3    H249920   3.410   6.581  14.092 -0.6796  0.1498 -1.1178
 9477TIP3   OH249921   5.709   1.582   4.452  0.2504  0.9087  0.2948
 9477TIP3    H149922   5.733   1.540   4.370  2.3836 -0.1813  1.3901
 9477TIP3    H249923   5.614   1.576   4.455 -0.0234  1.9895 -2.5707
 9478TIP3   OH249924   2.107   4.079  17.165 -0.1852 -0.4057 -0.2537
 9478TIP3    H149925   2.088   4.173  17.164 -0.0114 -0.3594  0.5364
 9478TIP3    H249926   2.155   4.064  17.083  0.3470  0.3123 -0.0848
 9479TIP3   OH249927   4.199   6.193  15.497  0.0120 -0.1890  0.1128
 9479TIP3    H149928   4.119   6.177  15.448  0.7410 -1.5765 -0.6937
 9479TIP3    H249929   4.202   6.124  15.563 -0.3822  0.9848  1.4054
 9480TIP3   OH249930   3.899   0.864   2.657  0.1481 -0.6657  0.7834
 9480TIP3    H149931   3.914   0.958   2.647 -0.4527 -0.5817  0.6381
 9480TIP3    H249932   3.950   0.824   2.587 -0.4359 -0.3680  0.1729
 9481TIP3   OH249933   1.219   5.268  12.231 -0.3006 -0.6118  0.7538
 9481TIP3    H149934   1.271   5.194  12.201 -0.1711 -0.4673  0.6132
 9481TIP3    H249935   1.144   5.229  12.276 -0.1539 -0.8239  0.8137
 9482TIP3   OH249936   5.393   5.516  13.595 -0.3120  0.1210 -0.4016
 9482TIP3    H149937   5.450   5.456  13.546  0.4496 -0.3450  0.9798
 9482TIP3    H249938   5.454   5.580  13.634 -1.0195  1.2148 -1.0503
 9483TIP3   OH249939   4.705   4.765  11.619 -0.0992  0.2868 -0.1816
 9483TIP3    H149940   4.653   4.692  11.651 -0.8195  0.7087 -0.3539
 9483TIP3    H249941   4.699   4.832  11.687 -1.7717  1.2482 -1.1882
 9484TIP3   OH249942   1.131   6.628   2.093 -0.2067 -0.2885 -0.0348
 9484TIP3    H149943   1.076   6.706   2.088 -0.2688 -0.2211  1.2741
 9484TIP3    H249944   1.204   6.654   2.149  0.1058 -0.9826 -0.1107
 9485TIP3   OH249945   4.087   1.498  15.466  0.0575  0.6307  0.5327
 9485TIP3    H149946   3.997   1.526  15.480 -0.1320  0.0989  0.4136
 9485TIP3    H249947   4.106   1.519  15.375 -0.6788 -1.1840 -0.0871
 9486TIP3   OH249948   0.875   2.104  14.965 -0.0483 -0.2726 -0.2105
 9486TIP3    H149949   0.801   2.092  14.904  0.0093 -0.4172 -0.2524
 9486TIP3    H249950   0.840   2.159  15.035 -0.2479 -0.4907 -0.1382
 9487TIP3   OH249951   6.214   2.776  13.983  0.1360 -0.4432 -0.5258
 9487TIP3    H149952   6.225   2.838  14.055 -1.9365  0.2057 -0.7151
 9487TIP3    H249953   6.155   2.821  13.922 -0.9561 -2.3624 -0.9457
 9488TIP3   OH249954   3.789   3.448  11.671 -1.0211 -0.5925 -0.2359
 9488TIP3    H149955   3.712   3.391  11.666 -2.9537  1.9020 -1.1526
 9488TIP3    H249956   3.818   3.456  11.580 -0.6235 -0.3095 -0.0848
 9489TIP3   OH249957   2.197   2.887  12.292  0.2011  0.4443 -0.0604
 9489TIP3    H149958   2.137   2.899  12.219 -0.8493 -0.4081  0.6356
 9489TIP3    H249959   2.273   2.941  12.270 -0.6261  1.1857 -1.1745
 9490TIP3   OH249960   4.267   1.945   1.813  0.3607 -0.0490  0.1531
 9490TIP3    H149961   4.288   1.987   1.897 -0.6513 -0.3321  0.5673
 9490TIP3    H249962   4.350   1.910   1.782  1.0557  1.4008  0.2805
 9491TIP3   OH249963   4.875   1.189  13.461 -0.3501  0.0875  0.1297
 9491TIP3    H149964   4.857   1.254  13.394  2.5643 -0.0582 -0.8919
 9491TIP3    H249965   4.907   1.113  13.413 -1.7078 -1.4178  1.4670
 9492TIP3   OH249966   4.282   2.059   2.062 -0.1940 -0.5128 -0.2967
 9492TIP3    H149967   4.201   2.023   2.099  0.0056 -1.3895 -0.6992
 9492TIP3    H249968   4.339   2.072   2.138 -1.1467  1.3677  0.1800
 9493TIP3   OH249969   4.877   3.420  12.178 -0.1274 -0.4159  0.6009
 9493TIP3    H149970   4.802   3.479  12.168  0.4606  0.4992  1.3937
 9493TIP3    H249971   4.910   3.408  12.089  0.6928  1.7675  0.5555
 9494TIP3   OH249972   3.005   6.097  16.084  0.5106 -0.1660  0.0389
 9494TIP3    H149973   2.917   6.127  16.066  1.3873  1.8823 -1.1042
 9494TIP3    H249974   3.025   6.035  16.014  0.3586  0.1761 -0.3047
 9495TIP3   OH249975   2.215   4.748  12.709 -0.1105 -0.5868  0.3038
 9495TIP3    H149976   2.211   4.687  12.635 -1.9276  0.6905 -0.7317
 9495TIP3    H249977   2.308   4.760  12.726  0.3736 -0.6885 -1.9829
 9496TIP3   OH249978   3.447   0.587  17.231 -0.2466 -0.5532  0.2226
 9496TIP3    H149979   3.489   0.592  17.146 -3.2274 -1.4041 -1.4529
 9496TIP3    H249980   3.414   0.675  17.247  0.9890 -0.1991  0.9239
 9497TIP3   OH249981   4.166   6.776  12.381 -0.6510 -0.1843 -0.4916
 9497TIP3    H149982   4.119   6.780  12.465 -0.3226 -0.7477 -0.2771
 9497TIP3    H249983   4.138   6.855  12.334  0.4191  1.0379  0.8194
 9498TIP3   OH249984   1.536   2.420  16.533  0.0267  0.9727 -0.4389
 9498TIP3    H149985   1.547   2.428  16.438  3.0528  0.4136 -0.2293
 9498TIP3    H249986   1.503   2.506  16.560  0.4448  1.6100 -1.8527
 9499TIP3   OH249987   2.888   2.528  14.016  0.0345 -0.0693 -0.0373
 9499TIP3    H149988   2.851   2.495  14.098 -1.3593 -2.0937 -1.3672
 9499TIP3    H249989   2.827   2.597  13.988  0.4453  0.5401  0.5619
 9500TIP3   OH249990   2.754   1.575  14.301  0.7395  0.3815  0.3344
 9500TIP3    H149991   2.817   1.639  14.267  0.2298  0.7658  0.0957
 9500TIP3    H249992   2.754   1.591  14.396  1.1618  0.2295  0.3626
 9501TIP3   OH249993   0.083   2.580   2.824 -0.6731  0.3426  0.0652
 9501TIP3    H149994   0.131   2.511   2.869 -1.6683 -1.3282 -1.3190
 9501TIP3    H249995   0.125   2.585   2.738  0.2687  2.4748  0.5813
 9502TIP3   OH249996   5.543   4.584   6.047  0.3608  0.2524 -0.2516
 9502TIP3    H149997   5.479   4.645   6.011  0.9777  1.4035  0.5322
 9502TIP3    H249998   5.506   4.559   6.132  0.9386  0.9470  0.2188
 9503TIP3   OH249999   1.612   4.479  15.091  0.3084 -0.1957 -0.4690
 9503TIP3    H150000   1.609   4.440  15.179  0.1828  0.7310 -0.0483
 9503TIP3    H250001   1.521   4.480  15.062  0.5226 -2.0648 -1.3432
 9504TIP3   OH250002   5.609   4.609  12.678 -0.1138 -0.2628 -0.6125
 9504TIP3    H150003   5.649   4.628  12.762 -0.7562  1.2555 -0.6275
 9504TIP3    H250004   5.681   4.616  12.615 -0.2038  1.7184 -0.5496
 9505TIP3   OH250005   5.243   2.390  11.112  0.7592  0.4432 -0.5336
 9505TIP3    H150006   5.249   2.366  11.204 -0.1328 -0.9983 -0.8086
 9505TIP3    H250007   5.177   2.459  11.109  1.7238  1.3994  0.0432
 9506TIP3   OH250008   2.408   3.098  12.284 -0.2688 -0.0919  0.3133
 9506TIP3    H150009   2.370   3.164  12.226 -2.4094 -0.3005  1.3944
 9506TIP3    H250010   2.380   3.124  12.372  0.4630 -1.3832  0.9576
 9507TIP3   OH250011   6.397   1.727  11.330 -0.2251 -0.3962  0.0385
 9507TIP3    H150012   6.311   1.724  11.372  1.6928 -0.2924  4.5613
 9507TIP3    H250013   6.422   1.819  11.334 -0.5960 -0.0652 -3.1505
 9508TIP3   OH250014   1.636   6.648   5.715  0.1229  0.1905  0.5743
 9508TIP3    H150015   1.600   6.711   5.653  1.7679  0.4686 -0.1500
 9508TIP3    H250016   1.580   6.570   5.706  0.5012  0.0992 -1.5225
 9509TIP3   OH250017   5.020   6.174   6.003  0.9993  0.1208  0.4427
 9509TIP3    H150018   5.074   6.244   6.038  0.8920  0.8657 -0.8133
 9509TIP3    H250019   5.073   6.095   6.013  3.2815  1.0839 -2.5472
 9510TIP3   OH250020   5.262   5.955   0.712  0.2299 -0.1892  0.1795
 9510TIP3    H150021   5.265   5.874   0.763  0.3678 -0.4086 -0.1705
 9510TIP3    H250022   5.349   5.962   0.673 -0.7039 -1.5577 -2.3574
 9511TIP3   OH250023   1.642   1.859   1.042 -0.3049 -0.3022  0.2879
 9511TIP3    H150024   1.565   1.844   0.988  1.4751  1.5993 -3.0848
 9511TIP3    H250025   1.638   1.953   1.063  1.3369 -0.0228 -0.4909
 9512TIP3   OH250026   0.326   4.136  15.682 -0.2025 -0.1335  0.3007
 9512TIP3    H150027   0.358   4.215  15.727  1.4720 -0.5599 -0.0935
 9512TIP3    H250028   0.242   4.117  15.725  0.7129  0.2322  2.3801
 9513TIP3   OH250029   0.439   5.406  15.638  0.0756 -0.5162  0.5519
 9513TIP3    H150030   0.422   5.499  15.654  0.8088 -0.2788 -0.0051
 9513TIP3    H250031   0.518   5.387  15.688  0.7469 -0.4759 -0.4763
 9514TIP3   OH250032   5.658   0.292   0.925 -0.0098  0.0863 -0.2050
 9514TIP3    H150033   5.686   0.270   1.014 -0.9737  1.0712  0.3716
 9514TIP3    H250034   5.572   0.250   0.916 -0.4591  0.9942 -0.2220
 9515TIP3   OH250035   4.313   3.518   3.334 -0.5920  0.3056 -0.1289
 9515TIP3    H150036   4.222   3.546   3.336 -0.2383  1.5268  1.4058
 9515TIP3    H250037   4.359   3.588   3.286 -0.2234  0.6097  0.6457
 9516TIP3   OH250038   3.756   5.292   4.846  0.1567  0.9343  0.5092
 9516TIP3    H150039   3.836   5.340   4.868  0.3558  0.7077  0.2795
 9516TIP3    H250040   3.718   5.271   4.931  0.4252  0.9041  0.6245
 9517TIP3   OH250041   5.482   2.058   3.348 -0.3940  0.2547  0.0585
 9517TIP3    H150042   5.407   2.105   3.386 -0.6551 -0.5108  0.5071
 9517TIP3    H250043   5.487   1.977   3.398  1.4120  0.7523  0.7541
 9518TIP3   OH250044   4.451   0.005   0.990 -0.2167  0.5223  0.0442
 9518TIP3    H150045   4.463   0.093   0.954  3.3652  0.1818  0.0823
 9518TIP3    H250046   4.491  -0.054   0.926  2.2185 -0.5078  2.3262
 9519TIP3   OH250047   2.981   5.117  16.186  0.1914  0.0598 -0.1347
 9519TIP3    H150048   3.025   5.174  16.124  1.8168  1.2221  1.9325
 9519TIP3    H250049   2.915   5.173  16.229  2.2103  0.7362  2.3422
 9520TIP3   OH250050   4.942   1.007  15.712  0.3801  0.5899 -0.8536
 9520TIP3    H150051   4.988   1.010  15.628  0.9582  1.8058 -0.5289
 9520TIP3    H250052   4.850   0.999  15.689  0.7142 -4.4808 -1.5070
 9521TIP3   OH250053   6.351   6.644  15.926  0.0348  0.0505 -0.4400
 9521TIP3    H150054   6.363   6.736  15.947 -0.0770  1.3185 -4.8362
 9521TIP3    H250055   6.293   6.610  15.994  1.7330  2.5559  2.5094
 9522TIP3   OH250056   3.659   3.850   6.104 -0.0079 -0.4040 -0.5612
 9522TIP3    H150057   3.590   3.874   6.166 -0.0930 -2.3587  0.1650
 9522TIP3    H250058   3.619   3.861   6.018 -1.3221 -1.6607 -0.1530
 9523TIP3   OH250059   4.430   3.587  11.852  0.4616 -0.1337  0.4024
 9523TIP3    H150060   4.488   3.642  11.800  1.3757 -1.4803 -0.0474
 9523TIP3    H250061   4.486   3.553  11.922  0.4838 -2.1435 -0.5348
 9524TIP3   OH250062   3.348   3.602   1.007  0.5870 -0.1368 -0.6606
 9524TIP3    H150063   3.313   3.532   0.952 -0.4322  0.6096 -0.9982
 9524TIP3    H250064   3.331   3.682   0.957 -0.7972  0.6159  0.9222
 9525TIP3   OH250065   2.133   4.176   1.493 -0.2899  0.0893  0.2981
 9525TIP3    H150066   2.125   4.134   1.408 -1.1503 -1.7050  1.2103
 9525TIP3    H250067   2.184   4.256   1.476 -3.0395  1.4888 -2.4326
 9526TIP3   OH250068   4.740   3.034   4.246  0.0377 -0.5206  0.1735
 9526TIP3    H150069   4.818   3.084   4.223 -0.1658 -0.1091  0.3758
 9526TIP3    H250070   4.764   2.988   4.327  1.0157 -2.5503 -1.1643
 9527TIP3   OH250071   2.042   5.464   3.505  0.3093 -0.1878  0.7221
 9527TIP3    H150072   2.074   5.379   3.476 -0.3433 -1.2678  2.9309
 9527TIP3    H250073   1.958   5.445   3.546  0.6693  1.3349  2.2750
 9528TIP3   OH250074   0.917   5.506   1.795 -0.0584  0.2559 -0.6092
 9528TIP3    H150075   0.850   5.440   1.815 -0.2395  0.2095 -1.3598
 9528TIP3    H250076   0.894   5.538   1.708  0.2184  1.0831 -0.3836
 9529TIP3   OH250077   4.594   2.978  12.876 -0.3616 -0.2242  0.2754
 9529TIP3    H150078   4.512   2.966  12.828 -1.2831  0.4094  1.6208
 9529TIP3    H250079   4.617   2.889  12.905 -0.2349 -0.4898 -0.6052
 9530TIP3   OH250080   1.899   5.398   1.168 -0.0834 -0.1621  0.3755
 9530TIP3    H150081   1.930   5.436   1.085 -0.6668 -1.4391 -0.4547
 9530TIP3    H250082   1.924   5.306   1.164 -0.4355 -0.3213  1.4745
 9531TIP3   OH250083   4.623   3.423  16.611  0.5203  0.1929 -0.3719
 9531TIP3    H150084   4.594   3.342  16.652  1.2402 -0.2367 -0.6868
 9531TIP3    H250085   4.571   3.430  16.532  2.6932 -1.7483 -2.1271
 9532TIP3   OH250086   4.298   1.220  16.955 -0.1824 -0.0953  0.3096
 9532TIP3    H150087   4.217   1.258  16.987  0.3196  0.4329  1.0040
 9532TIP3    H250088   4.310   1.256  16.867 -1.1670 -0.9180 -0.1810
 9533TIP3   OH250089   3.479   1.134  13.548  0.1413  0.0323 -0.4375
 9533TIP3    H150090   3.422   1.201  13.508 -1.1539 -0.7043  0.1128
 9533TIP3    H250091   3.479   1.062  13.485  1.3024  0.4019 -0.8945
 9534TIP3   OH250092   4.668   5.748  16.961  0.0043 -0.0414 -0.7570
 9534TIP3    H150093   4.631   5.723  16.877  3.3439 -1.0281 -2.1079
 9534TIP3    H250094   4.695   5.665  17.001  0.2684  0.5653  0.3747
 9535TIP3   OH250095   0.424   6.655  13.612 -0.2460  0.5908  0.3987
 9535TIP3    H150096   0.508   6.611  13.627  0.0739  1.2969  0.7828
 9535TIP3    H250097   0.359   6.598  13.651  0.0650  0.0593  0.1457
 9536TIP3   OH250098   0.965   0.708   5.208 -0.1604 -0.2517  0.5223
 9536TIP3    H150099   1.053   0.746   5.201  0.8939 -2.6595 -0.4417
 9536TIP3    H250100   0.971   0.624   5.162 -2.6081 -1.1367  1.6267
 9537TIP3   OH250101   0.796   0.236  17.045 -0.0202  0.5659  0.4187
 9537TIP3    H150102   0.869   0.291  17.075 -1.1927  1.3340  1.9763
 9537TIP3    H250103   0.820   0.147  17.074  1.0917  0.4876 -0.6379
 9538TIP3   OH250104   1.884   3.985  13.053 -0.0988  0.1844 -0.3906
 9538TIP3    H150105   1.974   3.952  13.057 -0.8331 -1.7707  1.8943
 9538TIP3    H250106   1.842   3.930  12.987  0.4883  1.5873 -2.0085
 9539TIP3   OH250107   0.574   3.298   1.467  0.3050 -0.2929  0.0534
 9539TIP3    H150108   0.544   3.359   1.534  0.0893  1.6375 -1.6888
 9539TIP3    H250109   0.505   3.232   1.462 -0.4841  0.4710  0.5985
 9540TIP3   OH250110   0.300   4.128   1.041  0.4224  0.1971  0.2007
 9540TIP3    H150111   0.387   4.154   1.009 -0.0014  0.6095 -0.6642
 9540TIP3    H250112   0.311   4.118   1.135  1.1983  1.1555  0.2299
 9541TIP3   OH250113   3.269   6.530  10.409  0.1010  0.1580 -0.3362
 9541TIP3    H150114   3.283   6.448  10.458  0.0706  0.9847  1.1069
 9541TIP3    H250115   3.351   6.578  10.419 -0.9689  1.7435  1.7426
 9542TIP3   OH250116   3.086   0.997   0.923  0.6439 -0.4187  0.1393
 9542TIP3    H150117   2.991   1.007   0.927  0.5889  0.7408 -2.2275
 9542TIP3    H250118   3.119   1.085   0.943  1.0748 -0.2758 -1.0832
 9543TIP3   OH250119   5.298   5.773   5.582  0.0151  0.5571  0.0188
 9543TIP3    H150120   5.284   5.692   5.532  0.8633 -0.1516  0.8894
 9543TIP3    H250121   5.389   5.796   5.564 -0.2638  1.4148 -0.3318
 9544TIP3   OH250122   3.957   0.505  12.951 -0.3272  0.4735  0.2783
 9544TIP3    H150123   3.948   0.504  13.046  2.6257  0.7006  0.6733
 9544TIP3    H250124   3.918   0.423  12.922  1.4752 -1.1237  2.0869
 9545TIP3   OH250125   0.657   5.140  15.503 -0.0633 -0.5985  0.1922
 9545TIP3    H150126   0.589   5.188  15.457 -0.8916 -1.5240  0.4165
 9545TIP3    H250127   0.610   5.077  15.558  0.8470  0.5229  2.4167
 9546TIP3   OH250128   0.525   2.602  16.694 -0.1533  0.3146 -0.2294
 9546TIP3    H150129   0.478   2.568  16.770  0.9110 -0.4195  0.1209
 9546TIP3    H250130   0.507   2.538  16.625  0.4429 -0.0438 -0.0540
 9547TIP3   OH250131   0.854   6.604  15.002  0.0662 -0.4366 -0.5471
 9547TIP3    H150132   0.905   6.632  14.926 -2.7458  0.0341 -2.4535
 9547TIP3    H250133   0.818   6.519  14.976  0.3926 -1.0842  1.0097
 9548TIP3   OH250134   6.238   5.343   5.635  0.1097  0.2332 -0.3854
 9548TIP3    H150135   6.237   5.268   5.695  3.7793  0.6829  0.4813
 9548TIP3    H250136   6.281   5.311   5.556 -3.1935  0.1141 -2.3186
 9549TIP3   OH250137   5.280   0.750   3.200  0.2152 -0.2629  0.1804
 9549TIP3    H150138   5.307   0.807   3.128  0.5585  0.2352  0.6964
 9549TIP3    H250139   5.187   0.767   3.210  0.2521 -0.0211  0.1256
 9550TIP3   OH250140   1.797   6.598   4.632 -0.0509  0.5438 -0.0514
 9550TIP3    H150141   1.830   6.540   4.700 -1.5300  1.1737  1.2449
 9550TIP3    H250142   1.873   6.612   4.574  1.4639  0.5526  1.8206
 9551TIP3   OH250143   1.434   2.424  12.377  0.0159 -0.3943 -0.0054
 9551TIP3    H150144   1.460   2.488  12.443  1.8128 -0.9073 -0.1527
 9551TIP3    H250145   1.477   2.343  12.405 -0.3992 -0.9755 -1.0086
 9552TIP3   OH250146   6.572   2.260  17.174  0.0109 -0.3456 -0.0149
 9552TIP3    H150147   6.528   2.228  17.094 -0.6291 -1.1698  0.6440
 9552TIP3    H250148   6.622   2.335  17.145 -1.8501  0.6621 -0.8145
 9553TIP3   OH250149   0.111   2.545   2.447 -0.0204 -0.1470 -0.2034
 9553TIP3    H150150   0.174   2.520   2.515  1.7328 -0.1054 -1.7406
 9553TIP3    H250151   0.158   2.607   2.392 -0.1473 -2.6133 -3.3639
 9554TIP3   OH250152   1.775   5.676   0.534  0.4548  0.2600  0.1347
 9554TIP3    H150153   1.815   5.709   0.615 -0.7674 -1.9390  1.7341
 9554TIP3    H250154   1.681   5.689   0.546  0.2368 -0.2173 -0.9034
 9555TIP3   OH250155   2.831   1.763  12.506  0.0354 -0.0223  0.5404
 9555TIP3    H150156   2.861   1.672  12.509  0.8678  0.1406 -1.2746
 9555TIP3    H250157   2.737   1.758  12.516  0.0026 -1.1764 -0.1953
 9556TIP3   OH250158   3.734   6.481   6.000 -0.2034  0.4526  0.2814
 9556TIP3    H150159   3.818   6.500   6.040  1.0770  0.3526 -2.1501
 9556TIP3    H250160   3.676   6.460   6.073  0.6789  4.5682  2.4060
 9557TIP3   OH250161   1.967   0.682  11.595 -0.7184 -1.3115  0.4162
 9557TIP3    H150162   2.034   0.620  11.566 -2.2554 -2.1897 -1.5132
 9557TIP3    H250163   2.012   0.765  11.603  0.2741 -1.3936 -2.9299
 9558TIP3   OH250164   3.685   0.334   4.627  0.2682 -0.0428 -0.7076
 9558TIP3    H150165   3.779   0.347   4.615  0.8908 -1.8257  1.5242
 9558TIP3    H250166   3.656   0.412   4.674  0.3507  1.0493 -2.4079
 9559TIP3   OH250167   1.260   5.432   6.318 -0.6535 -0.3331  0.1055
 9559TIP3    H150168   1.318   5.504   6.294 -0.9282 -0.0169  0.3812
 9559TIP3    H250169   1.175   5.474   6.335 -1.0373 -0.8164 -0.5623
 9560TIP3   OH250170   1.141   1.327   1.879 -0.0680 -0.3839  0.5017
 9560TIP3    H150171   1.129   1.418   1.906  1.1052  0.2510 -0.9963
 9560TIP3    H250172   1.225   1.301   1.918 -0.1277 -0.6424  0.4639
 9561TIP3   OH250173   5.348   5.802   6.149  0.8252 -0.2081  0.3922
 9561TIP3    H150174   5.386   5.808   6.236 -0.9518 -0.5288  1.2309
 9561TIP3    H250175   5.361   5.889   6.111  1.1049  0.1092  1.2002
 9562TIP3   OH250176   3.902   1.194  16.549  0.1115  0.2972  0.3141
 9562TIP3    H150177   3.988   1.211  16.511  0.7153 -0.7194  1.1680
 9562TIP3    H250178   3.921   1.158  16.636 -1.0406 -2.7582 -0.5652
 9563TIP3   OH250179   3.239   1.170  16.933  0.1940  0.1406  0.1549
 9563TIP3    H150180   3.241   1.235  16.863 -2.4881  0.8999  0.6690
 9563TIP3    H250181   3.179   1.206  16.998 -0.4293 -2.2685  1.0510
 9564TIP3   OH250182   1.285   5.100  13.904 -0.0622  0.0072  0.3403
 9564TIP3    H150183   1.256   5.049  13.829 -1.5100 -0.7610  1.3663
 9564TIP3    H250184   1.204   5.121  13.951  0.6798  1.6064  0.9948
 9565TIP3   OH250185   0.751   3.136   5.005  0.0069 -0.6346 -0.0842
 9565TIP3    H150186   0.838   3.095   5.013  0.8732  0.9945 -0.6244
 9565TIP3    H250187   0.754   3.209   5.067 -1.3701 -1.1339  0.6076
 9566TIP3   OH250188   0.613   2.062  13.451  0.5848 -0.3310 -0.4875
 9566TIP3    H150189   0.588   2.151  13.428 -0.1403 -0.5610 -0.5969
 9566TIP3    H250190   0.559   2.041  13.528  2.2690  0.0816  0.8860
 9567TIP3   OH250191   3.889   0.054   1.197  0.1134  0.2378 -0.3892
 9567TIP3    H150192   3.822   0.105   1.153 -0.3345 -1.3524 -1.6604
 9567TIP3    H250193   3.971   0.096   1.173 -0.2397  0.3675 -1.4173
 9568TIP3   OH250194   3.980   4.672   2.147  0.7195 -0.3122  0.5897
 9568TIP3    H150195   4.060   4.622   2.132  0.4344 -0.3617 -0.9663
 9568TIP3    H250196   4.009   4.751   2.191  1.9389  0.5057 -1.5178
 9569TIP3   OH250197   2.465   2.211   1.998  0.2193 -0.2521 -0.4309
 9569TIP3    H150198   2.455   2.304   1.976  0.0673 -0.0146  0.6138
 9569TIP3    H250199   2.376   2.180   2.009  0.2879 -0.3876 -0.2556
 9570TIP3   OH250200   3.436   2.808   3.075  0.1214  0.3476  0.4041
 9570TIP3    H150201   3.357   2.850   3.042  1.6973  2.2106 -1.2174
 9570TIP3    H250202   3.498   2.812   3.002  2.8164  2.0265  2.5963
 9571TIP3   OH250203   5.000   4.297  13.104  0.4556  0.5600  0.3715
 9571TIP3    H150204   5.002   4.350  13.184 -2.8047  0.1972  0.8034
 9571TIP3    H250205   4.941   4.345  13.046  0.9664 -0.3763 -0.9447
 9572TIP3   OH250206   0.324   5.660   2.843 -0.4698 -0.0744  0.3868
 9572TIP3    H150207   0.392   5.678   2.907 -0.1198 -2.9758  1.0031
 9572TIP3    H250208   0.254   5.722   2.863  0.1977  0.0103  2.7003
 9573TIP3   OH250209   5.118   4.382   3.737  0.6690 -0.5418  0.0804
 9573TIP3    H150210   5.079   4.468   3.718  0.7526 -0.5945 -0.3165
 9573TIP3    H250211   5.156   4.393   3.824 -0.6644 -0.6283  0.7138
 9574TIP3   OH250212   5.636   1.744   2.362  0.0522  0.2749  0.1493
 9574TIP3    H150213   5.545   1.769   2.347  0.1195 -0.2846 -1.3315
 9574TIP3    H250214   5.653   1.770   2.453 -1.4943  0.6180  0.3716
 9575TIP3   OH250215   2.598   2.879   1.121  0.5101  0.4890 -0.0782
 9575TIP3    H150216   2.551   2.961   1.136  2.0179  1.3244  0.2446
 9575TIP3    H250217   2.597   2.835   1.205 -0.1174  0.2617 -0.1983
 9576TIP3   OH250218   6.312   2.208  12.683 -0.0150 -0.4699 -0.0148
 9576TIP3    H150219   6.372   2.259  12.738 -0.9219  0.8343 -0.1788
 9576TIP3    H250220   6.337   2.230  12.594 -0.0099 -0.8131 -0.0995
 9577TIP3   OH250221   3.396   4.790  15.775 -0.4996  0.0456 -0.2959
 9577TIP3    H150222   3.405   4.843  15.696 -1.6937  0.1034 -0.4135
 9577TIP3    H250223   3.376   4.853  15.844  1.1751  0.0717  0.2124
 9578TIP3   OH250224   2.790   0.898  13.961 -0.2223 -0.2661 -0.1922
 9578TIP3    H150225   2.858   0.831  13.952 -0.2992 -0.2903 -0.6298
 9578TIP3    H250226   2.721   0.870  13.901 -1.4267 -1.2120  1.5192
 9579TIP3   OH250227   2.577   1.467  16.761  0.4593  0.1632 -0.7378
 9579TIP3    H150228   2.491   1.458  16.801  0.9411  1.4060  0.7073
 9579TIP3    H250229   2.589   1.562  16.751  2.8996  0.3197  2.1574
 9580TIP3   OH250230   4.865   3.415   0.599 -0.0140  0.5383 -0.3745
 9580TIP3    H150231   4.805   3.352   0.560  2.1101 -0.1133 -2.8586
 9580TIP3    H250232   4.951   3.375   0.589  1.0305  2.0997  1.6937
 9581TIP3   OH250233   0.736   0.006   4.616  0.2417  0.1408 -0.0423
 9581TIP3    H150234   0.758   0.051   4.534  2.2278 -0.5673  0.0511
 9581TIP3    H250235   0.807   0.028   4.675  0.0175 -1.2023  0.7639
 9582TIP3   OH250236   0.558   3.961  15.158  0.5384 -0.1229 -0.5944
 9582TIP3    H150237   0.651   3.944  15.174 -0.1481 -2.0866  1.8906
 9582TIP3    H250238   0.537   4.034  15.216  0.5094  0.3453 -1.1826
 9583TIP3   OH250239   5.760   2.397  12.995 -0.4514  0.3382  0.6172
 9583TIP3    H150240   5.669   2.423  13.007 -0.4028  0.2790  1.1217
 9583TIP3    H250241   5.759   2.301  13.003 -0.4097  0.3018  0.2006
 9584TIP3   OH250242   4.470   1.845  11.287 -0.7197 -0.1061  0.0479
 9584TIP3    H150243   4.378   1.836  11.311 -0.8694 -0.0883 -0.5096
 9584TIP3    H250244   4.506   1.904  11.353 -1.0643 -0.2485  0.3693
 9585TIP3   OH250245   4.005   3.643   1.997 -0.1137 -0.0545 -0.6893
 9585TIP3    H150246   4.023   3.703   2.069 -1.9073  2.0862 -1.9219
 9585TIP3    H250247   4.092   3.623   1.960  0.8618 -1.3863  2.0881
 9586TIP3   OH250248   4.706   6.750   0.250 -0.1493  0.5859 -0.4646
 9586TIP3    H150249   4.794   6.750   0.214 -0.1627  1.1895 -0.5105
 9586TIP3    H250250   4.655   6.807   0.191 -0.7537 -0.3498 -0.8668
 9587TIP3   OH250251   3.680   3.337  13.992  0.3923 -0.2422  0.0556
 9587TIP3    H150252   3.701   3.430  13.986 -0.4215  0.0009  0.8041
 9587TIP3    H250253   3.710   3.300  13.909 -1.8623  1.2033 -1.4951
 9588TIP3   OH250254   1.189   5.269   3.725  0.4071  0.0044  0.1180
 9588TIP3    H150255   1.259   5.289   3.662  0.6367  0.2742  0.4568
 9588TIP3    H250256   1.218   5.188   3.768  0.6725  0.2977  0.4928
 9589TIP3   OH250257   1.214   6.250   3.241 -0.3590 -0.7230 -0.0134
 9589TIP3    H150258   1.220   6.189   3.167  0.8794  0.6498 -1.1238
 9589TIP3    H250259   1.241   6.199   3.317  0.6217 -1.5844 -0.9088
 9590TIP3   OH250260   3.272   3.175  15.640 -0.3141  0.0668 -0.0353
 9590TIP3    H150261   3.276   3.188  15.545 -0.6429  0.3476 -0.0107
 9590TIP3    H250262   3.318   3.250  15.676  0.0260 -0.1660  0.0224
 9591TIP3   OH250263   4.997   0.955  13.353  0.3148  0.4940 -0.5646
 9591TIP3    H150264   4.962   0.943  13.265  0.2813 -0.6835 -0.4144
 9591TIP3    H250265   4.959   0.883  13.404  2.8415 -0.8170 -0.3701
 9592TIP3   OH250266   6.120   5.911   1.084  0.5433 -0.4652  0.6710
 9592TIP3    H150267   6.040   5.870   1.051 -0.2261  0.4715  1.3073
 9592TIP3    H250268   6.173   5.839   1.118  1.0457 -1.3975 -1.8561
 9593TIP3   OH250269   0.694   2.613  15.021 -0.0961  0.7323 -0.1793
 9593TIP3    H150270   0.692   2.708  15.012  2.8250  1.0469  1.3224
 9593TIP3    H250271   0.715   2.581  14.933 -2.0437  1.3223 -0.9153
 9594TIP3   OH250272   4.497   1.087   0.267 -0.1284  0.7509 -0.1220
 9594TIP3    H150273   4.491   1.046   0.181  2.3044 -0.6144  0.2616
 9594TIP3    H250274   4.448   1.028   0.325 -1.8867  1.7448 -0.5406
 9595TIP3   OH250275   3.213   1.115  13.836 -0.2530 -0.8233 -0.2845
 9595TIP3    H150276   3.216   1.192  13.780  1.3383  1.0752  2.2057
 9595TIP3    H250277   3.125   1.116  13.874 -0.0171  0.1954  0.2554
 9596TIP3   OH250278   4.223   4.049   0.556 -0.1295  0.1626 -0.2794
 9596TIP3    H150279   4.203   3.955   0.558 -0.0076  0.1081 -1.1479
 9596TIP3    H250280   4.159   4.086   0.495 -1.0358  0.8745  1.0598
 9597TIP3   OH250281   0.031   5.776  12.195  0.3332  0.1707 -0.5426
 9597TIP3    H150282   0.020   5.827  12.275  1.9220 -0.1096 -0.1063
 9597TIP3    H250283  -0.003   5.832  12.125 -1.3558  0.2914  0.3439
 9598TIP3   OH250284   2.827   2.745   3.378  0.7190  0.4766  0.5784
 9598TIP3    H150285   2.908   2.765   3.425  2.1771 -0.9338 -1.1918
 9598TIP3    H250286   2.786   2.831   3.364  1.9902  1.2398  1.3162
 9599TIP3   OH250287   0.369   3.810   5.722 -0.2134  0.0556  0.1182
 9599TIP3    H150288   0.314   3.790   5.647 -0.8766  2.0523  0.0305
 9599TIP3    H250289   0.340   3.748   5.790 -2.2932  0.7657 -0.0595
 9600TIP3   OH250290   5.127   3.099   3.853  0.3310 -0.1634 -0.3273
 9600TIP3    H150291   5.215   3.134   3.858  0.3881 -0.2427 -0.7340
 9600TIP3    H250292   5.105   3.102   3.759 -0.0517 -0.2468 -0.2423
 9601TIP3   OH250293   5.957   6.397   4.127  0.6088  0.3698 -0.3099
 9601TIP3    H150294   6.000   6.326   4.078  0.4686 -0.9003  1.3340
 9601TIP3    H250295   6.014   6.412   4.202 -0.1409  0.9816  0.1497
 9602TIP3   OH250296   5.709   4.061   3.691 -0.4098  0.3447 -0.1244
 9602TIP3    H150297   5.654   3.986   3.710 -0.8994  0.1618 -2.0542
 9602TIP3    H250298   5.797   4.035   3.720 -0.7109 -0.6819 -0.1116
 9603TIP3   OH250299   6.737   0.371  13.472 -0.6369 -0.5253 -0.0531
 9603TIP3    H150300   6.752   0.291  13.421  0.4222 -0.2877 -0.1413
 9603TIP3    H250301   6.732   0.441  13.406 -0.4549 -0.3751  0.0906
 9604TIP3   OH250302   1.252   4.165   2.651  0.3716  0.2449  0.2181
 9604TIP3    H150303   1.264   4.253   2.687  0.3760  0.3161  0.0417
 9604TIP3    H250304   1.321   4.156   2.586  0.3215  0.1400  0.1801
 9605TIP3   OH250305   5.931   6.596  14.566 -0.0166  0.2496  0.4106
 9605TIP3    H150306   5.887   6.515  14.542  0.3327 -1.1220  3.8635
 9605TIP3    H250307   5.860   6.657  14.586 -0.3285 -0.3030  1.0171
 9606TIP3   OH250308   1.464   3.025   0.338  0.2794  0.5502  0.0576
 9606TIP3    H150309   1.408   2.948   0.327  0.1081  0.5844  0.6421
 9606TIP3    H250310   1.404   3.094   0.367  0.0431  1.5063 -2.4384
 9607TIP3   OH250311   6.048   5.615   5.889 -0.4977  0.2955 -0.5447
 9607TIP3    H150312   5.967   5.657   5.860 -0.1566  0.2240 -1.6248
 9607TIP3    H250313   6.106   5.689   5.911 -0.3077  0.3786 -1.3090
 9608TIP3   OH250314   3.786   5.761   0.059  0.6387  0.6590 -0.3209
 9608TIP3    H150315   3.731   5.835   0.084 -0.6962  0.1211 -1.5530
 9608TIP3    H250316   3.848   5.798  -0.003  1.5463  1.2074  0.8625
 9609TIP3   OH250317   2.804   5.482  17.066  0.4460 -0.3287 -0.7603
 9609TIP3    H150318   2.729   5.423  17.059  1.1440 -1.1489 -1.7865
 9609TIP3    H250319   2.874   5.426  17.100  0.2551  0.7818  1.6498
 9610TIP3   OH250320   4.483   4.026   3.364 -0.1635 -0.2724  0.2532
 9610TIP3    H150321   4.545   4.084   3.409  1.1376 -0.2392 -1.5171
 9610TIP3    H250322   4.530   3.943   3.355 -0.5500 -0.3956 -0.6794
 9611TIP3   OH250323   0.996   4.144   2.834 -0.4332  0.0824  0.2900
 9611TIP3    H150324   1.062   4.157   2.902 -0.3683 -0.9925  0.4436
 9611TIP3    H250325   0.977   4.233   2.802  1.5326  0.3591 -0.2101
 9612TIP3   OH250326   4.044   3.164   1.436 -0.5702  0.1804  0.7065
 9612TIP3    H150327   4.010   3.191   1.521 -0.6850  0.7590  0.4808
 9612TIP3    H250328   4.096   3.086   1.454  0.3995  0.9965  1.4780
 9613TIP3   OH250329   5.363   1.153  16.622  0.7360  0.1651  0.8372
 9613TIP3    H150330   5.341   1.093  16.551  2.3280 -0.8468  1.1398
 9613TIP3    H250331   5.455   1.135  16.640  1.0326  2.1574  1.4915
 9614TIP3   OH250332   2.377   0.237   2.696 -0.3277 -0.2110 -0.7743
 9614TIP3    H150333   2.428   0.191   2.630  0.0134 -2.0302  0.6813
 9614TIP3    H250334   2.443   0.275   2.755 -0.6375  0.1359 -0.6407
 9615TIP3   OH250335   1.065   0.368   0.888 -0.2175  0.3664  0.4425
 9615TIP3    H150336   1.115   0.446   0.911 -0.1712  0.5529 -0.2571
 9615TIP3    H250337   1.128   0.312   0.843  0.2395 -0.9130  2.5793
 9616TIP3   OH250338   4.724   3.139  15.170  0.0865  0.0190 -0.4667
 9616TIP3    H150339   4.658   3.190  15.123 -0.9530 -0.0077  0.8973
 9616TIP3    H250340   4.786   3.204  15.203  0.3244  0.1151 -1.0819
 9617TIP3   OH250341   0.838   6.103   6.138 -0.4366  0.5934 -0.4045
 9617TIP3    H150342   0.747   6.101   6.108 -1.0998  3.3864  1.0708
 9617TIP3    H250343   0.845   6.029   6.198 -1.4302 -0.2018 -1.2164
 9618TIP3   OH250344   6.223   2.663  15.358 -0.0012  0.4530  0.7652
 9618TIP3    H150345   6.297   2.668  15.297  0.8366 -1.2176  1.5803
 9618TIP3    H250346   6.242   2.731  15.423 -0.4781  1.6847 -0.3242
 9619TIP3   OH250347   1.771   5.292   4.587 -0.4826 -0.5387 -0.3738
 9619TIP3    H150348   1.795   5.231   4.656 -1.2851 -0.2964  0.1292
 9619TIP3    H250349   1.855   5.326   4.555 -0.0915  1.8401  2.7115
 9620TIP3   OH250350   6.461   2.126   5.074  0.1104  0.1775  0.3072
 9620TIP3    H150351   6.516   2.190   5.029 -0.0207  0.1685  0.1362
 9620TIP3    H250352   6.393   2.104   5.011  0.9134 -1.1331 -0.1436
 9621TIP3   OH250353   0.984   6.227  16.315  0.5620  0.3892 -0.5640
 9621TIP3    H150354   0.996   6.158  16.381  1.2156 -0.1565 -1.2423
 9621TIP3    H250355   1.011   6.186  16.233 -0.2092  1.0746 -1.1702
 9622TIP3   OH250356   6.247   1.734   1.665 -0.5118 -0.7982  0.7194
 9622TIP3    H150357   6.216   1.758   1.578  0.4764 -0.0156  0.5666
 9622TIP3    H250358   6.341   1.754   1.664 -0.5740 -0.3062  2.1116
 9623TIP3   OH250359   6.797   1.439  13.253  0.7202 -0.3162  0.1484
 9623TIP3    H150360   6.854   1.402  13.185  2.3742  1.0451  0.7341
 9623TIP3    H250361   6.841   1.418  13.335 -1.5612 -2.4763  0.9563
 9624TIP3   OH250362   3.713   5.464  16.300 -0.3567 -0.3046 -0.1411
 9624TIP3    H150363   3.666   5.427  16.226 -0.6367 -0.0507 -0.0951
 9624TIP3    H250364   3.704   5.559  16.290  0.3439 -0.2417 -0.2549
 9625TIP3   OH250365   6.010   4.795  13.937 -0.8242  0.4742 -0.3539
 9625TIP3    H150366   6.060   4.873  13.962 -4.3551  3.1958 -1.0753
 9625TIP3    H250367   6.067   4.750  13.874  0.7411  3.4033 -1.2147
 9626TIP3   OH250368   5.560   1.165   5.590  0.3782 -0.1620 -0.1923
 9626TIP3    H150369   5.556   1.259   5.573  0.0051 -0.2604 -0.6874
 9626TIP3    H250370   5.494   1.150   5.658 -0.2859 -0.2039 -0.8257
 9627TIP3   OH250371   4.614   6.759  12.432  0.3499  0.1004 -0.1971
 9627TIP3    H150372   4.626   6.689  12.496  2.1380 -1.1396 -1.7963
 9627TIP3    H250373   4.667   6.831  12.466 -0.8202  0.4323  1.0193
 9628TIP3   OH250374   2.185   6.520  15.478 -0.0980  0.2403  0.3207
 9628TIP3    H150375   2.109   6.486  15.525  0.6187  0.9177  2.0711
 9628TIP3    H250376   2.258   6.506  15.539  0.7860  1.6578 -0.3629
 9629TIP3   OH250377   6.663   2.082   5.541 -0.0661 -0.2412 -0.0117
 9629TIP3    H150378   6.579   2.083   5.495 -0.2965 -3.0996  0.1826
 9629TIP3    H250379   6.641   2.094   5.633 -0.5939 -3.0353  0.3119
 9630TIP3   OH250380   4.396   0.493   2.818  0.2514  0.6983  0.0891
 9630TIP3    H150381   4.349   0.480   2.900 -0.7683  1.6854 -0.3142
 9630TIP3    H250382   4.335   0.543   2.764  0.7146 -0.3385 -1.4497
 9631TIP3   OH250383   0.080   2.212  13.474 -0.0408  0.2716  0.1144
 9631TIP3    H150384   0.003   2.226  13.530  0.4836  1.1550  0.6275
 9631TIP3    H250385   0.126   2.296  13.474  1.2263 -0.3964  0.2619
 9632TIP3   OH250386   1.081   1.662   2.749 -0.6553  0.2897 -0.6370
 9632TIP3    H150387   1.133   1.742   2.742 -0.8922  0.4537 -0.4881
 9632TIP3    H250388   1.146   1.591   2.740  0.0372  0.4300  2.2372
 9633TIP3   OH250389   1.010   3.990  12.107 -0.1270 -0.1608 -0.1160
 9633TIP3    H150390   1.058   3.943  12.175 -1.6404 -1.3529  0.1820
 9633TIP3    H250391   0.923   4.002  12.143 -0.0938  1.9898 -0.6265
 9634TIP3   OH250392   5.721   3.435  17.100 -0.3878  0.5829  0.1746
 9634TIP3    H150393   5.767   3.357  17.132 -0.6982  0.1733 -0.3592
 9634TIP3    H250394   5.628   3.411  17.105 -0.4654  0.7802 -0.3470
 9635TIP3   OH250395   5.570   2.619   3.276 -0.3127 -0.7588 -0.0784
 9635TIP3    H150396   5.489   2.669   3.273  1.0751  1.5892 -0.7516
 9635TIP3    H250397   5.567   2.564   3.198 -0.9433 -0.1888 -0.4678
 9636TIP3   OH250398   1.781   2.169  12.341 -0.1822 -0.0359 -0.5209
 9636TIP3    H150399   1.763   2.121  12.260  0.4059 -0.0455 -0.6550
 9636TIP3    H250400   1.809   2.256  12.312 -1.5337  0.5054 -0.2703
 9637TIP3   OH250401   6.482   4.411   3.748 -0.9442  0.0117 -0.1127
 9637TIP3    H150402   6.482   4.316   3.738 -1.7600 -0.0033 -0.0225
 9637TIP3    H250403   6.460   4.444   3.661  0.5096  0.1753 -0.4541
 9638TIP3   OH250404   1.365   4.613  17.211  1.0957  0.0297  0.2286
 9638TIP3    H150405   1.421   4.542  17.241  0.9448 -0.1213  0.1509
 9638TIP3    H250406   1.425   4.679  17.176  1.1311 -1.1845 -2.2069
 9639TIP3   OH250407   3.209   0.463   3.736 -0.3728  0.6727 -0.2847
 9639TIP3    H150408   3.156   0.537   3.764 -1.2288  0.3748 -1.0627
 9639TIP3    H250409   3.248   0.491   3.653 -1.9171 -0.2426 -1.3872
 9640TIP3   OH250410   1.063   4.136  16.754 -0.1914  0.6769  0.3170
 9640TIP3    H150411   1.130   4.080  16.794 -0.0296  1.4399  1.1427
 9640TIP3    H250412   0.983   4.084  16.757  0.0062  0.3975  0.8506
 9641TIP3   OH250413   4.309   5.529  12.344 -0.3824 -1.0816 -0.2792
 9641TIP3    H150414   4.230   5.551  12.393  0.4041  1.2606  0.0882
 9641TIP3    H250415   4.355   5.465  12.399 -0.9716 -0.7915  0.5673
 9642TIP3   OH250416   6.078   4.292  14.472  0.4690  0.3957  0.1796
 9642TIP3    H150417   6.127   4.364  14.432 -1.0966  2.3112  1.5288
 9642TIP3    H250418   6.019   4.335  14.534 -1.2729 -1.9698  0.2888
 9643TIP3   OH250419   2.533   0.460   6.398  0.4760 -0.2982  0.5501
 9643TIP3    H150420   2.587   0.501   6.466 -0.0663  0.6483  0.4355
 9643TIP3    H250421   2.472   0.404   6.445  0.4999 -0.1168  0.7980
 9644TIP3   OH250422   5.998   4.017   3.463  0.0153 -0.7629 -0.2418
 9644TIP3    H150423   5.983   4.101   3.421  0.9910  0.5341  1.8650
 9644TIP3    H250424   5.981   3.952   3.394 -0.2738  1.1417 -2.0460
 9645TIP3   OH250425   4.298   3.549   0.389 -0.3729  0.4401 -0.2752
 9645TIP3    H150426   4.341   3.467   0.414 -0.7959  1.0596  2.8541
 9645TIP3    H250427   4.286   3.541   0.294  3.5575 -1.1833 -0.8354
 9646TIP3   OH250428   0.346   0.783  13.284 -0.3933 -0.2706  0.2791
 9646TIP3    H150429   0.440   0.779  13.301  0.3137  1.6328 -2.5834
 9646TIP3    H250430   0.322   0.693  13.262  1.1541 -0.4742 -0.6924
 9647TIP3   OH250431   1.916   3.707   3.439 -0.9829  0.0882  0.3318
 9647TIP3    H150432   1.851   3.742   3.499 -1.3708 -1.5540  0.9187
 9647TIP3    H250433   1.986   3.674   3.496 -1.8979 -2.6064  0.0575
 9648TIP3   OH250434   5.241   5.420  14.226  0.5299 -0.8501 -0.2222
 9648TIP3    H150435   5.184   5.485  14.183 -1.7299 -2.4946  0.0796
 9648TIP3    H250436   5.210   5.336  14.191  1.4961 -1.9424  1.4580
 9649TIP3   OH250437   0.499   5.040   1.995 -0.6747  0.1576  0.0005
 9649TIP3    H150438   0.433   5.088   1.945 -2.4270 -0.4933  1.5766
 9649TIP3    H250439   0.464   5.037   2.084  1.3081 -0.5819  0.8135
 9650TIP3   OH250440   2.712   6.543   0.318  0.2881 -0.2049  0.7837
 9650TIP3    H150441   2.796   6.514   0.283  0.0181  0.0728 -0.1187
 9650TIP3    H250442   2.692   6.623   0.270  0.6369  1.0685  2.6782
 9651TIP3   OH250443   3.884   4.331   3.611 -0.2662 -0.3188 -0.7193
 9651TIP3    H150444   3.880   4.425   3.592 -1.8717 -0.3082 -0.4602
 9651TIP3    H250445   3.829   4.320   3.688  2.5149 -1.0229  1.3311
 9652TIP3   OH250446   1.948   0.808   4.335 -0.0398  0.6393 -0.3238
 9652TIP3    H150447   2.010   0.763   4.277 -1.7760 -2.1220 -0.2263
 9652TIP3    H250448   2.004   0.848   4.402  1.8547  1.8314 -2.4680
 9653TIP3   OH250449   1.461   1.535   5.014 -0.1296 -0.1549 -0.3861
 9653TIP3    H150450   1.372   1.527   4.982  0.0862 -0.3552 -0.9584
 9653TIP3    H250451   1.509   1.464   4.970  0.1537 -0.5124  0.4732
 9654TIP3   OH250452   4.884   2.906   1.100 -0.1906 -0.0360 -0.8653
 9654TIP3    H150453   4.953   2.905   1.166  0.7310 -0.4528 -1.8208
 9654TIP3    H250454   4.906   2.979   1.043 -1.4030  0.8019 -0.3015
 9655TIP3   OH250455   0.529   0.400  12.825 -0.1365 -0.2649  0.4644
 9655TIP3    H150456   0.483   0.394  12.909 -0.7113 -0.1623  0.1602
 9655TIP3    H250457   0.607   0.346  12.837 -0.1535 -0.1479  1.1077
 9656TIP3   OH250458   4.450   0.143  13.989 -0.2031 -0.1741 -0.2761
 9656TIP3    H150459   4.444   0.168  13.897 -2.7863 -0.0816 -0.1535
 9656TIP3    H250460   4.467   0.225  14.035 -1.7374  0.2819 -0.4679
 9657TIP3   OH250461   0.710   0.016  13.426 -0.3705  0.2884 -0.1295
 9657TIP3    H150462   0.691  -0.042  13.500 -0.1529  0.3061 -0.0594
 9657TIP3    H250463   0.635   0.006  13.368 -0.4984  0.2010  0.0482
 9658TIP3   OH250464   0.354   6.384  14.287  0.2099  0.0963  0.2192
 9658TIP3    H150465   0.297   6.417  14.218  1.4913  0.8895 -0.5061
 9658TIP3    H250466   0.405   6.314  14.245 -0.0519 -0.4449  0.7898
 9659TIP3   OH250467   0.109   4.282   0.360  0.0092 -0.0014  0.2819
 9659TIP3    H150468   0.049   4.272   0.434 -1.0461 -0.8126 -0.6632
 9659TIP3    H250469   0.073   4.226   0.292  1.7779 -0.4038 -0.3648
 9660TIP3   OH250470   1.156   4.226  14.559  0.0070  1.0460 -0.5577
 9660TIP3    H150471   1.061   4.212  14.561  0.1845 -0.1712  0.0109
 9660TIP3    H250472   1.182   4.202  14.470  0.2213 -1.9027  0.2232
 9661TIP3   OH250473   4.072   5.979   0.216  0.0664 -0.2534 -0.1023
 9661TIP3    H150474   4.167   5.979   0.202  0.0242 -0.1066 -0.4072
 9661TIP3    H250475   4.037   6.014   0.134 -0.1182  2.1355  0.9297
 9662TIP3   OH250476   5.799   2.376  16.171  0.3696 -0.0397 -0.7462
 9662TIP3    H150477   5.760   2.403  16.254 -1.7451  0.1321 -1.7471
 9662TIP3    H250478   5.810   2.281  16.180  3.4910  0.3290  0.9890
 9663TIP3   OH250479   1.785   1.015   2.985  0.5199  0.6331  0.1163
 9663TIP3    H150480   1.789   1.070   3.064 -1.0190  1.2609 -0.2230
 9663TIP3    H250481   1.807   0.928   3.017 -1.0089  0.6919  1.4574
 9664TIP3   OH250482   4.532   0.253   5.819  0.0142  0.3357 -0.0361
 9664TIP3    H150483   4.463   0.208   5.868  1.1290  0.1360  1.3846
 9664TIP3    H250484   4.492   0.336   5.792 -0.9002  0.0568  0.4298
 9665TIP3   OH250485   3.606   4.695   4.314  0.5767  0.0155  0.2575
 9665TIP3    H150486   3.534   4.748   4.349 -0.1875 -0.8519  0.0204
 9665TIP3    H250487   3.568   4.609   4.298  1.5185 -0.2965 -0.4304
 9666TIP3   OH250488   1.822   2.432   6.085 -0.0915  0.3242 -0.1968
 9666TIP3    H150489   1.819   2.499   6.153 -0.4315 -1.4571  1.6522
 9666TIP3    H250490   1.860   2.356   6.129 -0.7764 -1.0388 -1.8714
 9667TIP3   OH250491   0.830   1.984   5.818 -0.4129  0.5213  0.4862
 9667TIP3    H150492   0.751   1.991   5.873 -0.0726  0.5115  0.9797
 9667TIP3    H250493   0.900   2.019   5.873  0.1856 -0.7937  0.5772
 9668TIP3   OH250494   3.676   6.087  14.929  0.2966  0.4454  0.1120
 9668TIP3    H150495   3.652   6.159  14.869  3.1193  1.6271  0.2528
 9668TIP3    H250496   3.674   6.009  14.874 -3.1095  0.4340  0.0155
 9669TIP3   OH250497   1.357   6.555   4.042  0.0668 -0.2110  1.2351
 9669TIP3    H150498   1.299   6.486   4.010  0.6056 -0.5333  0.9390
 9669TIP3    H250499   1.382   6.526   4.130  0.8645 -0.7587  0.8350
 9670TIP3   OH250500   3.617   3.786  16.820 -0.2488  0.5982  0.5597
 9670TIP3    H150501   3.650   3.875  16.808  1.3907 -0.1931 -1.5636
 9670TIP3    H250502   3.566   3.769  16.741  2.6349 -1.5263 -1.0893
 9671TIP3   OH250503   1.769   3.554   2.652  0.1447  0.0424  0.2022
 9671TIP3    H150504   1.772   3.528   2.560  1.1744 -1.6314  0.6558
 9671TIP3    H250505   1.682   3.526   2.682 -0.2228  0.6637 -0.2678
 9672TIP3   OH250506   5.028   5.358  12.099 -0.0866 -0.2385  0.3884
 9672TIP3    H150507   5.047   5.437  12.049  0.9732 -0.6007  0.2101
 9672TIP3    H250508   5.012   5.291  12.033  1.3084 -0.7175  0.5082
 9673TIP3   OH250509   4.512   4.692  14.976 -0.2206 -0.0038  0.3828
 9673TIP3    H150510   4.577   4.690  14.907 -0.9804 -1.1605 -0.3247
 9673TIP3    H250511   4.450   4.760  14.949 -0.7762 -0.7746 -0.3491
 9674TIP3   OH250512   0.483   3.731   5.091  0.2459 -0.3286  0.6088
 9674TIP3    H150513   0.473   3.691   5.004 -3.5076 -2.4752  1.7772
 9674TIP3    H250514   0.393   3.742   5.122  1.4155  1.5961  3.7389
 9675TIP3   OH250515   4.811   5.035  16.750  0.1166  0.0623  0.1887
 9675TIP3    H150516   4.800   5.099  16.820  1.6713  0.1567  0.3745
 9675TIP3    H250517   4.775   5.078  16.672 -1.3730  0.0592  0.8420
 9676TIP3   OH250518   3.187   2.887   5.201 -0.6544 -0.5520 -0.0136
 9676TIP3    H150519   3.113   2.932   5.241 -0.3582  1.2238 -1.3421
 9676TIP3    H250520   3.195   2.927   5.115  2.7191  0.3829  0.5867
 9677TIP3   OH250521   0.106   4.497   1.589  0.3777 -0.1901 -0.4008
 9677TIP3    H150522   0.132   4.581   1.626  1.1768 -0.5396 -0.1367
 9677TIP3    H250523   0.023   4.514   1.544 -0.7130  0.2078  1.6600
 9678TIP3   OH250524   6.423   5.095   2.917  0.0841  0.3039  0.2366
 9678TIP3    H150525   6.329   5.082   2.906  0.3508 -0.2839 -1.8387
 9678TIP3    H250526   6.440   5.182   2.881  0.5170 -0.1978 -0.8168
 9679TIP3   OH250527   1.127   2.237   1.759  0.1634  0.0777  0.4621
 9679TIP3    H150528   1.131   2.197   1.672  0.8417  0.6555  0.2122
 9679TIP3    H250529   1.048   2.201   1.799  0.1171 -0.5796 -0.2025
 9680TIP3   OH250530   2.130   4.810   4.191  0.0976 -0.0191  0.4249
 9680TIP3    H150531   2.063   4.781   4.129 -0.0250  0.5862  0.2668
 9680TIP3    H250532   2.165   4.729   4.228 -2.8110 -0.3701  2.7920
 9681TIP3   OH250533   5.029   2.053  17.169 -0.2801  0.0156 -0.2498
 9681TIP3    H150534   4.945   2.095  17.152 -0.8311 -0.7252  0.5516
 9681TIP3    H250535   5.025   2.028  17.262  0.7512 -0.1990 -0.2465
 9682TIP3   OH250536   2.417   6.514   0.181 -0.1747 -0.1019  0.4426
 9682TIP3    H150537   2.375   6.523   0.266  0.1896 -1.0941  0.7342
 9682TIP3    H250538   2.506   6.547   0.195  0.6550 -2.4305  1.1011
 9683TIP3   OH250539   4.162   6.337  14.685  0.2513 -0.5774 -0.5041
 9683TIP3    H150540   4.219   6.365  14.756  1.1588 -1.2711 -0.9387
 9683TIP3    H250541   4.073   6.344  14.721  0.5615  0.9431  0.0344
 9684TIP3   OH250542   3.773   5.562   5.065  0.4018 -0.6756 -0.8004
 9684TIP3    H150543   3.857   5.528   5.033  1.2965  1.6032 -1.0436
 9684TIP3    H250544   3.735   5.607   4.989 -0.7573 -1.1063 -0.5035
 9685TIP3   OH250545   2.737   6.070  15.126 -0.7643 -0.2604 -0.7682
 9685TIP3    H150546   2.703   6.129  15.193 -0.2650 -1.6507  0.7778
 9685TIP3    H250547   2.826   6.102  15.109 -0.7886 -0.0716 -0.5462
 9686TIP3   OH250548   2.322   4.747  12.292 -0.3908  0.8828 -0.8177
 9686TIP3    H150549   2.275   4.814  12.242 -1.5729 -0.4105 -1.5332
 9686TIP3    H250550   2.294   4.664  12.253 -0.6693 -0.1590  1.4164
 9687TIP3   OH250551   0.702   1.991   2.860 -0.8506  0.2073 -0.3991
 9687TIP3    H150552   0.751   2.053   2.914 -0.8327 -0.5444  0.4688
 9687TIP3    H250553   0.614   2.030   2.855 -0.6911  0.5852 -0.3263
 9688TIP3   OH250554   3.587   5.106  10.456  0.0940  0.3231 -0.4402
 9688TIP3    H150555   3.560   5.152  10.377  2.5042 -0.3706 -1.7537
 9688TIP3    H250556   3.605   5.175  10.520 -1.6379  0.8950 -0.5373
 9689TIP3   OH250557   4.739   4.513   4.498 -0.1503 -0.1022  0.1083
 9689TIP3    H150558   4.681   4.448   4.537  2.2897 -1.1530  2.2423
 9689TIP3    H250559   4.762   4.572   4.570  1.4810  0.2250 -0.6302
 9690TIP3   OH250560   0.042   3.124  14.692 -0.3277  0.5992  0.0495
 9690TIP3    H150561   0.124   3.145  14.738  0.4777  0.1072 -1.1059
 9690TIP3    H250562   0.057   3.155  14.603 -0.6917 -1.1368 -0.6346
 9691TIP3   OH250563   4.212   5.714  15.992  0.3069  0.2311  0.1242
 9691TIP3    H150564   4.176   5.693  15.906  0.6000 -3.1470  0.6516
 9691TIP3    H250565   4.306   5.722  15.978  0.3102  0.0682  0.0474
 9692TIP3   OH250566   3.289   2.648  16.661  0.2602  0.1011 -0.3088
 9692TIP3    H150567   3.203   2.687  16.678  0.6592  1.0702 -0.4376
 9692TIP3    H250568   3.285   2.617  16.571 -0.5811 -1.5896  0.2789
 9693TIP3   OH250569   6.509   4.920  16.626 -0.3497  0.0800  0.3922
 9693TIP3    H150570   6.599   4.952  16.631 -0.2286 -0.2461  0.2786
 9693TIP3    H250571   6.463   4.969  16.695 -0.0422  0.1021  0.5853
 9694TIP3   OH250572   4.004   0.111  12.970  0.4547  0.1130  0.1792
 9694TIP3    H150573   4.000   0.169  13.045 -0.1591 -1.9580  1.8419
 9694TIP3    H250574   3.933   0.140  12.913  0.3709  1.1715  0.8017
 9695TIP3   OH250575   0.779   0.348   0.966 -0.3670  0.5215  0.4485
 9695TIP3    H150576   0.870   0.325   0.949  0.0174  1.7474  0.7523
 9695TIP3    H250577   0.775   0.442   0.949 -0.9782  0.9696  2.8331
 9696TIP3   OH250578   0.600   2.121   1.438 -0.5476  0.4163  0.1422
 9696TIP3    H150579   0.665   2.123   1.508 -0.6174  1.9448  0.1956
 9696TIP3    H250580   0.635   2.180   1.371 -1.9441  1.4212  0.2561
 9697TIP3   OH250581   4.581   1.743  15.419 -0.3525  0.3820 -0.0032
 9697TIP3    H150582   4.577   1.782  15.332  0.3675  3.5275  1.2136
 9697TIP3    H250583   4.666   1.771  15.454 -1.6897  1.6123  2.6294
 9698TIP3   OH250584   6.468   0.726   2.622 -0.3418 -0.4043 -0.4363
 9698TIP3    H150585   6.495   0.773   2.543 -1.8085 -1.9065 -1.8916
 9698TIP3    H250586   6.538   0.662   2.637  0.0075 -0.0232 -0.4118
 9699TIP3   OH250587   3.599   6.615   5.785 -0.2029  0.7689 -0.2441
 9699TIP3    H150588   3.675   6.591   5.732 -0.4080 -0.0677 -0.1758
 9699TIP3    H250589   3.618   6.578   5.871 -0.8070  0.3130 -0.2986
 9700TIP3   OH250590   0.950   1.721   4.336  0.0342 -0.2888  0.3254
 9700TIP3    H150591   0.889   1.691   4.403 -0.3070  1.5051  0.8698
 9700TIP3    H250592   1.005   1.786   4.380  2.0705 -1.5005 -0.2647
 9701TIP3   OH250593   5.417   6.400  12.236 -0.3949 -0.1101  0.3965
 9701TIP3    H150594   5.352   6.338  12.269 -1.6070 -0.5623 -2.5108
 9701TIP3    H250595   5.483   6.346  12.192  1.4751  0.4166  2.3837
 9702TIP3   OH250596   0.776   3.673   4.672 -0.2590  0.0329 -0.1306
 9702TIP3    H150597   0.834   3.664   4.748  0.2502  2.2068 -0.1953
 9702TIP3    H250598   0.738   3.586   4.661 -0.3217 -0.3834  2.5815
 9703TIP3   OH250599   5.405   3.783  16.052 -0.3001 -0.4020  0.4648
 9703TIP3    H150600   5.375   3.814  16.137 -1.2600  0.0662 -0.0324
 9703TIP3    H250601   5.464   3.852  16.022  0.8181 -1.0222  1.1577
 9704TIP3   OH250602   2.661   0.867   2.365  0.0123  0.4373  0.0424
 9704TIP3    H150603   2.646   0.961   2.364  1.1836  0.6394  0.5455
 9704TIP3    H250604   2.581   0.831   2.404  0.7390  1.4839  2.7176
 9705TIP3   OH250605   4.964   6.611  16.088  0.0535 -0.2169 -0.2890
 9705TIP3    H150606   4.931   6.698  16.109 -1.3981 -0.5982 -0.8375
 9705TIP3    H250607   4.945   6.600  15.995  1.7033 -0.5080 -0.6229
 9706TIP3   OH250608   2.719   0.967  16.609 -0.1582 -0.0342 -0.0070
 9706TIP3    H150609   2.703   0.878  16.641 -0.4346 -0.2157 -0.6350
 9706TIP3    H250610   2.810   0.985  16.632 -0.5345  0.0911  1.4436
 9707TIP3   OH250611   5.463   2.746  15.857 -0.1872  0.4737  0.4173
 9707TIP3    H150612   5.519   2.670  15.870 -1.6770 -0.7069  0.2226
 9707TIP3    H250613   5.421   2.760  15.942  1.4983  2.3199  1.0094
 9708TIP3   OH250614   6.712   3.545  16.817 -0.0981 -0.3489  0.1799
 9708TIP3    H150615   6.621   3.525  16.792 -0.1227 -0.2629  0.2001
 9708TIP3    H250616   6.723   3.637  16.794  0.1306 -0.4797 -0.2592
 9709TIP3   OH250617   3.926   3.305  16.490 -0.4108  0.0156  0.4502
 9709TIP3    H150618   3.842   3.338  16.520 -0.6647 -0.1344 -0.1009
 9709TIP3    H250619   3.980   3.384  16.480 -0.1601  0.0426  1.7589
 9710TIP3   OH250620   0.565   2.463  14.598 -0.4661  0.5774  0.2833
 9710TIP3    H150621   0.515   2.381  14.601 -0.9983  0.9022  0.5339
 9710TIP3    H250622   0.512   2.521  14.542 -0.0082  0.6962 -0.0363
 9711TIP3   OH250623   2.319   6.119  15.695  0.5299 -0.1560  0.8505
 9711TIP3    H150624   2.225   6.100  15.701  0.4839  0.2207  1.4504
 9711TIP3    H250625   2.332   6.191  15.756  1.2970 -0.5134  1.1204
 9712TIP3   OH250626   2.912   6.365   6.258 -0.0875 -0.5283  0.0711
 9712TIP3    H150627   2.915   6.272   6.280  0.0083 -0.4779  0.2766
 9712TIP3    H250628   2.821   6.381   6.233  0.0436 -0.8172 -0.6040
 9713TIP3   OH250629   5.848   2.313   1.803  0.5923 -0.0837 -0.1586
 9713TIP3    H150630   5.857   2.225   1.768 -1.7344 -0.2843 -0.4649
 9713TIP3    H250631   5.786   2.356   1.743 -0.8735  0.6607  1.7713
 9714TIP3   OH250632   4.237   5.281   5.452  0.3147 -0.0511 -0.4167
 9714TIP3    H150633   4.185   5.274   5.532  2.7181 -0.7065  1.1725
 9714TIP3    H250634   4.215   5.368   5.418 -0.9038  0.1692  0.8246
 9715TIP3   OH250635   0.911   1.123  16.960 -0.2828  0.5664 -0.6576
 9715TIP3    H150636   0.932   1.214  16.940 -1.9510  0.7378 -1.8683
 9715TIP3    H250637   0.864   1.127  17.043 -1.6177  1.0196 -1.4059
 9716TIP3   OH250638   2.142   3.239  10.628  0.0779  0.4166  0.2199
 9716TIP3    H150639   2.049   3.237  10.603  0.1741 -1.1330 -0.1323
 9716TIP3    H250640   2.185   3.289  10.559 -0.5700  1.7821  0.7600
 9717TIP3   OH250641   2.150   6.306   5.546 -0.2447  0.5227  0.3095
 9717TIP3    H150642   2.180   6.224   5.504 -1.7320  1.3273 -2.5832
 9717TIP3    H250643   2.057   6.293   5.560 -0.2848  1.3356  0.8486
 9718TIP3   OH250644   1.738   6.597  13.262  0.1923 -0.2149 -0.0348
 9718TIP3    H150645   1.655   6.566  13.225 -0.7284  0.6079  1.2650
 9718TIP3    H250646   1.717   6.682  13.300  2.0187  0.7482 -1.0612
 9719TIP3   OH250647   4.837   1.211  15.115 -0.0390  0.4138  0.4472
 9719TIP3    H150648   4.932   1.209  15.101 -0.1289  1.6689 -0.4436
 9719TIP3    H250649   4.819   1.298  15.149 -0.6118 -0.5857  3.0132
 9720TIP3   OH250650   2.485   6.429  14.307 -0.2930 -0.3699  0.6276
 9720TIP3    H150651   2.403   6.479  14.306 -2.0001 -2.9729 -0.0441
 9720TIP3    H250652   2.510   6.426  14.399 -0.3494  1.3082  0.7333
 9721TIP3   OH250653   5.804   5.257   0.609 -0.3117  0.0841  0.0559
 9721TIP3    H150654   5.806   5.308   0.528 -1.0895  1.7579  1.0279
 9721TIP3    H250655   5.711   5.243   0.626 -0.3218  1.9587  1.9191
 9722TIP3   OH250656   4.041   3.167  13.086  0.1018  0.5302  0.0771
 9722TIP3    H150657   4.041   3.076  13.055  1.4801  1.0585 -1.6323
 9722TIP3    H250658   4.108   3.170  13.154 -0.3680  0.1591  0.5669
 9723TIP3   OH250659   3.408   6.422  16.012  0.1618  0.6736 -0.1414
 9723TIP3    H150660   3.376   6.336  16.040 -1.1473  0.8576 -0.9582
 9723TIP3    H250661   3.328   6.473  15.998  0.7129  0.8730 -3.2326
 9724TIP3   OH250662   1.812   6.266  14.019 -0.0661 -0.2679  0.3931
 9724TIP3    H150663   1.828   6.226  13.933 -2.3962  1.1216 -0.7844
 9724TIP3    H250664   1.772   6.196  14.071 -0.6988 -0.5275 -0.4172
 9725TIP3   OH250665   2.518   3.789   5.322 -0.7852  0.0133 -0.4362
 9725TIP3    H150666   2.593   3.848   5.329 -0.3799 -0.4885 -0.5728
 9725TIP3    H250667   2.444   3.848   5.306 -0.3839  0.4867 -0.5860
 9726TIP3   OH250668   2.911   4.016   5.069  0.2638 -0.1546 -0.3224
 9726TIP3    H150669   2.821   3.986   5.083  0.3768 -0.1586  0.4436
 9726TIP3    H250670   2.910   4.108   5.094  1.1513 -0.9005  2.8215
 9727TIP3   OH250671   6.020   4.769  12.555  0.2592 -0.1397  0.0413
 9727TIP3    H150672   5.986   4.693  12.507  1.3400 -0.9278  0.4928
 9727TIP3    H250673   6.070   4.818  12.489  1.1571 -0.8498  0.1771
 9728TIP3   OH250674   4.349   6.108  12.156 -0.3686  0.8414 -0.1596
 9728TIP3    H150675   4.384   6.142  12.238  0.4273 -0.0655 -0.1171
 9728TIP3    H250676   4.426   6.083  12.105 -0.8697  1.0326 -1.0325
 9729TIP3   OH250677   0.513   5.054   0.636 -0.4082 -0.3203 -0.2694
 9729TIP3    H150678   0.498   5.144   0.668 -1.6220 -0.0390 -1.5355
 9729TIP3    H250679   0.571   5.065   0.561  0.0971 -0.6941  0.0594
 9730TIP3   OH250680   5.127   5.423   0.667 -0.0559 -0.5053 -0.3259
 9730TIP3    H150681   5.184   5.402   0.742  0.7854  1.0073 -0.5013
 9730TIP3    H250682   5.098   5.513   0.684 -1.3789 -0.8067 -0.8985
 9731TIP3   OH250683   2.926   1.860  13.778  0.4931  0.6550  0.5659
 9731TIP3    H150684   2.844   1.857  13.730  0.9838 -1.3471 -0.2610
 9731TIP3    H250685   2.910   1.808  13.856  0.7967  0.7621  0.6999
 9732TIP3   OH250686   5.900   0.855   4.057 -0.2850 -0.0575 -0.5393
 9732TIP3    H150687   5.914   0.820   3.968 -1.8904 -0.5072 -0.6552
 9732TIP3    H250688   5.857   0.939   4.043 -1.5577 -0.6248 -0.2091
 9733TIP3   OH250689   5.910   2.690  17.107  0.6876 -0.7117  0.3299
 9733TIP3    H150690   5.837   2.700  17.045  0.9294 -1.6233 -0.1293
 9733TIP3    H250691   5.873   2.639  17.179  0.3662  0.4810  1.0195
 9734TIP3   OH250692   4.399   1.946   1.132 -0.4662 -0.5009  0.1268
 9734TIP3    H150693   4.351   1.930   1.213  0.4378 -2.6349  0.3001
 9734TIP3    H250694   4.491   1.937   1.155  0.1942  3.5214 -0.2035
 9735TIP3   OH250695   6.431   1.923  15.084  0.2845  0.0951 -0.0182
 9735TIP3    H150696   6.467   1.955  15.001  0.7385  0.0343  0.1503
 9735TIP3    H250697   6.414   2.002  15.135  0.4185  0.1138 -0.0020
 9736TIP3   OH250698   5.452   4.486   5.130 -0.4580 -0.3543  0.7942
 9736TIP3    H150699   5.475   4.393   5.133  0.2428 -0.2279 -0.3631
 9736TIP3    H250700   5.451   4.508   5.037  0.0815  0.9690  1.0841
 9737TIP3   OH250701   1.000   6.686   3.955 -0.2939  0.2593 -0.3065
 9737TIP3    H150702   1.006   6.774   3.992 -0.4650  0.6173 -1.1055
 9737TIP3    H250703   0.923   6.689   3.898 -3.1989 -1.6885  3.0877
 9738TIP3   OH250704   4.058   0.389   5.122  0.0139  0.3384 -0.0251
 9738TIP3    H150705   4.053   0.435   5.206  0.2756 -0.5364  0.4735
 9738TIP3    H250706   4.011   0.307   5.136  2.7386 -1.2840  0.2496
 9739TIP3   OH250707   2.690   0.152  12.148  0.1070 -0.2918  0.2332
 9739TIP3    H150708   2.616   0.092  12.153  0.4910 -0.7462  0.6951
 9739TIP3    H250709   2.696   0.177  12.056  0.6212 -1.8506 -0.1900
 9740TIP3   OH250710   5.559   5.041  13.919 -0.0324 -0.1304  0.0198
 9740TIP3    H150711   5.589   4.953  13.941 -0.2395 -0.4473 -0.9326
 9740TIP3    H250712   5.607   5.064  13.840 -0.8621  0.1328 -0.4179
 9741TIP3   OH250713   0.016   5.564  16.975  0.3017 -0.3044 -0.0123
 9741TIP3    H150714   0.010   5.523  16.889 -0.1255 -0.1234 -0.0748
 9741TIP3    H250715   0.003   5.492  17.037 -4.1460  0.1160 -0.1244
 9742TIP3   OH250716   2.258   1.184  11.556  0.0462 -0.1716 -0.2821
 9742TIP3    H150717   2.225   1.192  11.467  0.7578 -0.4783 -0.5826
 9742TIP3    H250718   2.232   1.265  11.599 -0.8495 -0.2893 -0.5789
 9743TIP3   OH250719   1.090   5.765  13.655 -0.0344 -0.4181 -0.1273
 9743TIP3    H150720   1.036   5.697  13.614  0.7685 -0.2687 -1.4933
 9743TIP3    H250721   1.177   5.725  13.662 -0.3251 -0.7751  2.3567
 9744TIP3   OH250722   5.754   6.283   0.390  0.1052  0.0092  0.6869
 9744TIP3    H150723   5.806   6.355   0.425 -0.1723 -0.4529  2.1013
 9744TIP3    H250724   5.691   6.262   0.459  0.1200 -1.5357  0.2785
 9745TIP3   OH250725   0.386   3.112   4.398  0.6811  0.1543  0.3668
 9745TIP3    H150726   0.309   3.089   4.449  0.1253 -1.9053 -1.2653
 9745TIP3    H250727   0.364   3.197   4.359 -0.8426 -0.4511 -0.1620
 9746TIP3   OH250728   1.880   6.156   0.434  0.0564  0.0763 -0.2465
 9746TIP3    H150729   1.877   6.167   0.529  1.9723 -0.9272 -0.0190
 9746TIP3    H250730   1.897   6.244   0.399  0.4751  0.2718  0.4371
 9747TIP3   OH250731   2.300   0.650  15.628  0.1178  0.1497  0.4154
 9747TIP3    H150732   2.234   0.627  15.562  0.0040 -1.6184  1.0930
 9747TIP3    H250733   2.379   0.605  15.599  0.7350  1.3105  0.2421
 9748TIP3   OH250734   6.479   3.449  16.439  0.1102 -0.1947  0.0102
 9748TIP3    H150735   6.505   3.480  16.526 -0.8085 -1.0703  0.6178
 9748TIP3    H250736   6.514   3.360  16.434 -0.9658 -0.6282  0.0150
 9749TIP3   OH250737   5.639   4.157   1.120 -0.1872  0.4475  0.1089
 9749TIP3    H150738   5.550   4.191   1.128  0.1711  1.3844  0.3226
 9749TIP3    H250739   5.633   4.089   1.054 -0.8419  1.3544 -0.8045
 9750TIP3   OH250740   4.384   0.338   1.096 -0.3034  0.4056 -0.3967
 9750TIP3    H150741   4.334   0.419   1.087 -3.4009 -1.5826 -2.8791
 9750TIP3    H250742   4.464   0.354   1.046 -0.6278  2.0688 -0.4356
 9751TIP3   OH250743   5.811   1.090   3.777  0.6616 -0.2562 -0.3318
 9751TIP3    H150744   5.894   1.094   3.729 -0.1122  0.7283 -1.6539
 9751TIP3    H250745   5.751   1.044   3.718  0.1458 -0.6109  0.4446
 9752TIP3   OH250746   5.647   5.801   2.849 -0.4250 -0.1066 -0.2186
 9752TIP3    H150747   5.642   5.759   2.763 -1.4002  0.8201 -0.6365
 9752TIP3    H250748   5.711   5.871   2.838 -1.3686  0.7353 -0.5394
 9753TIP3   OH250749   6.196   3.843   3.977 -0.4118 -0.8761  0.0040
 9753TIP3    H150750   6.243   3.826   4.059 -1.0609 -0.3464  0.4939
 9753TIP3    H250751   6.118   3.892   4.004 -0.1852  0.0818 -1.0139
 9754TIP3   OH250752   6.608   2.332   4.928 -0.0406 -0.4828  0.2618
 9754TIP3    H150753   6.572   2.356   4.843 -0.4441 -1.7361  0.0632
 9754TIP3    H250754   6.646   2.414   4.962 -1.4121  0.4361 -0.3407
 9755TIP3   OH250755   5.147   1.828   4.470 -0.3980 -0.3161 -0.4031
 9755TIP3    H150756   5.225   1.864   4.428  0.1363 -0.2233  0.6437
 9755TIP3    H250757   5.074   1.878   4.433  0.1453  0.4030 -0.5217
 9756TIP3   OH250758   3.037   1.759  17.141 -0.6416  0.8773  0.4707
 9756TIP3    H150759   2.974   1.732  17.074  1.8650 -1.1328 -1.2474
 9756TIP3    H250760   3.083   1.833  17.102  0.3910  0.1183  0.2355
 9757TIP3   OH250761   6.514   6.265  12.085  0.1583 -0.5342  0.5724
 9757TIP3    H150762   6.579   6.305  12.027 -1.5163  1.1054 -0.3174
 9757TIP3    H250763   6.457   6.216  12.026 -0.7779  0.0448  0.9728
 9758TIP3   OH250764   4.364   2.457   5.272 -0.2393 -0.1626  0.0294
 9758TIP3    H150765   4.271   2.467   5.290 -0.2713 -0.7305  0.2234
 9758TIP3    H250766   4.368   2.424   5.182 -0.2259 -0.1301  0.0179
 9759TIP3   OH250767   3.808   5.473   4.390  0.2079 -0.0210  0.4961
 9759TIP3    H150768   3.859   5.540   4.345 -0.5466 -0.2673 -0.7880
 9759TIP3    H250769   3.736   5.453   4.329  0.8979 -2.6353  0.4258
 9760TIP3   OH250770   1.343   2.389   0.815  0.1832  0.3059  0.1037
 9760TIP3    H150771   1.254   2.354   0.803  0.0796  0.5465  0.1596
 9760TIP3    H250772   1.400   2.313   0.808  0.0097  0.2205 -0.4044
 9761TIP3   OH250773   5.875   1.162  12.628 -0.0517 -0.0379  0.0612
 9761TIP3    H150774   5.884   1.254  12.603 -0.3800 -0.0662 -0.1692
 9761TIP3    H250775   5.922   1.114  12.560 -0.6316 -0.0913 -0.3156
 9762TIP3   OH250776   1.816   0.128  11.704 -0.1200  0.5556 -0.0197
 9762TIP3    H150777   1.855   0.214  11.693  0.7772 -0.0090 -1.5859
 9762TIP3    H250778   1.891   0.068  11.706 -0.7437 -0.2263  0.7046
 9763TIP3   OH250779   0.096   1.145   2.479 -0.2795 -0.3651  0.7785
 9763TIP3    H150780   0.062   1.189   2.402  0.1834 -0.3486  0.5816
 9763TIP3    H250781   0.019   1.130   2.534 -0.9942 -2.4564 -0.6893
 9764TIP3   OH250782   1.046   1.165   5.027 -0.2593 -0.4040 -0.1105
 9764TIP3    H150783   0.956   1.165   5.057 -0.7787 -1.6297 -1.5531
 9764TIP3    H250784   1.089   1.098   5.080 -0.8101 -1.5079 -1.0103
 9765TIP3   OH250785   3.098   4.117  14.868 -0.0290  0.2188 -0.4592
 9765TIP3    H150786   3.143   4.060  14.931 -1.5931  0.3905  0.8992
 9765TIP3    H250787   3.131   4.090  14.783  1.4410 -0.7076  0.3571
 9766TIP3   OH250788   2.460   4.810  17.112  0.6758  0.0833 -0.3768
 9766TIP3    H150789   2.479   4.717  17.098  2.2384  0.3419 -0.1659
 9766TIP3    H250790   2.507   4.833  17.192  0.3524  1.0781 -0.4566
 9767TIP3   OH250791   2.911   0.157  11.589 -0.0313 -0.1148 -0.8203
 9767TIP3    H150792   2.902   0.167  11.494 -2.6150  1.6016 -0.5008
 9767TIP3    H250793   2.867   0.074  11.609 -0.8292  0.2500 -1.0103
 9768TIP3   OH250794   5.669   0.377  12.153  0.6427 -0.2368  0.0409
 9768TIP3    H150795   5.656   0.469  12.133  0.8365 -0.2066  0.0538
 9768TIP3    H250796   5.628   0.365  12.239 -0.0358 -0.3293 -0.2876
 9769TIP3   OH250797   2.275   1.329   3.354  0.0108  0.1256  0.4659
 9769TIP3    H150798   2.340   1.306   3.289  1.7687 -1.2615  2.5711
 9769TIP3    H250799   2.309   1.294   3.436 -2.3129  1.3423  2.0827
 9770TIP3   OH250800   1.946   6.143   3.424 -0.2753 -0.2065  0.6287
 9770TIP3    H150801   1.889   6.149   3.347 -0.0965 -1.0066  0.4319
 9770TIP3    H250802   1.989   6.058   3.416  2.6471  1.2468 -0.3850
 9771TIP3   OH250803   0.801   4.798  14.363  0.2332 -0.5204 -0.3966
 9771TIP3    H150804   0.822   4.845  14.444 -0.4170 -0.9527  0.0337
 9771TIP3    H250805   0.885   4.764  14.333  0.3915 -0.8872  0.4390
 9772TIP3   OH250806   0.886   0.385  12.873  0.0981 -1.4790 -0.1852
 9772TIP3    H150807   0.881   0.481  12.870  1.7365 -1.2128  2.5376
 9772TIP3    H250808   0.928   0.361  12.790 -2.4271 -0.1294 -1.9727
 9773TIP3   OH250809   0.430   3.977  12.562  0.1238  0.1102 -0.3867
 9773TIP3    H150810   0.447   3.928  12.481 -1.2293 -2.8380  0.9662
 9773TIP3    H250811   0.336   3.998  12.557  0.5358  2.0194 -0.6026
 9774TIP3   OH250812   5.646   6.279  10.745  0.0001  1.0182 -0.1511
 9774TIP3    H150813   5.688   6.226  10.813  2.2583  1.3942 -1.1439
 9774TIP3    H250814   5.553   6.256  10.750  0.5421 -1.2115  1.0495
 9775TIP3   OH250815   0.219   4.133   4.728  0.1416  0.1780 -0.0490
 9775TIP3    H150816   0.215   4.229   4.719 -2.0290  0.0527 -1.0980
 9775TIP3    H250817   0.247   4.119   4.818  0.8570  1.7902  0.0274
 9776TIP3   OH250818   0.967   4.102  13.455 -0.1290 -0.0938 -0.2337
 9776TIP3    H150819   1.035   4.046  13.417  0.4076 -0.1129  0.7342
 9776TIP3    H250820   0.956   4.172  13.390 -1.7479 -1.9448 -2.1028
 9777TIP3   OH250821   4.715   3.394  14.698  0.3417  0.2095 -0.1014
 9777TIP3    H150822   4.641   3.444  14.666 -0.4986 -0.4799  0.7109
 9777TIP3    H250823   4.770   3.380  14.621  0.6113  2.3490 -0.3560
 9778TIP3   OH250824   6.715   3.644  12.235 -0.5956  0.5252  0.1759
 9778TIP3    H150825   6.761   3.676  12.157 -0.6017 -0.1923 -0.1288
 9778TIP3    H250826   6.623   3.663  12.218 -0.9638 -2.0203 -1.2481
 9779TIP3   OH250827   6.369   2.651  11.621 -0.2914 -0.1241  0.5226
 9779TIP3    H150828   6.401   2.561  11.618  2.6833  0.7079  2.3038
 9779TIP3    H250829   6.280   2.644  11.656 -1.2894 -2.4714 -2.0930
 9780TIP3   OH250830   6.070   0.806   2.589 -0.1274  0.0602 -0.7605
 9780TIP3    H150831   5.982   0.770   2.602 -0.1982  1.0115  2.0635
 9780TIP3    H250832   6.075   0.879   2.651  2.7629 -0.1675 -0.6088
 9781TIP3   OH250833   6.156   6.373   4.584 -0.0747  0.2888 -0.2066
 9781TIP3    H150834   6.079   6.410   4.628 -0.5903  0.6736 -1.4041
 9781TIP3    H250835   6.167   6.286   4.623 -0.0490  0.9047  1.2265
 9782TIP3   OH250836   5.310   2.215   5.721  0.5590  0.3333 -0.0219
 9782TIP3    H150837   5.278   2.162   5.648 -0.2699 -1.1033  1.3243
 9782TIP3    H250838   5.403   2.228   5.702  1.3073 -3.3077  0.5164
 9783TIP3   OH250839   2.412   5.094   0.891  0.2341  0.3190 -0.4466
 9783TIP3    H150840   2.392   5.137   0.807  0.7821 -0.1959 -0.8476
 9783TIP3    H250841   2.495   5.049   0.876  0.2563  0.0908  0.3291
 9784TIP3   OH250842   3.804   1.022   4.519  0.1701  0.7135  0.9857
 9784TIP3    H150843   3.735   0.962   4.493  0.8364  0.3868 -0.1271
 9784TIP3    H250844   3.884   0.985   4.480  0.9421  1.1791  2.0695
 9785TIP3   OH250845   3.295   5.188  15.500 -0.0012 -0.2285  0.0385
 9785TIP3    H150846   3.255   5.274  15.495 -0.3993 -0.3686  0.7404
 9785TIP3    H250847   3.299   5.158  15.409  0.8828  0.8555 -0.2890
 9786TIP3   OH250848   5.116   4.770  11.238  0.1403 -0.8981 -0.4690
 9786TIP3    H150849   5.090   4.727  11.319  0.0898 -1.5057 -0.8064
 9786TIP3    H250850   5.046   4.833  11.221  0.8835  0.3131  0.7485
 9787TIP3   OH250851   0.083   4.940   4.313  0.0749  0.1106  0.6750
 9787TIP3    H150852   0.169   4.958   4.275 -0.5954  1.0787 -0.4370
 9787TIP3    H250853   0.056   4.857   4.272 -0.3706  0.8306 -0.5499
 9788TIP3   OH250854   5.050   2.585  15.930  0.7359  0.2274  0.4540
 9788TIP3    H150855   5.060   2.596  16.024  1.4629  1.2818  0.2699
 9788TIP3    H250856   4.969   2.633  15.909  0.9098  0.5216  0.4539
 9789TIP3   OH250857   2.114   6.357   1.392 -0.2635  0.0513 -0.7089
 9789TIP3    H150858   2.040   6.319   1.439 -1.3986  1.2794 -1.4279
 9789TIP3    H250859   2.189   6.304   1.418 -1.6751 -2.3966 -1.3678
 9790TIP3   OH250860   0.752   5.588  11.084  0.4458 -0.1549  0.4289
 9790TIP3    H150861   0.685   5.655  11.072 -0.7280 -1.1975  1.0019
 9790TIP3    H250862   0.779   5.564  10.995 -0.0643  0.1500  0.1924
 9791TIP3   OH250863   0.955   1.054  13.353  0.2821  0.2169  0.5784
 9791TIP3    H150864   0.938   1.049  13.259 -1.3386  4.3561  0.4752
 9791TIP3    H250865   1.049   1.067  13.359  0.5485 -1.0318 -0.3451
 9792TIP3   OH250866   3.778   6.193   2.963  0.6302 -0.7293 -0.3782
 9792TIP3    H150867   3.838   6.163   3.031  1.1149 -1.6610 -1.1949
 9792TIP3    H250868   3.732   6.114   2.935 -0.7548 -0.0808  0.0002
 9793TIP3   OH250869   6.651   0.791  16.293  0.4355 -0.3284  0.4561
 9793TIP3    H150870   6.716   0.837  16.240 -1.8580  1.5952 -0.9083
 9793TIP3    H250871   6.646   0.842  16.374  1.1049 -0.9029  0.8675
 9794TIP3   OH250872   2.706   0.020  16.733 -0.3914 -0.6749  0.1350
 9794TIP3    H150873   2.707  -0.070  16.765  0.3925 -0.4373  0.8217
 9794TIP3    H250874   2.799   0.044  16.728 -0.4902 -0.5040 -1.7926
 9795TIP3   OH250875   4.468   4.061  13.190 -0.1044  0.5232 -0.8383
 9795TIP3    H150876   4.536   4.014  13.143 -1.8934 -0.8500 -2.2324
 9795TIP3    H250877   4.479   4.035  13.282  0.5038 -0.6303 -1.2266
 9796TIP3   OH250878   5.537   3.548   6.054  0.0716 -0.3197  0.3562
 9796TIP3    H150879   5.503   3.615   5.995 -1.0249  0.0516  1.3687
 9796TIP3    H250880   5.621   3.582   6.084  1.0322 -0.8744 -1.5685
 9797TIP3   OH250881   3.706   3.174  12.233  0.0138 -0.5052 -0.7284
 9797TIP3    H150882   3.634   3.231  12.261  1.2979  1.2052 -0.7180
 9797TIP3    H250883   3.663   3.102  12.187 -1.7752 -0.2699  0.4441
 9798TIP3   OH250884   5.231   0.033  15.823  0.2290  0.0179 -0.5152
 9798TIP3    H150885   5.194  -0.055  15.834 -1.0639  0.6014  0.0782
 9798TIP3    H250886   5.266   0.055  15.909 -1.2578  0.8396 -0.0860
 9799TIP3   OH250887   5.296   5.173   4.279  0.4037  0.3416  0.4259
 9799TIP3    H150888   5.256   5.102   4.329 -0.2747  0.2203 -0.2706
 9799TIP3    H250889   5.330   5.233   4.345 -1.5714  0.8098  1.0960
 9800TIP3   OH250890   4.262   2.190  16.840  0.2109  0.1826  0.0065
 9800TIP3    H150891   4.230   2.117  16.787  1.8173 -1.7242  1.5251
 9800TIP3    H250892   4.189   2.211  16.899 -0.2924 -0.1291 -0.4939
 9801TIP3   OH250893   5.017   5.615   1.522  0.1966 -0.2050 -0.1557
 9801TIP3    H150894   5.092   5.597   1.464  0.6664  1.1025  0.0091
 9801TIP3    H250895   4.992   5.705   1.502 -1.4013 -0.6449 -0.2521
 9802TIP3   OH250896   1.982   3.167   3.138  0.2993 -0.1971 -0.3145
 9802TIP3    H150897   2.023   3.230   3.078  1.6895  0.6531  1.4321
 9802TIP3    H250898   2.056   3.127   3.185 -0.7625  0.1706  1.7699
 9803TIP3   OH250899   3.509   3.508   2.253  0.1450  0.3686  0.3226
 9803TIP3    H150900   3.524   3.599   2.228 -0.9276  0.7038  0.8200
 9803TIP3    H250901   3.596   3.472   2.268  0.5723  1.3564  0.2512
 9804TIP3   OH250902   2.902   1.580   2.219  0.0789 -0.2169 -0.5855
 9804TIP3    H150903   2.956   1.614   2.290  0.0116 -0.9673 -0.1626
 9804TIP3    H250904   2.937   1.493   2.202 -1.6927 -1.2165  0.4936
 9805TIP3   OH250905   3.759   2.713  13.293  0.2170 -0.2807 -0.0175
 9805TIP3    H150906   3.852   2.723  13.274  0.2765 -0.6743  0.0565
 9805TIP3    H250907   3.731   2.638  13.240 -0.6248  1.3234 -1.9450
 9806TIP3   OH250908   2.521   0.867   0.891  0.1370 -0.3745  0.1134
 9806TIP3    H150909   2.449   0.906   0.940  0.4403  0.4936 -0.1121
 9806TIP3    H250910   2.525   0.918   0.810  1.4899  0.0813  0.4555
 9807TIP3   OH250911   5.994   6.344  11.115  0.7510  0.4564 -0.5030
 9807TIP3    H150912   6.029   6.377  11.032  0.5651  1.2188 -0.2876
 9807TIP3    H250913   5.999   6.419  11.174  0.8178 -0.0667  0.1566
 9808TIP3   OH250914   6.277   2.720  16.875  0.1695 -0.8898  0.3652
 9808TIP3    H150915   6.357   2.671  16.895  0.2469 -0.5799  0.8086
 9808TIP3    H250916   6.298   2.769  16.795  0.7769  0.0134  1.0690
 9809TIP3   OH250917   1.358   5.818   4.901  0.0547 -0.1775  0.0422
 9809TIP3    H150918   1.303   5.869   4.960  0.5555 -0.1968  0.5329
 9809TIP3    H250919   1.439   5.802   4.950 -0.3140 -1.9542  0.1360
 9810TIP3   OH250920   2.903   3.120   0.013 -0.0688  0.0237  0.6299
 9810TIP3    H150921   2.961   3.061   0.060 -0.6351 -0.9784  0.1038
 9810TIP3    H250922   2.960   3.170  -0.044  0.4455  0.1731  1.2670
 9811TIP3   OH250923   5.353   4.012   1.578 -0.2998 -0.3583 -0.6972
 9811TIP3    H150924   5.397   4.028   1.661 -0.7734  2.3430 -0.8881
 9811TIP3    H250925   5.343   3.917   1.574 -0.0349 -0.5765  2.1833
 9812TIP3   OH250926   0.625   4.610  15.744 -0.2999  0.0747  0.2523
 9812TIP3    H150927   0.569   4.668  15.796 -0.9811 -0.8151  0.5316
 9812TIP3    H250928   0.628   4.652  15.658 -0.3514  0.7982  0.5947
 9813TIP3   OH250929   3.350   0.025  12.503 -0.3187  0.3061 -0.2085
 9813TIP3    H150930   3.332   0.025  12.409  0.3841  1.4291 -0.3586
 9813TIP3    H250931   3.376  -0.065  12.523  0.8552  0.3567 -1.3715
 9814TIP3   OH250932   0.633   1.937  12.270  0.3941  0.5757 -0.5042
 9814TIP3    H150933   0.646   1.872  12.338 -0.1456  1.5738  0.6021
 9814TIP3    H250934   0.563   1.902  12.215  2.2038 -1.1863 -1.8274
 9815TIP3   OH250935   6.089   0.702   5.649  0.6400 -0.3087  0.0893
 9815TIP3    H150936   6.146   0.713   5.573  0.3971 -0.5107 -0.1205
 9815TIP3    H250937   6.051   0.615   5.639 -2.0839  0.9430 -1.4164
 9816TIP3   OH250938   2.229   3.714   2.526 -0.3215 -0.0699  0.4804
 9816TIP3    H150939   2.171   3.642   2.549 -0.2288 -0.1015  0.6219
 9816TIP3    H250940   2.191   3.753   2.447 -0.3691 -0.2747  0.4032
 9817TIP3   OH250941   5.440   3.831  14.745 -0.2842 -0.0296  0.5571
 9817TIP3    H150942   5.357   3.809  14.787 -0.3203 -0.5953  0.2012
 9817TIP3    H250943   5.475   3.904  14.797 -0.7364 -0.1519  1.0415
 9818TIP3   OH250944   5.419   1.200   1.949  0.4207  0.8078  0.4555
 9818TIP3    H150945   5.422   1.275   2.008  0.3817 -0.0857  1.6411
 9818TIP3    H250946   5.342   1.150   1.978 -0.4286  1.0342 -1.2572
 9819TIP3   OH250947   5.615   6.284  12.064 -0.1299  0.1858  0.1534
 9819TIP3    H150948   5.613   6.222  11.991  1.1720  0.2274  0.0707
 9819TIP3    H250949   5.670   6.241  12.130 -0.0145  0.8346  0.4806
 9820TIP3   OH250950   2.261   5.960   3.204  1.2885  0.1345  0.5594
 9820TIP3    H150951   2.305   6.043   3.226  2.6242 -0.4522  0.1979
 9820TIP3    H250952   2.277   5.949   3.110  1.0761 -0.5158  0.5969
 9821TIP3   OH250953   3.939   2.412  11.800  0.1638 -0.2334  0.7159
 9821TIP3    H150954   3.933   2.433  11.707 -0.6036  1.6140  1.1452
 9821TIP3    H250955   3.989   2.330  11.803  1.0476  0.1808 -1.2456
 9822TIP3   OH250956   4.212   0.745   2.735  0.0981 -0.6922  0.6247
 9822TIP3    H150957   4.290   0.772   2.686  0.7437 -3.3555  0.0105
 9822TIP3    H250958   4.142   0.801   2.700  1.6294  1.7264  1.1481
 9823TIP3   OH250959   3.543   6.758   6.084  0.5589 -0.4329 -0.2311
 9823TIP3    H150960   3.458   6.790   6.054  0.5678 -0.0319  0.1626
 9823TIP3    H250961   3.522   6.699   6.157  0.6287 -0.0892  0.0739
 9824TIP3   OH250962   3.558   5.912  15.802  0.4505  0.2246  0.2448
 9824TIP3    H150963   3.543   5.839  15.741  1.3771  0.2231  0.0019
 9824TIP3    H250964   3.604   5.873  15.876  0.6376  0.4911  0.2732
 9825TIP3   OH250965   1.262   4.454  16.785  0.6277  0.3942  0.2916
 9825TIP3    H150966   1.224   4.387  16.728 -0.3289  0.8835  0.3236
 9825TIP3    H250967   1.310   4.405  16.852  2.1188 -0.1784 -1.1462
 9826TIP3   OH250968   0.764   4.269  16.594 -0.0818 -0.2983 -0.1928
 9826TIP3    H150969   0.816   4.197  16.629 -1.8797 -1.0181  1.1785
 9826TIP3    H250970   0.800   4.347  16.635 -0.8541 -0.9232  1.7636
 9827TIP3   OH250971   4.549   4.918   5.216  0.4106  0.8985  0.2438
 9827TIP3    H150972   4.525   4.949   5.303  0.2487 -0.1440  0.5894
 9827TIP3    H250973   4.609   4.844   5.233  0.0272  0.4051 -0.5104
 9828TIP3   OH250974   0.317   5.568   2.006  0.2446  0.5127 -0.4444
 9828TIP3    H150975   0.360   5.604   2.083  4.9288 -1.6906 -1.6779
 9828TIP3    H250976   0.322   5.637   1.940 -0.2586  1.0549  0.0721
 9829TIP3   OH250977   6.680   1.317  15.061 -0.0441  0.3144  0.2269
 9829TIP3    H150978   6.602   1.369  15.077 -0.0073  0.1502  0.9971
 9829TIP3    H250979   6.753   1.376  15.079  0.0012  0.2401  0.2906
 9830TIP3   OH250980   4.837   2.915  14.853 -0.0667 -0.6150  0.2282
 9830TIP3    H150981   4.783   2.838  14.841 -0.1505 -0.6518  0.8243
 9830TIP3    H250982   4.775   2.986  14.869 -0.0767 -0.1325 -1.6641
 9831TIP3   OH250983   3.894   2.006   1.656 -0.0676 -0.1686  0.7220
 9831TIP3    H150984   3.906   1.956   1.737 -0.7213  0.5224  1.2554
 9831TIP3    H250985   3.982   2.035   1.633  0.3367 -1.5784  0.3800
 9832TIP3   OH250986   3.538   0.373  15.689  0.0562  0.2955  0.6310
 9832TIP3    H150987   3.502   0.291  15.723  1.3553 -0.7290 -0.3019
 9832TIP3    H250988   3.471   0.406  15.629 -0.6295  0.1169  1.2837
 9833TIP3   OH250989   0.940   6.401   3.040  0.8671 -0.0756  0.1420
 9833TIP3    H150990   0.903   6.471   2.986  0.0608 -0.3607  0.3117
 9833TIP3    H250991   0.875   6.386   3.109  1.1287 -0.8375  0.2377
 9834TIP3   OH250992   0.215   3.717   4.449 -0.2391 -0.0885 -0.1992
 9834TIP3    H150993   0.139   3.698   4.395 -0.5753  2.3169 -0.6765
 9834TIP3    H250994   0.288   3.724   4.386 -0.4815  1.9092 -0.3106
 9835TIP3   OH250995   6.351   3.592  12.826 -0.7613  0.1091 -1.0272
 9835TIP3    H150996   6.306   3.508  12.838 -0.8769  0.3164  0.1565
 9835TIP3    H250997   6.309   3.651  12.889  0.7022  0.4906 -0.3583
 9836TIP3   OH250998   4.421   1.351   4.450  0.0528  0.5280 -0.2047
 9836TIP3    H150999   4.421   1.435   4.404  0.8195 -0.0895 -1.3848
 9836TIP3    H251000   4.435   1.374   4.542 -3.3314  1.9317  0.1021
 9837TIP3   OH251001   0.536   4.708   1.896  0.0037  0.1495  0.6352
 9837TIP3    H151002   0.597   4.634   1.899  0.7166  0.7263  0.6179
 9837TIP3    H251003   0.575   4.773   1.954  0.4607  1.3142 -0.9137
 9838TIP3   OH251004   4.880   1.890  13.551 -0.2973  0.0044 -0.2682
 9838TIP3    H151005   4.969   1.900  13.518  0.7792 -0.1866  2.3650
 9838TIP3    H251006   4.846   1.813  13.505  1.4437 -0.8063 -0.2846
 9839TIP3   OH251007   6.139   0.600   6.327 -0.7265  0.6161  0.7398
 9839TIP3    H151008   6.224   0.566   6.355 -0.6247 -1.6348 -1.8793
 9839TIP3    H251009   6.134   0.579   6.234 -3.7506  1.5937  0.5583
 9840TIP3   OH251010   6.411   2.528  14.900 -0.8103  0.0953 -0.0095
 9840TIP3    H151011   6.394   2.517  14.807 -0.6035  2.0080 -0.3216
 9840TIP3    H251012   6.489   2.584  14.904 -0.4797 -0.4009  1.3305
 9841TIP3   OH251013   4.041   0.168  10.777  0.1750 -0.1505 -0.6833
 9841TIP3    H151014   4.073   0.139  10.862  0.0473 -0.7243 -0.8252
 9841TIP3    H251015   4.107   0.231  10.746  0.5439 -0.4163 -0.4406
 9842TIP3   OH251016   4.196   4.589   1.098  0.2045  0.1219 -0.3891
 9842TIP3    H151017   4.202   4.500   1.064 -0.9052 -0.0288 -0.2508
 9842TIP3    H251018   4.177   4.577   1.192 -0.3292  0.4830 -0.4454
 9843TIP3   OH251019   2.704   5.001   2.128  0.0447  0.2059 -0.1180
 9843TIP3    H151020   2.682   4.965   2.042 -0.5094 -0.0614  0.1300
 9843TIP3    H251021   2.625   4.989   2.180  0.7041 -0.6263  0.7555
 9844TIP3   OH251022   6.760   1.455  11.133 -0.0595  0.1597 -0.2725
 9844TIP3    H151023   6.790   1.373  11.093 -0.6479  0.3892 -1.2328
 9844TIP3    H251024   6.666   1.456  11.117 -0.1039  0.8669  0.0145
 9845TIP3   OH251025   1.385   2.718  13.647 -0.2038 -0.0050 -0.0938
 9845TIP3    H151026   1.316   2.750  13.590  0.4276  0.8887 -0.3782
 9845TIP3    H251027   1.410   2.633  13.611 -1.1880 -0.3625  0.0543
 9846TIP3   OH251028   3.981   1.198  16.202  0.6993 -0.9851  0.0145
 9846TIP3    H151029   3.957   1.113  16.164 -0.9680 -2.0382  3.1042
 9846TIP3    H251030   3.898   1.234  16.234  1.6371  1.0427  0.3513
 9847TIP3   OH251031   0.926   0.640   4.933  0.1729 -0.0134 -0.1567
 9847TIP3    H151032   0.916   0.731   4.905  0.4651 -0.0206 -0.2909
 9847TIP3    H251033   0.993   0.605   4.874 -0.3144 -0.4643 -0.4514
 9848TIP3   OH251034   4.172   0.243  16.066  0.0051  0.1835 -0.0755
 9848TIP3    H151035   4.101   0.301  16.040  1.5526  1.6854 -1.1643
 9848TIP3    H251036   4.177   0.178  15.995 -0.8603 -0.4881  0.4694
 9849TIP3   OH251037   1.345   5.049  16.803 -0.4382  0.3629  0.0025
 9849TIP3    H151038   1.356   5.090  16.717 -2.2157 -0.7911 -0.8309
 9849TIP3    H251039   1.425   4.998  16.815 -1.4458 -2.1548 -2.5874
 9850TIP3   OH251040   1.051   4.075   0.457 -0.1999 -0.4601  0.1865
 9850TIP3    H151041   1.011   4.087   0.371  1.0551 -0.5582 -0.4377
 9850TIP3    H251042   1.124   4.015   0.441  0.9726  0.6929  1.0201
 9851TIP3   OH251043   4.945   2.352   1.817 -0.1442  0.0651  0.1694
 9851TIP3    H151044   4.924   2.441   1.790  0.4128  0.1280 -0.0575
 9851TIP3    H251045   4.867   2.322   1.864  0.0964  1.0592  1.2291
 9852TIP3   OH251046   1.061   2.361  16.099  0.2563 -0.5682  0.0092
 9852TIP3    H151047   1.015   2.442  16.076  0.1906 -0.2923  1.0215
 9852TIP3    H251048   1.063   2.310  16.018 -0.7189 -0.0446 -0.3695
 9853TIP3   OH251049   0.904   5.519  11.929 -0.1577 -0.1369  0.1266
 9853TIP3    H151050   0.850   5.440  11.922 -0.3546 -0.2293  2.1990
 9853TIP3    H251051   0.844   5.590  11.905 -0.4783 -0.4469 -0.0083
 9854TIP3   OH251052   0.187   3.580   4.974 -0.3249 -0.3317 -0.1092
 9854TIP3    H151053   0.130   3.568   4.898 -0.3608 -1.9475  0.1307
 9854TIP3    H251054   0.247   3.505   4.971  0.0307 -0.1241  1.1355
 9855TIP3   OH251055   4.307   1.721  12.403  0.0625 -0.0421 -0.4643
 9855TIP3    H151056   4.343   1.769  12.477  0.3627  0.5336 -0.9747
 9855TIP3    H251057   4.351   1.758  12.327 -0.0634 -0.7966 -0.9118
 9856TIP3   OH251058   3.313   2.770   1.525 -0.2042  0.0705 -0.0124
 9856TIP3    H151059   3.360   2.803   1.602  0.9051 -1.3758 -0.0318
 9856TIP3    H251060   3.380   2.764   1.457 -0.5603 -1.2815 -0.2772
 9857TIP3   OH251061   2.012   2.044  14.496 -0.1924  0.0839 -0.2258
 9857TIP3    H151062   1.926   2.052  14.453 -0.6235  1.9956  0.8910
 9857TIP3    H251063   1.999   2.082  14.583  1.7896  0.3909 -0.0258
 9858TIP3   OH251064   6.767   4.473   5.784 -0.5471  0.1401  0.1485
 9858TIP3    H151065   6.836   4.432   5.836 -0.4409 -2.6146 -1.9086
 9858TIP3    H251066   6.814   4.537   5.730  0.2501 -0.7990 -0.3167
 9859TIP3   OH251067   3.730   6.353   3.456  0.2061 -1.0514  0.2683
 9859TIP3    H151068   3.678   6.324   3.530 -1.5556  1.9480  0.3798
 9859TIP3    H251069   3.666   6.380   3.390  1.6977 -1.3273 -1.3729
 9860TIP3   OH251070   6.808   5.383  11.404 -0.3675 -0.3184 -0.6725
 9860TIP3    H151071   6.849   5.466  11.429 -1.3720 -0.5433  2.0676
 9860TIP3    H251072   6.762   5.402  11.323  2.3042  0.8140 -2.0501
 9861TIP3   OH251073   1.930   0.299   2.231  0.7681  0.0548 -0.0061
 9861TIP3    H151074   1.836   0.289   2.244  0.1472  0.0031 -3.5608
 9861TIP3    H251075   1.949   0.389   2.256 -0.2834  0.1556  0.4733
 9862TIP3   OH251076   3.819   6.578   1.468  0.2172  0.1404 -0.1790
 9862TIP3    H151077   3.756   6.649   1.455 -0.2757  0.1274  1.8903
 9862TIP3    H251078   3.895   6.604   1.416 -0.4583  1.5041 -0.5390
 9863TIP3   OH251079   4.488   4.658   5.673 -0.3159  0.5997 -0.1226
 9863TIP3    H151080   4.503   4.750   5.693  2.4155 -0.1214  1.6371
 9863TIP3    H251081   4.442   4.624   5.750 -0.4644  0.2701 -0.3547
 9864TIP3   OH251082   4.743   6.288   4.655  0.8068 -0.2122  0.0367
 9864TIP3    H151083   4.779   6.306   4.742  0.5869  0.1166  0.0580
 9864TIP3    H251084   4.651   6.267   4.671  0.3978  1.2630 -0.2596
 9865TIP3   OH251085   2.454   3.678   4.654 -0.5873  0.3437  0.5084
 9865TIP3    H151086   2.431   3.751   4.596  1.3012  0.8494  0.3190
 9865TIP3    H251087   2.460   3.717   4.741  1.1020  0.6242  0.3072
 9866TIP3   OH251088   6.554   0.191  11.489 -0.2699  0.2488 -0.4461
 9866TIP3    H151089   6.500   0.269  11.498 -1.4493 -0.7026  1.2653
 9866TIP3    H251090   6.552   0.171  11.395 -0.0710  2.1391 -0.8886
 9867TIP3   OH251091   0.288   6.504  11.589 -0.3876 -0.2620  0.2628
 9867TIP3    H151092   0.377   6.477  11.565 -0.2994  0.4093 -0.2215
 9867TIP3    H251093   0.284   6.494  11.684  0.8142  1.3609  0.5396
 9868TIP3   OH251094   1.148   1.675   1.365 -0.0361  0.0301 -0.2608
 9868TIP3    H151095   1.160   1.609   1.434  0.9129 -2.3278 -2.4990
 9868TIP3    H251096   1.057   1.664   1.338  0.5290 -1.6005 -1.6875
 9869TIP3   OH251097   4.606   6.493   3.619 -0.4877  0.3248  0.5319
 9869TIP3    H151098   4.547   6.510   3.546  0.4150  1.0914 -0.0422
 9869TIP3    H251099   4.673   6.435   3.583 -0.1964  0.4672  0.8399
 9870TIP3   OH251100   0.694   2.855   4.561  0.2269 -0.3536 -0.0334
 9870TIP3    H151101   0.759   2.794   4.526  0.8482  0.1233  0.2753
 9870TIP3    H251102   0.729   2.882   4.646 -0.7988 -0.7460  0.5259
 9871TIP3   OH251103   4.209   2.105  11.204 -0.0171 -0.3173 -0.3849
 9871TIP3    H151104   4.289   2.155  11.218  0.1921 -1.3076  2.5512
 9871TIP3    H251105   4.139   2.171  11.210  0.3683 -0.0120  1.4871
 9872TIP3   OH251106   3.419   0.317   3.464 -0.4597  0.0713  0.0116
 9872TIP3    H151107   3.489   0.337   3.402 -1.4718 -1.1524 -1.6145
 9872TIP3    H251108   3.376   0.401   3.480  1.4945  0.8923  1.2664
 9873TIP3   OH251109   6.783   3.025  15.316 -0.1270 -0.1295 -0.5856
 9873TIP3    H151110   6.829   2.946  15.287  1.6873  0.3502  0.8027
 9873TIP3    H251111   6.694   3.014  15.283  0.2455 -2.4271 -1.0112
 9874TIP3   OH251112   0.420   6.222   4.178 -0.5270 -0.2984  0.6456
 9874TIP3    H151113   0.480   6.148   4.166  0.8028  0.7052  0.7921
 9874TIP3    H251114   0.393   6.218   4.270 -0.2646 -0.4673  0.7145
 9875TIP3   OH251115   2.205   5.162  13.348 -0.2717 -0.0601 -0.2850
 9875TIP3    H151116   2.167   5.246  13.375 -0.8987 -0.5188  0.3146
 9875TIP3    H251117   2.183   5.102  13.420  0.7079 -0.5913 -0.4144
 9876TIP3   OH251118   0.245   4.883   5.285 -0.7907  0.0557 -0.2824
 9876TIP3    H151119   0.183   4.930   5.230 -1.0957 -0.7880 -0.6732
 9876TIP3    H251120   0.301   4.836   5.224 -1.8533 -1.8179  0.0983
 9877TIP3   OH251121   0.017   4.108  12.213  0.1420  0.1754 -0.2626
 9877TIP3    H151122  -0.030   4.054  12.276 -0.8467  1.5441  0.2123
 9877TIP3    H251123  -0.039   4.111  12.135 -0.1563  1.0669 -0.0283
 9878TIP3   OH251124   4.325   1.805   2.337  0.1529 -0.4933  0.1057
 9878TIP3    H151125   4.309   1.766   2.250 -0.5293  0.9202 -0.4302
 9878TIP3    H251126   4.356   1.893   2.318 -0.1607 -0.1128  1.3074
 9879TIP3   OH251127   1.141   1.460  14.955  0.0483 -0.3226 -0.1336
 9879TIP3    H151128   1.175   1.544  14.925 -0.9386  0.4132  0.7020
 9879TIP3    H251129   1.120   1.474  15.047  1.0280 -1.8770  0.3739
 9880TIP3   OH251130   2.649   6.742  13.378  0.6950 -0.1787 -0.1042
 9880TIP3    H151131   2.620   6.651  13.388 -0.9224  0.3702  0.5668
 9880TIP3    H251132   2.604   6.773  13.299  1.2621  0.0414 -0.3448
 9881TIP3   OH251133   4.474   5.474  15.436  0.0725 -0.0898  0.5769
 9881TIP3    H151134   4.513   5.518  15.511  1.3291 -1.2321  0.6541
 9881TIP3    H251135   4.523   5.507  15.361  0.1935 -0.4254  0.5040
 9882TIP3   OH251136   2.032   3.638   5.475 -0.0169 -0.2492  0.3191
 9882TIP3    H151137   2.097   3.570   5.492 -0.6522 -0.9466  0.0372
 9882TIP3    H251138   2.073   3.719   5.503  0.8471 -0.7242  0.4421
 9883TIP3   OH251139   0.199   1.772  10.856 -0.3837 -0.1841  0.1712
 9883TIP3    H151140   0.214   1.708  10.925  1.4128  0.2619  0.2387
 9883TIP3    H251141   0.261   1.749  10.787 -1.7561 -0.2740 -1.0857
 9884TIP3   OH251142   1.340   1.039  15.194 -0.2756  0.0329 -0.2606
 9884TIP3    H151143   1.411   0.986  15.157 -0.8151 -0.4996 -0.5536
 9884TIP3    H251144   1.375   1.128  15.196  1.0084 -0.4548  1.1546
 9885TIP3   OH251145   1.509   3.715  15.717  0.4994  0.0643  0.7311
 9885TIP3    H151146   1.499   3.759  15.633  0.3819  0.8643  1.1607
 9885TIP3    H251147   1.601   3.731  15.742  0.0736  1.3372  1.5785
 9886TIP3   OH251148   0.616   3.576   2.347  0.2053  1.1449 -0.2176
 9886TIP3    H151149   0.620   3.490   2.387 -1.5168  0.2822 -1.7546
 9886TIP3    H251150   0.708   3.598   2.328  0.6732 -0.3007  0.2539
 9887TIP3   OH251151   5.037   0.959  12.430 -0.5453  0.4937 -0.3771
 9887TIP3    H151152   5.083   1.030  12.384  0.6921  0.0746  0.1524
 9887TIP3    H251153   5.021   0.893  12.363  1.3926 -0.1855 -0.2290
 9888TIP3   OH251154   1.798   0.701  13.804 -0.5745  0.0603  0.4953
 9888TIP3    H151155   1.740   0.751  13.745  0.6188  0.1151 -0.6751
 9888TIP3    H251156   1.829   0.628  13.750  1.3233  0.6504  0.7320
 9889TIP3   OH251157   6.727   3.642  10.865 -0.1450  0.3508 -0.1357
 9889TIP3    H151158   6.735   3.730  10.830  0.6202  0.1514 -0.4920
 9889TIP3    H251159   6.816   3.605  10.859  0.1736  0.4821  2.5137
 9890TIP3   OH251160   4.606   5.961   4.667 -0.3901 -0.5299  0.4944
 9890TIP3    H151161   4.665   5.967   4.592  2.1436 -1.4890  2.2647
 9890TIP3    H251162   4.546   6.034   4.656  2.8530  2.2860 -0.0698
 9891TIP3   OH251163   3.658   4.843   5.037  0.3446 -0.1579  0.0396
 9891TIP3    H151164   3.648   4.878   5.125  0.7195 -1.2011  0.5173
 9891TIP3    H251165   3.741   4.878   5.006 -1.2077  2.7960 -1.1882
 9892TIP3   OH251166   6.610   5.914  15.304  0.0862  0.0233 -1.1323
 9892TIP3    H151167   6.546   5.915  15.232 -0.0188 -0.4457 -1.0486
 9892TIP3    H251168   6.576   5.849  15.365 -0.3046  1.0680 -0.2159
 9893TIP3   OH251169   4.723   5.267   1.142 -1.0009 -0.1556  0.2080
 9893TIP3    H151170   4.802   5.288   1.092 -2.0458  1.0388 -1.0530
 9893TIP3    H251171   4.737   5.308   1.227 -0.2232 -0.0616  0.0456
 9894TIP3   OH251172   5.955   6.359   6.061 -0.0066 -0.0623  0.1882
 9894TIP3    H151173   5.930   6.369   6.153  1.0884  1.3819  0.3653
 9894TIP3    H251174   5.914   6.433   6.017 -0.8389 -0.9528 -0.5880
 9895TIP3   OH251175   6.560   4.479   6.300 -0.3893  0.2466  0.3145
 9895TIP3    H151176   6.575   4.525   6.383  0.5245  0.7516 -0.1155
 9895TIP3    H251177   6.639   4.496   6.249 -0.0014 -1.8170  0.1298
 9896TIP3   OH251178   6.290   0.092  15.788  0.1354 -0.6119  0.0101
 9896TIP3    H151179   6.344   0.170  15.800  0.9638 -1.4832  2.6696
 9896TIP3    H251180   6.223   0.118  15.725  1.4427  1.6635 -0.5368
 9897TIP3   OH251181   1.478   3.676   2.144 -0.1184 -0.1189 -0.3223
 9897TIP3    H151182   1.506   3.698   2.055 -1.0460  1.0446 -0.3609
 9897TIP3    H251183   1.410   3.610   2.132 -0.4310  0.2297 -0.5072
 9898TIP3   OH251184   1.858   5.847   0.738 -0.5766 -0.1616 -0.2964
 9898TIP3    H151185   1.856   5.932   0.782 -0.5320 -0.9238  1.2509
 9898TIP3    H251186   1.835   5.785   0.806  0.9198 -1.5663 -1.0140
 9899TIP3   OH251187   2.057   4.667  16.938  0.6757  1.0720 -0.6353
 9899TIP3    H151188   2.003   4.653  16.860  0.1415  1.9243 -0.4298
 9899TIP3    H251189   2.147   4.650  16.907  0.3509  0.1750 -1.1097
 9900TIP3   OH251190   1.777   3.016   2.858 -0.2868 -0.5103  0.1937
 9900TIP3    H151191   1.786   3.083   2.790 -0.4753 -0.4617  0.2159
 9900TIP3    H251192   1.779   2.933   2.811  0.7339 -0.5245  0.2371
 9901TIP3   OH251193   3.097   5.155  10.365 -0.5766  0.6363  0.6332
 9901TIP3    H151194   3.034   5.084  10.375 -1.6385  1.2346 -1.3017
 9901TIP3    H251195   3.178   5.120  10.404 -1.3965 -1.1417  0.8614
 9902TIP3   OH251196   3.538   4.071  14.686  0.3214 -0.1089  0.9742
 9902TIP3    H151197   3.481   4.117  14.747  1.0998  1.4661  0.5825
 9902TIP3    H251198   3.537   3.980  14.715  1.7270  0.7710  4.2232
 9903TIP3   OH251199   2.695   0.339   5.971  0.2088 -0.0696  0.0363
 9903TIP3    H151200   2.787   0.349   5.944 -0.0360  1.6840 -0.2617
 9903TIP3    H251201   2.699   0.320   6.065  0.8617  0.2924  0.0842
 9904TIP3   OH251202   0.429   5.444   1.241 -0.2928  0.6800 -0.6286
 9904TIP3    H151203   0.498   5.435   1.175 -1.0677  0.5132 -1.4310
 9904TIP3    H251204   0.348   5.445   1.191 -0.9074  0.4232  0.3367
 9905TIP3   OH251205   3.337   3.618   5.365  0.0037 -0.7091 -0.2580
 9905TIP3    H151206   3.430   3.622   5.343  0.7464 -1.7196  2.3789
 9905TIP3    H251207   3.305   3.538   5.323  0.3902 -0.5241 -0.9106
 9906TIP3   OH251208   5.977   5.902   5.602  0.1860  0.2564  0.2603
 9906TIP3    H151209   6.026   5.977   5.569  1.9716 -0.9125  0.0650
 9906TIP3    H251210   5.945   5.929   5.688 -1.0567  1.9441 -0.6957
 9907TIP3   OH251211   4.695   6.154  11.344  0.4802  0.5760 -0.2683
 9907TIP3    H151212   4.697   6.074  11.396 -0.6715  0.5310 -0.2674
 9907TIP3    H251213   4.758   6.139  11.274  0.1974 -0.3851 -0.3311
 9908TIP3   OH251214   5.005   2.540   2.705 -0.3086 -0.5766  0.0158
 9908TIP3    H151215   5.028   2.572   2.792  0.2419  0.8262 -0.6211
 9908TIP3    H251216   5.076   2.569   2.649 -1.4333 -0.0715 -1.1912
 9909TIP3   OH251217   0.910   3.772   5.518 -0.4228 -0.3431 -0.1938
 9909TIP3    H151218   0.815   3.767   5.512 -0.4599 -1.1755  0.7866
 9909TIP3    H251219   0.942   3.722   5.443 -0.8090 -3.4232  1.5366
 9910TIP3   OH251220   1.194   2.240  11.737 -0.0247  0.0205  0.2650
 9910TIP3    H151221   1.106   2.259  11.703  0.2425  0.9478  0.0412
 9910TIP3    H251222   1.211   2.311  11.799 -0.2840 -1.3529  1.9807
 9911TIP3   OH251223   1.198   1.926  12.548 -0.0234 -0.6605  0.8912
 9911TIP3    H151224   1.201   1.832  12.570 -0.4166 -0.6936  0.8125
 9911TIP3    H251225   1.146   1.964  12.619  2.9738  0.0716  2.8918
 9912TIP3   OH251226   0.572   6.420  12.004  0.0952  0.1850  0.1202
 9912TIP3    H151227   0.660   6.440  11.972 -0.3177 -0.5959 -1.6737
 9912TIP3    H251228   0.515   6.440  11.929 -1.1318 -0.3221  0.8894
 9913TIP3   OH251229   0.828   0.857  14.586  0.6186  0.1935  0.6747
 9913TIP3    H151230   0.783   0.894  14.662  3.1263  1.6221  1.6153
 9913TIP3    H251231   0.903   0.810  14.623  1.2685 -0.0637 -0.8712
 9914TIP3   OH251232   1.287   5.451  13.629 -0.5015 -0.0302 -0.0782
 9914TIP3    H151233   1.253   5.447  13.719 -0.3058  1.6586  0.1171
 9914TIP3    H251234   1.334   5.535  13.626 -2.3164  1.0120 -2.3702
 9915TIP3   OH251235   5.285   6.694   0.460 -0.2685 -0.1007  0.5012
 9915TIP3    H151236   5.288   6.693   0.364  0.3041 -3.0124  0.4291
 9915TIP3    H251237   5.254   6.781   0.483  1.0162  1.2013 -2.2728
 9916TIP3   OH251238   0.988   2.383  14.931 -0.0393 -0.3735  0.2644
 9916TIP3    H151239   0.979   2.293  14.901  0.6668 -0.6104  0.7346
 9916TIP3    H251240   0.925   2.390  15.003  0.6264 -0.7972  0.8918
 9917TIP3   OH251241   4.196   1.927   5.495 -0.1945 -0.2694  0.5166
 9917TIP3    H151242   4.215   1.846   5.543 -0.8548  0.6221  2.3725
 9917TIP3    H251243   4.281   1.957   5.463  0.5059 -0.1787  2.3572
 9918TIP3   OH251244   0.823   3.460  14.867  0.3854 -0.1147 -0.6732
 9918TIP3    H151245   0.770   3.404  14.923 -0.9222  0.8739 -0.8715
 9918TIP3    H251246   0.784   3.547  14.876 -0.6003 -0.0851 -3.8990
 9919TIP3   OH251247   5.035   0.029  11.773  0.0612 -0.9373  0.3392
 9919TIP3    H151248   5.112   0.069  11.813  0.8957 -1.3603 -0.8126
 9919TIP3    H251249   4.962   0.060  11.827  0.8198  0.9299  0.3782
 9920TIP3   OH251250   2.045   4.348  11.676 -0.0470 -0.2881  0.2510
 9920TIP3    H151251   2.025   4.429  11.629 -0.6350 -0.5445  0.0494
 9920TIP3    H251252   1.989   4.282  11.635 -1.8175 -0.1996  2.3566
 9921TIP3   OH251253   0.444   0.214   3.160  0.6719 -0.2248  0.0837
 9921TIP3    H151254   0.440   0.119   3.173  0.1435 -0.2241 -0.0628
 9921TIP3    H251255   0.355   0.239   3.138  0.9374  0.2109 -0.5525
 9922TIP3   OH251256   4.175   1.588  12.712  0.0457  0.5147  0.2851
 9922TIP3    H151257   4.258   1.588  12.761  1.4423  0.5971 -1.9195
 9922TIP3    H251258   4.140   1.676  12.726  0.6692  0.7059  0.7187
 9923TIP3   OH251259   1.418   1.610  13.304 -0.5685  0.0541  0.5342
 9923TIP3    H151260   1.377   1.531  13.340  0.1580 -0.1313  0.9740
 9923TIP3    H251261   1.355   1.680  13.324 -1.5182 -0.4996 -0.4366
 9924TIP3   OH251262   6.418   5.394   4.329 -0.1918 -0.0881  0.5503
 9924TIP3    H151263   6.380   5.427   4.411 -2.9760 -0.8906 -0.2892
 9924TIP3    H251264   6.344   5.395   4.267  1.6396 -0.2028 -1.7552
 9925TIP3   OH251265   6.256   6.026   2.604  0.2627  0.5478 -0.2715
 9925TIP3    H151266   6.218   6.002   2.519  0.3526  2.1601 -0.7941
 9925TIP3    H251267   6.224   5.958   2.663  0.4321 -0.7807 -1.6268
 9926TIP3   OH251268   1.823   0.173  12.317  0.3505  0.2546 -0.0760
 9926TIP3    H151269   1.752   0.197  12.257  0.4540 -0.0629 -0.3289
 9926TIP3    H251270   1.801   0.084  12.345  1.3551 -0.3982 -1.2305
 9927TIP3   OH251271   3.665   5.844   0.856  0.2057  0.4003 -0.6245
 9927TIP3    H151272   3.664   5.935   0.824  0.7807  0.6708  0.0949
 9927TIP3    H251273   3.576   5.828   0.887  0.1925  0.8440 -0.4290
 9928TIP3   OH251274   2.505   5.625   1.113  0.1970 -0.1815  0.0511
 9928TIP3    H151275   2.548   5.623   1.198 -1.1366  1.1310  0.7975
 9928TIP3    H251276   2.548   5.698   1.067 -0.5938  0.5785  0.4797
 9929TIP3   OH251277   6.060   6.697   3.808 -0.2852 -0.1391  0.1861
 9929TIP3    H151278   6.023   6.621   3.765 -0.4450  0.7238 -1.2683
 9929TIP3    H251279   6.119   6.736   3.743 -0.0312  0.8461  0.9714
 9930TIP3   OH251280   6.300   4.271   2.653  0.7385 -0.2586  0.6430
 9930TIP3    H151281   6.238   4.343   2.641  0.9919  0.1414  1.6491
 9930TIP3    H251282   6.368   4.307   2.709  2.0262 -0.6128 -0.6143
 9931TIP3   OH251283   6.401   0.721   1.847 -0.3683 -0.2190 -0.0195
 9931TIP3    H151284   6.336   0.776   1.890 -0.5013  0.2982 -0.8580
 9931TIP3    H251285   6.446   0.781   1.787  0.4033 -0.7295  0.0366
 9932TIP3   OH251286   1.577   2.695  12.277  0.1137  0.4213  0.0814
 9932TIP3    H151287   1.540   2.776  12.310 -0.4803 -0.1549  0.8608
 9932TIP3    H251288   1.542   2.627  12.335  1.3566 -0.2846  0.0297
 9933TIP3   OH251289   0.784   1.459  12.623  0.1960  0.1845  0.5625
 9933TIP3    H151290   0.709   1.462  12.563  2.1140  2.4355 -1.9889
 9933TIP3    H251291   0.794   1.549  12.653  1.6066 -0.1528  1.1686
 9934TIP3   OH251292   0.047   0.323  16.748  0.0489  0.4609  0.4689
 9934TIP3    H151293   0.123   0.315  16.805  1.2331  0.0018 -1.1129
 9934TIP3    H251294  -0.027   0.302  16.804  1.3149 -1.6869  1.4567
 9935TIP3   OH251295   3.064   3.267   5.973 -0.4065  0.3930  0.3607
 9935TIP3    H151296   3.045   3.356   5.946 -0.9630 -0.0589 -0.8004
 9935TIP3    H251297   3.144   3.274   6.026 -0.9831  1.6835  1.1053
 9936TIP3   OH251298   6.743   1.313   4.204  0.4459  0.4268  0.2432
 9936TIP3    H151299   6.702   1.262   4.134  0.2922 -0.3232  0.8707
 9936TIP3    H251300   6.773   1.247   4.267  0.3726  1.1049  0.9947
 9937TIP3   OH251301   3.812   3.889   4.351  0.9723 -0.7134 -0.3577
 9937TIP3    H151302   3.786   3.860   4.439  2.1354 -1.3919 -0.2152
 9937TIP3    H251303   3.733   3.880   4.299  0.4974 -1.1885  0.4155
 9938TIP3   OH251304   5.332   0.683  10.442  0.2671  0.1123  0.2854
 9938TIP3    H151305   5.419   0.721  10.434  0.4493 -0.3128  0.2284
 9938TIP3    H251306   5.346   0.599  10.485 -0.3358  0.9404  2.1966
 9939TIP3   OH251307   3.694   1.865   2.289  0.1581  0.3186  0.1894
 9939TIP3    H151308   3.753   1.938   2.273 -0.0713  0.8320  1.5557
 9939TIP3    H251309   3.738   1.811   2.354 -0.2503 -0.0624  0.1592
 9940TIP3   OH251310   3.590   6.648   1.677 -0.0193 -0.1492 -0.5773
 9940TIP3    H151311   3.615   6.581   1.740  0.2131  0.5175  0.0510
 9940TIP3    H251312   3.662   6.711   1.678 -1.7770  2.0640  1.6346
 9941TIP3   OH251313   4.177   6.606   2.939 -0.2903  0.0394 -0.3434
 9941TIP3    H151314   4.151   6.611   2.847 -1.3086 -1.1944 -0.1516
 9941TIP3    H251315   4.171   6.513   2.960  2.2310 -0.0332  0.3422
 9942TIP3   OH251316   4.802   4.910   1.154  0.3381  0.3187  0.3526
 9942TIP3    H151317   4.842   4.823   1.151 -0.5162 -0.0845 -2.5947
 9942TIP3    H251318   4.873   4.970   1.129  0.3149  0.1345 -0.1824
 9943TIP3   OH251319   2.995   3.259  13.129 -0.1235  0.0364  0.2940
 9943TIP3    H151320   2.976   3.322  13.060 -2.2710 -0.3693  0.4457
 9943TIP3    H251321   3.090   3.257  13.133  0.0627  0.9395 -1.8459
 9944TIP3   OH251322   0.580   5.085  12.546 -0.3800  0.7975  0.1050
 9944TIP3    H151323   0.555   5.163  12.496 -0.9807 -1.0812 -2.7641
 9944TIP3    H251324   0.503   5.029  12.544  0.7879 -0.8856 -0.0742
 9945TIP3   OH251325   2.252   1.073  13.677 -0.2392 -0.5673 -0.4719
 9945TIP3    H151326   2.168   1.117  13.663 -1.7847 -3.2233 -0.2711
 9945TIP3    H251327   2.231   0.999  13.735  2.6870 -0.0593  1.4858
 9946TIP3   OH251328   5.383   1.506   0.811 -0.0379 -0.0315  0.0117
 9946TIP3    H151329   5.434   1.575   0.768 -1.4667  0.5587 -0.8163
 9946TIP3    H251330   5.292   1.525   0.786 -0.3670 -3.4217 -2.0799
 9947TIP3   OH251331   6.331   4.164   6.000 -0.8593 -0.2201 -0.6825
 9947TIP3    H151332   6.362   4.193   6.086 -0.7652 -2.1012 -0.0457
 9947TIP3    H251333   6.299   4.244   5.958  0.4924  0.9920  0.4905
 9948TIP3   OH251334   3.797   6.423   0.203  0.3937  0.2316 -0.7240
 9948TIP3    H151335   3.812   6.507   0.245 -1.6324  0.7794 -0.9950
 9948TIP3    H251336   3.804   6.440   0.109  1.2902 -0.2053 -0.7475
 9949TIP3   OH251337   0.378   3.373   4.247  0.9505  0.4598 -0.4337
 9949TIP3    H151338   0.470   3.357   4.227  1.2371  1.5010  0.0091
 9949TIP3    H251339   0.363   3.464   4.222  1.0665  1.5476  2.9674
 9950TIP3   OH251340   2.932   5.531  14.408 -0.0916 -0.2621  0.2037
 9950TIP3    H151341   2.872   5.595  14.371  0.5147  1.8697  2.5904
 9950TIP3    H251342   2.902   5.520  14.498  1.2516 -1.5274  0.5334
 9951TIP3   OH251343   0.387   6.449  15.780  0.0033 -0.0469 -0.7382
 9951TIP3    H151344   0.397   6.466  15.873 -1.0054 -0.9868 -0.4452
 9951TIP3    H251345   0.447   6.511  15.738 -0.8450  1.6516  0.4368
 9952TIP3   OH251346   3.014   1.845   0.884  0.1804 -0.0956  0.4356
 9952TIP3    H151347   3.051   1.758   0.899  0.0776 -0.5150 -1.4854
 9952TIP3    H251348   2.919   1.830   0.878  0.2114  0.0296 -0.5208
 9953TIP3   OH251349   2.896   6.489  12.496  0.0906  0.6728 -0.3221
 9953TIP3    H151350   2.850   6.458  12.574  2.8971 -0.4379  1.0542
 9953TIP3    H251351   2.931   6.410  12.455  3.2709  1.5222  0.4748
 9954TIP3   OH251352   1.444   5.042  14.433 -0.1395  0.0924  0.0749
 9954TIP3    H151353   1.494   4.962  14.447 -1.7492 -0.8002  0.9399
 9954TIP3    H251354   1.487   5.084  14.358 -0.8887 -2.9438 -2.2229
 9955TIP3   OH251355   0.897   6.439   5.223 -0.2460  0.7278 -0.1835
 9955TIP3    H151356   0.977   6.491   5.216 -0.5141  0.9542 -2.0843
 9955TIP3    H251357   0.905   6.395   5.308  1.3382  1.6209  0.1855
 9956TIP3   OH251358   4.382   3.420  12.401 -0.1684 -1.0532  0.2784
 9956TIP3    H151359   4.396   3.378  12.486 -1.0820 -1.1681  0.3804
 9956TIP3    H251360   4.397   3.351  12.337 -0.3226 -1.1799  0.3804
 9957TIP3   OH251361   1.948   5.378   1.429  0.4652  0.6655 -0.0941
 9957TIP3    H151362   2.041   5.367   1.410  0.0040 -2.4599 -1.0955
 9957TIP3    H251363   1.908   5.398   1.345 -0.1819 -2.0218 -0.5210
 9958TIP3   OH251364   1.551   4.467  10.576  0.2727  0.1156  0.3159
 9958TIP3    H151365   1.496   4.432  10.646 -1.2038  2.3848  0.3852
 9958TIP3    H251366   1.491   4.515  10.519  2.0094  1.6661 -0.3084
 9959TIP3   OH251367   2.081   1.186   2.791  0.0912 -0.1928  0.1702
 9959TIP3    H151368   2.091   1.107   2.844 -0.3551 -0.1113  0.3770
 9959TIP3    H251369   2.117   1.162   2.705  1.2436 -0.1775  0.6349
 9960TIP3   OH251370   5.647   2.732  12.759 -0.6685  0.2527 -0.0497
 9960TIP3    H151371   5.680   2.818  12.733  0.5942 -0.6369 -1.5498
 9960TIP3    H251372   5.724   2.683  12.785 -1.3480 -0.5085  0.6001
 9961TIP3   OH251373   6.466   3.517  16.714 -0.7938  0.2993  0.1979
 9961TIP3    H151374   6.386   3.467  16.731 -1.6126  1.6541  0.4456
 9961TIP3    H251375   6.448   3.604  16.749  1.0183  0.4784  0.7888
 9962TIP3   OH251376   2.646   3.832  15.657 -0.1873 -0.4190  0.6394
 9962TIP3    H151377   2.590   3.865  15.586  0.7039  0.1929  0.2046
 9962TIP3    H251378   2.585   3.797  15.721 -1.3345  3.2970  1.8138
 9963TIP3   OH251379   1.532   5.354   2.319  0.1207 -0.2125  0.0698
 9963TIP3    H151380   1.436   5.356   2.323  0.1556  0.4474  0.7977
 9963TIP3    H251381   1.560   5.374   2.408  0.9449 -0.2242 -0.1782
 9964TIP3   OH251382   3.017   0.782  11.999  0.0378 -0.1392  0.4117
 9964TIP3    H151383   3.097   0.729  12.005 -0.4655 -1.3425 -1.9830
 9964TIP3    H251384   3.039   0.865  12.040  1.5421 -1.4765  2.4605
 9965TIP3   OH251385   3.242   2.309   4.408  0.3313 -0.0705  0.1625
 9965TIP3    H151386   3.329   2.345   4.394  0.0527  0.2129 -0.9359
 9965TIP3    H251387   3.187   2.384   4.429  0.0241 -0.0154 -0.7951
 9966TIP3   OH251388   3.199   1.466   5.497 -0.1870  0.0698  0.6115
 9966TIP3    H151389   3.238   1.503   5.576 -1.4837 -1.8816  2.2689
 9966TIP3    H251390   3.255   1.391   5.475 -0.4759 -0.0707  0.3501
 9967TIP3   OH251391   4.711   0.648   1.190 -0.0431  0.1552  0.3177
 9967TIP3    H151392   4.718   0.733   1.232 -0.6496  1.1309 -1.4700
 9967TIP3    H251393   4.719   0.585   1.262 -0.6349  1.7221  1.8177
 9968TIP3   OH251394   1.387   0.187   5.745  0.4018 -0.8855  0.3091
 9968TIP3    H151395   1.356   0.125   5.810 -1.8424  1.8109  2.0469
 9968TIP3    H251396   1.319   0.188   5.678 -0.0114  0.2322  0.7221
 9969TIP3   OH251397   2.381   5.346  14.508  0.1510  0.3466 -0.1475
 9969TIP3    H151398   2.456   5.380  14.458  0.0253 -0.0363 -0.6078
 9969TIP3    H251399   2.319   5.317  14.441  0.3868 -1.0873  0.2083
 9970TIP3   OH251400   2.204   2.674  15.630  0.8256 -0.2814 -0.6998
 9970TIP3    H151401   2.136   2.729  15.591  0.6545 -0.4855 -0.6912
 9970TIP3    H251402   2.283   2.729  15.628  0.4144  0.3892  0.3359
 9971TIP3   OH251403   4.018   3.926  11.980  0.1995  0.6081 -0.1188
 9971TIP3    H151404   4.051   3.881  11.902 -0.0565  1.3415 -0.6638
 9971TIP3    H251405   3.967   3.859  12.026 -0.3389  0.3798 -1.0161
 9972TIP3   OH251406   1.688   4.848   4.200 -0.3944  0.5202 -0.6194
 9972TIP3    H151407   1.636   4.781   4.156 -0.7364  0.3813 -0.0179
 9972TIP3    H251408   1.683   4.825   4.293  0.3152  0.8047 -0.5024
 9973TIP3   OH251409   0.409   4.976  12.262  0.1495  0.1033 -0.0972
 9973TIP3    H151410   0.350   5.020  12.324 -0.4728 -0.7471 -0.0669
 9973TIP3    H251411   0.361   4.976  12.179 -0.5237 -1.7944  0.2398
 9974TIP3   OH251412   2.220   6.627   1.024  0.3154  0.3026 -0.3893
 9974TIP3    H151413   2.165   6.562   1.067  0.3989  0.6557  0.2716
 9974TIP3    H251414   2.172   6.710   1.036  1.1054  0.6600  0.4454
 9975TIP3   OH251415   2.583   0.338   1.087  0.1520  0.5056 -0.5244
 9975TIP3    H151416   2.562   0.428   1.113  0.4424  1.3033 -2.7715
 9975TIP3    H251417   2.659   0.347   1.029 -0.2252 -1.1080 -1.3454
 9976TIP3   OH251418   5.272   0.866   2.377 -0.3228 -0.5569 -0.1821
 9976TIP3    H151419   5.186   0.904   2.361  0.9205  2.3439 -0.6671
 9976TIP3    H251420   5.294   0.821   2.295 -0.2226  1.2388 -1.2003
 9977TIP3   OH251421   3.601   2.902  13.144  0.3449 -0.6363 -0.1696
 9977TIP3    H151422   3.632   2.834  13.203  0.0579 -0.3826  0.2768
 9977TIP3    H251423   3.631   2.984  13.183 -1.3406 -0.3384  0.5777
 9978TIP3   OH251424   0.559   5.318  16.078  0.1882  0.8055 -0.7354
 9978TIP3    H151425   0.485   5.315  16.017 -0.4610 -0.0142  0.0501
 9978TIP3    H251426   0.617   5.247  16.050  0.7453  1.5300 -1.4292
 9979TIP3   OH251427   5.272   1.678   3.492  0.3279  0.3670  0.0465
 9979TIP3    H151428   5.201   1.621   3.523  1.1953 -0.3173  0.8157
 9979TIP3    H251429   5.246   1.766   3.521 -0.1252  0.0969  0.4726
 9980TIP3   OH251430   2.708   4.657   3.814 -0.2509  0.1376 -0.5413
 9980TIP3    H151431   2.717   4.661   3.719 -3.8882  1.4621 -0.9985
 9980TIP3    H251432   2.673   4.743   3.838  2.0674  0.4368  2.2863
 9981TIP3   OH251433   6.457   0.317   0.063 -0.2421  0.1244  0.0534
 9981TIP3    H151434   6.432   0.353   0.148 -2.9458 -1.5247  0.0607
 9981TIP3    H251435   6.401   0.240   0.052  2.2773 -1.5994 -1.8393
 9982TIP3   OH251436   3.055   2.307   5.075  0.0428  0.0730  0.4467
 9982TIP3    H151437   3.020   2.250   5.144  0.0430 -0.9183 -0.3519
 9982TIP3    H251438   3.123   2.255   5.033  1.0105  1.1826  0.5832
 9983TIP3   OH251439   3.292   4.478   4.521 -0.0765  0.6145 -0.0077
 9983TIP3    H151440   3.299   4.384   4.507 -2.2202  0.5718 -1.2641
 9983TIP3    H251441   3.317   4.491   4.612  0.5779 -1.1031  0.1002
 9984TIP3   OH251442   3.238   3.037  16.675 -0.1316  0.2060 -0.0205
 9984TIP3    H151443   3.180   3.107  16.704  1.3456  0.8872  1.4816
 9984TIP3    H251444   3.301   3.081  16.617  0.7183  0.1161  0.8191
 9985TIP3   OH251445   3.047   1.816  10.486 -0.2827 -0.3758  0.0034
 9985TIP3    H151446   3.055   1.903  10.525 -0.7633  0.1096 -0.9512
 9985TIP3    H251447   3.129   1.772  10.509 -0.0809  0.2856  0.5969
 9986TIP3   OH251448   3.921   0.552  11.759  0.2253  0.3276 -0.0012
 9986TIP3    H151449   4.004   0.530  11.717 -0.8158 -0.3256 -1.8999
 9986TIP3    H251450   3.945   0.591  11.843  2.3908 -1.2385  0.1934
 9987TIP3   OH251451   3.218   0.552  15.142 -1.0890  0.8265 -0.7439
 9987TIP3    H151452   3.212   0.633  15.193  0.0579  1.0073 -0.8715
 9987TIP3    H251453   3.157   0.565  15.069 -1.7652  1.0937 -0.1469
 9988TIP3   OH251454   6.664   1.414   5.471  0.2701  0.7155 -0.3723
 9988TIP3    H151455   6.735   1.479   5.469  1.4435 -0.3694  1.8748
 9988TIP3    H251456   6.672   1.368   5.387  0.6044  2.2378 -1.2102
 9989TIP3   OH251457   0.771   0.959  11.746 -0.1005  0.2832 -0.0366
 9989TIP3    H151458   0.700   1.022  11.761 -0.0282  0.2589  0.4138
 9989TIP3    H251459   0.802   0.979  11.657 -1.3054 -0.3450 -0.6228
 9990TIP3   OH251460   2.502   2.589  13.436 -0.1688 -0.1074 -0.8121
 9990TIP3    H151461   2.561   2.570  13.509 -1.8725  1.0539  1.0185
 9990TIP3    H251462   2.457   2.507  13.419  0.6851 -0.5459 -0.9890
 9991TIP3   OH251463   6.079   6.055   4.923 -0.2151  0.3205 -0.1832
 9991TIP3    H151464   6.165   6.060   4.965  0.5181 -1.1089 -1.4098
 9991TIP3    H251465   6.057   5.962   4.925 -1.6294  0.6225 -0.1551
 9992TIP3   OH251466   3.899   0.223   1.645  0.2650  0.1425 -0.2359
 9992TIP3    H151467   3.831   0.274   1.602 -1.1379 -1.1237  0.3917
 9992TIP3    H251468   3.976   0.280   1.644 -1.0276  1.9753 -0.1718
 9993TIP3   OH251469   2.414   2.486   2.045  0.2877 -0.0872 -0.2048
 9993TIP3    H151470   2.396   2.532   2.127  0.7553  0.7503 -0.5557
 9993TIP3    H251471   2.489   2.533   2.007  0.4419 -0.8183 -0.8356
 9994TIP3   OH251472   4.459   3.235  14.476  1.1337  0.3203  0.1305
 9994TIP3    H151473   4.467   3.270  14.565  2.1654 -0.3718  0.3261
 9994TIP3    H251474   4.412   3.152  14.486 -0.0930  0.9608 -0.1664
 9995TIP3   OH251475   0.477   2.251  14.255 -0.1122 -0.1525  0.0966
 9995TIP3    H151476   0.463   2.161  14.282 -0.8696 -0.4134 -1.1054
 9995TIP3    H251477   0.545   2.284  14.315  2.0022 -2.2689 -0.9517
 9996TIP3   OH251478   3.178   1.274   1.015  0.1089 -0.3407  0.6336
 9996TIP3    H151479   3.105   1.297   1.073  0.5138  3.2962 -0.0379
 9996TIP3    H251480   3.180   1.345   0.951  2.4632 -1.8758 -1.1279
 9997TIP3   OH251481   6.089   0.097  11.038  0.0552 -0.1520 -0.1157
 9997TIP3    H151482   6.180   0.102  11.010 -0.1225  1.2603 -0.5189
 9997TIP3    H251483   6.063   0.007  11.019  1.3115 -0.5197 -0.1567
 9998TIP3   OH251484   1.648   5.739   1.310  0.0522  0.4631 -0.2875
 9998TIP3    H151485   1.740   5.715   1.322 -0.1995  0.6907  2.8329
 9998TIP3    H251486   1.600   5.678   1.365 -1.4735  1.7671 -0.0993
 9999TIP3   OH251487   2.449   4.816   4.787  0.1100 -0.5255  0.2894
 9999TIP3    H151488   2.376   4.873   4.760 -0.0677 -1.1265 -0.5515
 9999TIP3    H251489   2.527   4.870   4.774 -0.1556  0.0550  1.0048
10000TIP3   OH251490   6.031   6.553   2.989 -0.4157 -1.0174 -0.0244
10000TIP3    H151491   5.941   6.548   2.956 -0.4796  0.1812 -0.0773
10000TIP3    H251492   6.053   6.463   3.012 -1.4726 -1.3960 -0.4237
10001TIP3   OH251493   0.267   0.236   0.129 -0.0150 -0.0257 -0.6240
10001TIP3    H151494   0.278   0.142   0.118  0.0611 -0.1739  0.5794
10001TIP3    H251495   0.268   0.250   0.224 -0.8999  1.0820 -0.7520
10002TIP3   OH251496   0.887   3.200  12.472 -0.1150  0.4468 -0.4029
10002TIP3    H151497   0.801   3.172  12.442 -0.5321  0.0724  1.0527
10002TIP3    H251498   0.936   3.119  12.484 -1.5666 -0.0114  4.5397
10003TIP3   OH251499   2.329   3.542   0.465  0.2099  0.2239 -0.2454
10003TIP3    H151500   2.286   3.464   0.428  0.5072 -0.2672  0.4186
10003TIP3    H251501   2.402   3.560   0.406  1.7128 -1.5682  0.9373
10004TIP3   OH251502   5.554   0.143  17.045  0.4100 -0.1821  0.3477
10004TIP3    H151503   5.519   0.075  17.102 -0.3304 -0.3351 -0.2748
10004TIP3    H251504   5.642   0.161  17.080 -0.1487 -0.0283  1.7389
10005TIP3   OH251505   4.910   2.498  14.357  0.4526  0.1704 -0.7462
10005TIP3    H151506   4.911   2.497  14.262  0.9979 -0.4966 -0.7427
10005TIP3    H251507   4.969   2.570  14.381 -0.2047  0.7741 -0.9058
10006TIP3   OH251508   5.121   0.104   5.662  0.1222 -0.1218  0.8082
10006TIP3    H151509   5.079   0.035   5.713 -1.5989  0.2009 -0.0870
10006TIP3    H251510   5.049   0.157   5.629  1.3414  1.4055  0.4648
10007TIP3   OH251511   2.958   1.580   0.378 -0.5000 -0.0313 -0.2769
10007TIP3    H151512   2.888   1.646   0.380 -0.8539 -0.4209  1.4604
10007TIP3    H251513   3.003   1.596   0.294 -0.7687  2.2040 -0.0631
10008TIP3   OH251514   2.325   1.122   6.403  0.5636  0.4721  0.5735
10008TIP3    H151515   2.272   1.062   6.350  0.5473  1.3519 -0.4454
10008TIP3    H251516   2.368   1.065   6.467  1.5147 -0.8436 -1.1383
10009TIP3   OH251517   6.334   3.495  11.394 -0.0395 -0.4547  0.2834
10009TIP3    H151518   6.369   3.427  11.336 -1.0977 -0.9781  0.2530
10009TIP3    H251519   6.393   3.495  11.469  0.0934 -1.2529  0.1842
10010TIP3   OH251520   3.843   3.780   1.553  0.4476 -0.2861 -0.0532
10010TIP3    H151521   3.933   3.812   1.559  0.2227  0.8128 -2.0074
10010TIP3    H251522   3.841   3.705   1.613  2.0758  0.9173  1.6099
10011TIP3   OH251523   0.320   2.569   1.157 -0.1379 -0.8166 -0.0783
10011TIP3    H151524   0.284   2.484   1.132  0.1840 -1.2535  0.9087
10011TIP3    H251525   0.305   2.575   1.251  1.6021 -0.6640  0.2304
10012TIP3   OH251526   4.003   5.491  15.958 -0.0749  0.4839  0.3883
10012TIP3    H151527   4.097   5.490  15.940 -0.1800  1.8113 -0.3069
10012TIP3    H251528   3.997   5.460  16.049  0.8207 -1.7487 -0.2365
10013TIP3   OH251529   5.370   2.823  12.043 -0.0329 -0.4600  0.0166
10013TIP3    H151530   5.328   2.817  12.129  0.8502  0.2847  0.5214
10013TIP3    H251531   5.411   2.737  12.030  1.2920 -0.0330  1.1428
10014TIP3   OH251532   1.708   1.664   3.931 -0.2389 -0.3290  0.2575
10014TIP3    H151533   1.744   1.685   4.018  0.1192  2.5894 -0.5041
10014TIP3    H251534   1.786   1.656   3.875 -0.4959 -1.6370  0.0633
10015TIP3   OH251535   5.091   0.666  14.537  0.3457  0.0597 -0.1430
10015TIP3    H151536   5.027   0.596  14.527  1.8057 -1.4232  0.4048
10015TIP3    H251537   5.124   0.656  14.627  1.3198  0.8036 -0.3945
10016TIP3   OH251538   3.262   1.253   2.460 -0.0052  0.7488 -0.3765
10016TIP3    H151539   3.318   1.177   2.476 -0.1595  0.8250  0.6337
10016TIP3    H251540   3.304   1.300   2.388 -1.3174 -1.6630 -2.8902
10017TIP3   OH251541   5.079   4.371  16.685 -0.7879 -0.4858  0.1493
10017TIP3    H151542   5.041   4.453  16.653 -0.0837 -0.6675 -1.1963
10017TIP3    H251543   5.003   4.317  16.707 -1.2870  0.7839  1.8732
10018TIP3   OH251544   4.916   5.322   0.944 -0.2074 -0.4770 -0.5665
10018TIP3    H151545   4.973   5.393   0.974  0.8044  0.2070 -3.6765
10018TIP3    H251546   4.848   5.367   0.894 -1.2026 -1.5560 -0.2060
10019TIP3   OH251547   1.474   1.520  15.749  0.4823  0.0011  0.3159
10019TIP3    H151548   1.454   1.601  15.797  1.7861  0.2915  0.4104
10019TIP3    H251549   1.529   1.469  15.809 -1.4341 -1.6008  0.7918
10020TIP3   OH251550   6.817   5.525   2.717  0.3263 -0.3527  0.2585
10020TIP3    H151551   6.850   5.453   2.770  0.5795 -1.5304 -1.4164
10020TIP3    H251552   6.894   5.560   2.673 -0.0377 -0.2402 -0.3073
10021TIP3   OH251553   2.811   4.495  16.926 -0.1264 -0.1563 -0.0909
10021TIP3    H151554   2.805   4.434  16.852 -0.5403 -0.0116 -0.1788
10021TIP3    H251555   2.887   4.465  16.976  0.8985  0.4925 -1.2332
10022TIP3   OH251556   3.842   0.095  11.748 -0.1040 -0.6010 -0.7496
10022TIP3    H151557   3.929   0.064  11.722 -0.2542 -0.8765 -0.9244
10022TIP3    H251558   3.783   0.023  11.727 -0.4159 -0.3076 -0.8935
10023TIP3   OH251559   2.264   5.211   2.769 -0.1370 -0.5281 -0.5250
10023TIP3    H151560   2.342   5.262   2.790  0.7998 -1.4872 -1.5845
10023TIP3    H251561   2.201   5.236   2.837  0.8540  0.7518 -0.0308
10024TIP3   OH251562   4.477   0.203   1.713  0.2193  0.2504  0.6692
10024TIP3    H151563   4.442   0.114   1.717 -0.3236  0.4908  1.4186
10024TIP3    H251564   4.555   0.200   1.768  0.0227  0.3158  0.9523
10025TIP3   OH251565   5.107   2.836  13.012 -0.1830 -0.1224 -0.0308
10025TIP3    H151566   5.189   2.788  13.019  0.1923  0.2739 -1.4622
10025TIP3    H251567   5.124   2.919  13.058  0.1919 -0.0737 -0.2548
10026TIP3   OH251568   1.930   2.187  16.061  0.1450  0.5373 -0.6307
10026TIP3    H151569   1.973   2.160  16.143 -0.4306  2.9110  0.5683
10026TIP3    H251570   2.003   2.209  16.003  0.5752 -1.6329 -0.9946
10027TIP3   OH251571   0.620   2.504  13.222  0.2132  0.1671  0.2861
10027TIP3    H151572   0.537   2.540  13.190 -0.3488 -1.2943  0.0306
10027TIP3    H251573   0.653   2.451  13.149 -0.3337 -2.0050  1.5306
10028TIP3   OH251574   2.166   2.243  15.354 -0.7096 -0.1263  0.2982
10028TIP3    H151575   2.176   2.305  15.426  0.1962  1.0637 -0.8031
10028TIP3    H251576   2.255   2.231  15.321 -0.9038 -1.8774  0.3557
10029TIP3   OH251577   2.308   1.114   4.151  0.1655  0.4911  0.2198
10029TIP3    H151578   2.382   1.141   4.097  0.9619 -0.3490  0.8690
10029TIP3    H251579   2.292   1.189   4.208  0.3091  0.7948 -0.1346
10030TIP3   OH251580   6.473   0.470   4.772  0.0178 -0.6035  0.0987
10030TIP3    H151581   6.568   0.461   4.770  0.0241 -0.4522 -0.6064
10030TIP3    H251582   6.443   0.423   4.695 -0.4791 -0.6123  0.2949
10031TIP3   OH251583   1.929   4.264   5.258  0.0533  0.0885 -0.1028
10031TIP3    H151584   1.917   4.248   5.352  2.8246 -0.0312  0.3137
10031TIP3    H251585   1.915   4.358   5.248  0.1991  0.1817  0.5175
10032TIP3   OH251586   5.346   3.198  11.488  0.6725  0.4587  0.0884
10032TIP3    H151587   5.346   3.108  11.520 -2.0511  0.6960  0.9901
10032TIP3    H251588   5.437   3.215  11.467  1.4390 -2.1645  0.8402
10033TIP3   OH251589   6.452   3.013   0.881 -0.1076 -0.8144 -0.1751
10033TIP3    H151590   6.423   2.927   0.911  0.6144 -0.5000  1.4992
10033TIP3    H251591   6.476   3.060   0.960  0.2635  0.6722 -1.1236
10034TIP3   OH251592   0.646   4.319  12.086 -0.3296 -0.6069  0.5248
10034TIP3    H151593   0.608   4.258  12.023 -0.7259  0.4927 -0.3347
10034TIP3    H251594   0.608   4.294  12.170 -2.1132 -0.2457 -0.1343
10035TIP3   OH251595   1.637   3.279   0.069  0.9949  0.0656 -0.4805
10035TIP3    H151596   1.711   3.301   0.127  0.1497 -1.0528  1.0939
10035TIP3    H251597   1.561   3.318   0.113  0.3782 -0.5288 -1.0080
10036TIP3   OH251598   1.043   2.446   2.902 -0.1673  0.2151 -0.2867
10036TIP3    H151599   1.118   2.419   2.955  0.4331  0.9246 -0.7479
10036TIP3    H251600   0.971   2.455   2.964  0.4948  0.9451  0.4092
10037TIP3   OH251601   0.438   4.843   0.798  0.7188  0.0832  0.2505
10037TIP3    H151602   0.475   4.777   0.740  0.9252 -0.7558  1.3086
10037TIP3    H251603   0.432   4.922   0.744  0.4514 -0.7880 -1.0387
10038TIP3   OH251604   0.410   3.697   3.653  0.3764 -0.3055  0.4535
10038TIP3    H151605   0.428   3.621   3.597 -1.8437 -0.9731  0.5343
10038TIP3    H251606   0.415   3.664   3.742  1.0059  0.0452  0.5508
10039TIP3   OH251607   2.194   5.489   5.655 -0.5960  0.1387 -0.5971
10039TIP3    H151608   2.226   5.492   5.745 -0.3426  0.4541 -0.6942
10039TIP3    H251609   2.266   5.525   5.603 -1.0856  0.7941 -0.8287
10040TIP3   OH251610   1.868   2.810  13.410 -0.0258 -0.2144  0.2360
10040TIP3    H151611   1.899   2.751  13.341 -2.0364 -0.1503 -0.7705
10040TIP3    H251612   1.782   2.776  13.434  0.5588 -0.1443  2.6582
10041TIP3   OH251613   2.272   3.396   2.702 -0.2475 -0.3154 -0.7110
10041TIP3    H151614   2.224   3.338   2.760 -1.4037 -0.3785 -1.7037
10041TIP3    H251615   2.205   3.452   2.663  0.9144  2.7986  1.3424
10042TIP3   OH251616   2.898   0.294  16.447  0.5012 -0.0816 -0.5544
10042TIP3    H151617   2.865   0.379  16.477  0.0641 -0.5168  0.2334
10042TIP3    H251618   2.821   0.236  16.450  0.5674 -0.2777 -2.0135
10043TIP3   OH251619   1.493   1.510  17.065  0.1891  0.3441 -0.4781
10043TIP3    H151620   1.419   1.484  17.121  1.3839 -0.2389  0.9025
10043TIP3    H251621   1.493   1.605  17.068 -1.7454  0.4629 -2.2167
10044TIP3   OH251622   1.361   3.010   2.517 -0.5739  0.0839  0.3256
10044TIP3    H151623   1.439   3.030   2.568 -1.1535  0.8510  0.9293
10044TIP3    H251624   1.378   2.923   2.480  0.5958  0.2801  0.3750
10045TIP3   OH251625   1.959   4.152  12.743  0.3334 -0.5284  0.2918
10045TIP3    H151626   1.974   4.238  12.781  1.8511 -0.1651 -1.0322
10045TIP3    H251627   2.040   4.104  12.761 -0.3981 -1.6165  0.7903
10046TIP3   OH251628   0.678   4.511  12.670  0.0985 -0.3269 -0.0664
10046TIP3    H151629   0.623   4.589  12.680  0.4134 -0.2431  1.3515
10046TIP3    H251630   0.689   4.501  12.576  1.3563  2.2891 -0.2926
10047TIP3   OH251631   2.441   5.080  13.570 -0.4354  0.2531  0.0713
10047TIP3    H151632   2.491   5.077  13.489  1.3361 -0.2992  1.1310
10047TIP3    H251633   2.361   5.032  13.550  0.3275 -0.5775 -1.1216
10048TIP3   OH251634   5.474   2.708  17.164 -0.2683  0.3592 -0.1761
10048TIP3    H151635   5.379   2.711  17.153 -0.4776  1.5015  1.4995
10048TIP3    H251636   5.491   2.626  17.210 -0.6441  0.8711  0.9040
10049TIP3   OH251637   3.866   5.699   1.146 -0.1448  0.2752 -0.2878
10049TIP3    H151638   3.868   5.795   1.153 -1.5128  0.3959 -1.1172
10049TIP3    H251639   3.865   5.682   1.052  0.0953 -0.5545 -0.1456
10050TIP3   OH251640   2.852   6.462  16.781  0.2936  0.0535  0.5024
10050TIP3    H151641   2.827   6.405  16.853  1.9719 -2.5638 -0.8258
10050TIP3    H251642   2.776   6.519  16.768 -1.5833 -1.9961  1.8210
10051TIP3   OH251643   3.923   2.089  13.421 -0.1456  0.1843 -0.2204
10051TIP3    H151644   3.891   2.024  13.359  0.4467  0.7616 -1.1423
10051TIP3    H251645   3.857   2.090  13.490 -1.4730  0.4431 -1.4491
10052TIP3   OH251646   2.911   3.916  11.370  0.0918  0.4121  0.1378
10052TIP3    H151647   2.844   3.907  11.437 -2.2135 -0.2913 -2.0923
10052TIP3    H251648   2.928   3.826  11.340  1.5128  0.6467  0.1489
10053TIP3   OH251649   6.487   0.550   0.462  0.4521  0.5452 -0.0848
10053TIP3    H151650   6.547   0.491   0.416  1.3918  0.3555  1.3293
10053TIP3    H251651   6.426   0.493   0.507 -0.6416  0.7364 -1.2559
10054TIP3   OH251652   0.049   3.187  12.790 -0.2958 -0.2474  0.0654
10054TIP3    H151653   0.088   3.167  12.705 -0.0516  1.7388 -0.3372
10054TIP3    H251654   0.039   3.282  12.790  0.1633 -0.1370  2.4581
10055TIP3   OH251655   5.805   2.719   5.416 -0.2932 -0.4090  0.2301
10055TIP3    H151656   5.839   2.704   5.504  1.8340 -4.2091 -1.0312
10055TIP3    H251657   5.877   2.763   5.370 -1.1609  0.9954  0.1469
10056TIP3   OH251658   2.955   5.335  14.161  0.7494 -0.3374 -0.7046
10056TIP3    H151659   3.037   5.357  14.116  1.2635 -1.7904 -0.5517
10056TIP3    H251660   2.945   5.403  14.227  2.0954 -0.3814 -0.4156
10057TIP3   OH251661   3.156   2.041   2.335 -0.3667  0.0245  0.7247
10057TIP3    H151662   3.204   2.059   2.416  1.0767 -0.8907  0.1332
10057TIP3    H251663   3.067   2.019   2.363 -0.3469  1.3778  1.9082
10058TIP3   OH251664   4.443   6.464   0.621  0.3734 -0.0380  0.7394
10058TIP3    H151665   4.422   6.530   0.688  0.0053  3.0854 -2.1789
10058TIP3    H251666   4.537   6.471   0.610  0.7604 -2.0479  2.2302
10059TIP3   OH251667   1.213   4.313  11.820  0.3860  0.5115  0.3306
10059TIP3    H151668   1.274   4.384  11.841 -0.4325  1.7516 -1.2483
10059TIP3    H251669   1.253   4.269  11.745 -1.2603  2.2880 -1.7181
10060TIP3   OH251670   6.048   4.041   0.684  0.2293  0.3620  0.4111
10060TIP3    H151671   5.998   3.991   0.749  1.4141 -0.7566  0.5069
10060TIP3    H251672   5.984   4.099   0.644 -1.3648 -1.6047 -0.0728
10061TIP3   OH251673   6.704   4.062   3.839  0.3392  0.0823  0.8485
10061TIP3    H151674   6.658   3.994   3.889 -1.1956 -1.1078 -1.9380
10061TIP3    H251675   6.752   4.013   3.772 -0.0427  1.6799 -0.6500
10062TIP3   OH251676   2.771   2.578  15.962  0.5142  0.2118  0.0785
10062TIP3    H151677   2.717   2.498  15.964  1.0929 -0.1961 -0.2952
10062TIP3    H251678   2.861   2.545  15.967  0.7287  0.9477  2.9057
10063TIP3   OH251679   5.267   2.773  16.065 -0.1586 -0.0476 -0.2966
10063TIP3    H151680   5.233   2.855  16.100 -1.7012 -0.3550 -0.9648
10063TIP3    H251681   5.209   2.706  16.102 -0.1922 -0.6202 -1.3542
10064TIP3   OH251682   2.372   2.755   3.691 -0.0364 -0.0151  0.6172
10064TIP3    H151683   2.446   2.710   3.650 -1.3519 -2.4342  0.6940
10064TIP3    H251684   2.412   2.810   3.759  1.7459 -0.3745 -0.0796
10065TIP3   OH251685   3.072   5.132  10.681  0.3492  0.3194 -0.0590
10065TIP3    H151686   3.146   5.153  10.623 -0.5323 -0.0672 -1.3670
10065TIP3    H251687   3.068   5.036  10.680  0.5691  0.2881  0.9898
10066TIP3   OH251688   1.331   3.276   0.316 -0.6173 -0.7119 -0.5248
10066TIP3    H151689   1.416   3.317   0.331  0.1182 -1.4527 -2.3241
10066TIP3    H251690   1.268   3.334   0.358  0.8410 -0.6947  1.7846
10067TIP3   OH251691   5.173   0.270   0.060  0.3063  0.0452 -0.1719
10067TIP3    H151692   5.232   0.320   0.003  1.0591  1.1915  1.5387
10067TIP3    H251693   5.091   0.320   0.058  1.1162  1.5593  1.6866
10068TIP3   OH251694   1.115   5.725  15.324 -0.3433 -0.2610 -0.7656
10068TIP3    H151695   1.067   5.783  15.265 -0.6304 -0.3805 -0.6499
10068TIP3    H251696   1.062   5.723  15.404  0.1311  0.0391 -0.4394
10069TIP3   OH251697   2.007   4.613  16.503 -0.3664  0.0150  0.3117
10069TIP3    H151698   1.979   4.559  16.429 -0.2403 -0.3021  0.4939
10069TIP3    H251699   1.985   4.561  16.581  4.1589 -2.0904  0.4962
10070TIP3   OH251700   2.024   6.162   4.595  0.4201  0.3337  0.0070
10070TIP3    H151701   2.074   6.083   4.574 -0.8726 -0.5424  0.1172
10070TIP3    H251702   2.080   6.234   4.566  1.1732 -0.6465 -1.0725
10071TIP3   OH251703   5.186   0.141   2.832  0.1144 -0.3131 -0.1213
10071TIP3    H151704   5.099   0.180   2.835  0.3483  0.1923  1.8869
10071TIP3    H251705   5.193   0.091   2.914  1.0909 -1.7688 -1.0545
10072TIP3   OH251706   2.014   4.909  16.128  1.0787  0.0712 -0.2210
10072TIP3    H151707   2.109   4.917  16.131  0.9337  2.4516 -0.2059
10072TIP3    H251708   1.983   4.961  16.203 -0.2423 -0.8041 -0.1226
10073TIP3   OH251709   1.191   6.400   4.586  0.2550 -0.4005 -0.1751
10073TIP3    H151710   1.168   6.318   4.628  0.9369  0.6285  2.3737
10073TIP3    H251711   1.114   6.456   4.599 -0.3588 -0.6767 -2.2249
10074TIP3   OH251712   0.240   0.308   4.091 -0.2823 -0.4725  0.1256
10074TIP3    H151713   0.184   0.239   4.056 -0.0426 -0.9049  0.5848
10074TIP3    H251714   0.306   0.322   4.022 -0.8920 -0.0111 -0.3825
10075TIP3   OH251715   3.029   5.360   3.529 -0.1968 -0.4449 -0.8850
10075TIP3    H151716   3.018   5.447   3.566  0.9038 -0.8389  0.4304
10075TIP3    H251717   3.008   5.300   3.600 -1.5659 -1.3095 -1.9491
10076TIP3   OH251718   4.822   6.793  13.508  0.7138 -0.0810  0.4709
10076TIP3    H151719   4.830   6.698  13.500  0.3689 -0.2608  1.9125
10076TIP3    H251720   4.856   6.827  13.426 -1.0294 -1.5245 -0.9330
10077TIP3   OH251721   6.796   5.060  13.486  0.5309 -0.3877  0.1544
10077TIP3    H151722   6.754   5.030  13.405  1.2932 -1.8873  0.2612
10077TIP3    H251723   6.745   5.020  13.556  2.8064 -3.5293  0.2722
10078TIP3   OH251724   2.230   4.549   2.719 -0.3327  0.3800  0.4809
10078TIP3    H151725   2.137   4.529   2.732 -0.4740  0.6687 -0.0401
10078TIP3    H251726   2.263   4.568   2.807 -0.7195  0.0828  0.6939
10079TIP3   OH251727   1.891   4.405  14.724 -0.2241  0.2635  0.3750
10079TIP3    H151728   1.983   4.385  14.742  0.9920  3.2276 -1.7582
10079TIP3    H251729   1.856   4.437  14.807  1.2947  1.0702  0.7297
10080TIP3   OH251730   4.785   1.787  11.519 -0.0233  0.4697  0.2032
10080TIP3    H151731   4.879   1.795  11.505 -0.0979 -1.3458 -1.9062
10080TIP3    H251732   4.752   1.876  11.514  1.4067  0.9862 -0.5814
10081TIP3   OH251733   0.217   4.283  15.325  0.3151  0.2095 -0.3539
10081TIP3    H151734   0.186   4.241  15.245  1.8423  0.0180 -0.8795
10081TIP3    H251735   0.163   4.246  15.394 -0.4000 -0.3320 -1.1811
10082TIP3   OH251736   1.998   4.776  11.792  0.1410 -0.6736 -0.2598
10082TIP3    H151737   2.055   4.699  11.796  0.2105 -0.5964  0.3459
10082TIP3    H251738   1.910   4.741  11.804  0.1599 -0.6763 -0.1248
10083TIP3   OH251739   3.689   5.640   4.573  0.5022 -0.2486 -0.1180
10083TIP3    H151740   3.734   5.562   4.542  1.4984  0.0240  0.5895
10083TIP3    H251741   3.625   5.660   4.505 -0.1816 -2.0139 -0.0352
10084TIP3   OH251742   3.574   2.816   2.839  0.4803 -0.3554 -0.1041
10084TIP3    H151743   3.663   2.795   2.867  0.6680 -0.7028 -0.9424
10084TIP3    H251744   3.577   2.910   2.820  0.0778  0.1502  1.9835
10085TIP3   OH251745   1.663   2.511   3.241 -0.0877  0.1870 -0.0641
10085TIP3    H151746   1.673   2.594   3.194  1.9323  0.4315  0.6721
10085TIP3    H251747   1.744   2.463   3.222 -0.9676 -1.3970 -0.0155
10086TIP3   OH251748   0.896   0.150   0.621  0.0972  0.0443  0.1099
10086TIP3    H151749   0.885   0.241   0.595  0.9785  0.9731  2.6534
10086TIP3    H251750   0.859   0.145   0.710  0.9625 -1.8104  0.4260
10087TIP3   OH251751   0.319   6.361   0.604 -0.5551 -0.1214  0.2709
10087TIP3    H151752   0.276   6.348   0.689  0.9720  0.1184  1.1304
10087TIP3    H251753   0.387   6.294   0.601  0.5277  0.9433  0.0283
10088TIP3   OH251754   3.343   4.578  14.891 -0.8354  0.0970 -0.0432
10088TIP3    H151755   3.262   4.545  14.852  0.3835 -0.9839 -1.8143
10088TIP3    H251756   3.369   4.651  14.835 -0.2757  0.0445  0.1447
10089TIP3   OH251757   3.039   1.851   2.996 -0.3804  0.3169  0.3550
10089TIP3    H151758   3.101   1.852   3.069  0.0789 -1.5405  0.0573
10089TIP3    H251759   3.073   1.916   2.935  1.2753 -0.5993  0.2346
10090TIP3   OH251760   4.324   3.636  17.050  0.5674 -0.2241 -0.3382
10090TIP3    H151761   4.232   3.613  17.063  0.3927 -1.4936 -3.1141
10090TIP3    H251762   4.322   3.728  17.022 -0.0134 -0.6263 -1.6686
10091TIP3   OH251763   2.303   4.110  15.698  0.4208 -0.3180  0.2555
10091TIP3    H151764   2.245   4.156  15.638  1.7462 -0.4447 -1.2159
10091TIP3    H251765   2.283   4.146  15.784 -0.2490  1.2490 -0.5093
10092TIP3   OH251766   4.222   3.983  16.440 -0.0614  0.1424  0.5109
10092TIP3    H151767   4.139   3.951  16.475  0.6692 -1.4552  0.8591
10092TIP3    H251768   4.278   3.906  16.436  0.5110  0.5874 -2.4859
10093TIP3   OH251769   3.024   5.762  11.187 -0.5893  0.0121  0.6449
10093TIP3    H151770   3.081   5.724  11.119  0.9342  3.1227 -0.0464
10093TIP3    H251771   3.077   5.758  11.267 -0.2881  0.8864  0.4979
10094TIP3   OH251772   4.134   2.755   2.994 -0.0618 -0.1980  0.2543
10094TIP3    H151773   4.138   2.807   3.074  1.4183  0.7089 -0.3474
10094TIP3    H251774   4.092   2.673   3.019 -0.7816  0.5798  1.6539
10095TIP3   OH251775   3.083   1.349  12.878  0.1297  0.0810  0.1575
10095TIP3    H151776   3.171   1.328  12.846  0.2272 -0.5501  0.8136
10095TIP3    H251777   3.026   1.287  12.833 -0.2331  1.4997 -1.4898
10096TIP3   OH251778   2.305   2.836   0.648 -0.2751 -0.5615 -0.2296
10096TIP3    H151779   2.269   2.749   0.662 -0.2730 -0.5189  0.0381
10096TIP3    H251780   2.385   2.838   0.701 -1.0339  0.0995  0.9232
10097TIP3   OH251781   4.931   5.243  13.051  0.0882 -0.0867  0.1102
10097TIP3    H151782   5.008   5.299  13.064  0.1055 -0.0575 -0.1277
10097TIP3    H251783   4.857   5.297  13.079  0.2169 -0.3494  0.9889
10098TIP3   OH251784   1.846   2.218  13.859  0.7846  0.0105  0.2069
10098TIP3    H151785   1.782   2.147  13.868  1.0294 -0.3132 -0.5635
10098TIP3    H251786   1.931   2.174  13.860  0.9739  0.3842  0.6543
10099TIP3   OH251787   2.947   6.172   4.919  0.5058 -0.0594  0.0811
10099TIP3    H151788   3.040   6.195   4.919  1.0508 -1.9470  1.6374
10099TIP3    H251789   2.918   6.194   5.007 -0.2700 -0.4266 -0.0816
10100TIP3   OH251790   3.758   6.300   5.564  0.2409 -0.0149  0.3274
10100TIP3    H151791   3.782   6.391   5.584  1.7248 -0.3766  0.3294
10100TIP3    H251792   3.808   6.278   5.485  0.1637 -0.9180  0.5138
10101TIP3   OH251793   6.566   2.440   1.833 -0.1644 -0.4797  0.1720
10101TIP3    H151794   6.535   2.522   1.872  0.5212  0.0593 -0.3828
10101TIP3    H251795   6.496   2.415   1.773  0.0325  0.2391 -0.3857
10102TIP3   OH251796   3.724   6.766  16.556  0.1217  0.1221  0.0971
10102TIP3    H151797   3.806   6.724  16.583  0.0541 -0.9526 -1.2918
10102TIP3    H251798   3.750   6.853  16.528  0.7221 -0.0469  0.1190
10103TIP3   OH251799   5.740   2.671  13.602  0.3585 -0.2804  0.1289
10103TIP3    H151800   5.717   2.678  13.695  0.0342  0.4041  0.0034
10103TIP3    H251801   5.730   2.577  13.583 -0.7366 -0.2559  0.4970
10104TIP3   OH251802   6.507   3.399   0.446 -0.0684 -0.0850 -0.0287
10104TIP3    H151803   6.442   3.329   0.445  0.1727 -0.4745 -3.4664
10104TIP3    H251804   6.468   3.469   0.393  1.6749  0.2451 -0.9760
10105TIP3   OH251805   6.005   4.346  12.483 -0.1485  0.1841 -0.2507
10105TIP3    H151806   6.008   4.398  12.564  0.6561  0.4960 -0.4725
10105TIP3    H251807   5.921   4.300  12.487 -0.8130  1.3935  0.0234
10106TIP3   OH251808   5.626   5.734   0.040  0.2732 -0.3043 -0.3033
10106TIP3    H151809   5.552   5.726  -0.020  0.2199 -1.9940 -0.0649
10106TIP3    H251810   5.701   5.750  -0.017 -0.1638  0.9240 -0.5812
10107TIP3   OH251811   1.462   5.183   4.473 -0.0957  0.0931  0.2110
10107TIP3    H151812   1.459   5.249   4.542  0.9467  1.1174 -0.6793
10107TIP3    H251813   1.422   5.105   4.512 -2.1215  1.4677  1.0165
10108TIP3   OH251814   2.143   6.456  16.542  0.4503 -0.5273 -0.3623
10108TIP3    H151815   2.052   6.484  16.551  1.0453  2.2547 -1.6734
10108TIP3    H251816   2.180   6.463  16.630 -0.3834 -0.9203  0.0289
10109TIP3   OH251817   0.389   4.967  15.316 -0.3943  0.0463 -0.2669
10109TIP3    H151818   0.428   4.922  15.391  1.8034 -1.5174 -2.2021
10109TIP3    H251819   0.433   5.052  15.313  0.3907 -0.3586 -0.4444
10110TIP3   OH251820   3.298   5.571   0.946 -0.6373  0.2114  0.3865
10110TIP3    H151821   3.274   5.534   0.862 -2.3097 -0.6913  1.2091
10110TIP3    H251822   3.307   5.665   0.930 -0.7688  0.0326 -0.8106
10111TIP3   OH251823   4.078   6.182  14.163 -0.1350  0.5059 -0.3477
10111TIP3    H151824   4.116   6.228  14.238 -1.4407  0.2924  0.4838
10111TIP3    H251825   3.998   6.231  14.143 -0.3300 -0.0479 -0.9432
10112TIP3   OH251826   0.816   4.976  16.583  0.2290  0.1260 -0.2366
10112TIP3    H151827   0.908   4.995  16.601  0.2349 -0.7106  0.7181
10112TIP3    H251828   0.769   5.011  16.659 -0.2543  0.6418 -0.7677
10113TIP3   OH251829   5.649   5.266   5.339 -0.0339  0.1402  0.1854
10113TIP3    H151830   5.577   5.276   5.401  0.3657  1.1755  0.4894
10113TIP3    H251831   5.721   5.316   5.377  0.9107 -0.9984 -0.0387
10114TIP3   OH251832   5.187   4.016  16.596 -0.8440  0.3307 -1.1914
10114TIP3    H151833   5.198   4.001  16.502 -1.4593  2.8409 -1.7471
10114TIP3    H251834   5.094   4.004  16.613 -0.7873  0.2037 -0.9540
10115TIP3   OH251835   3.322   4.292  10.756  0.1804  0.4442 -0.0018
10115TIP3    H151836   3.394   4.350  10.729 -0.0750  0.3638 -0.9055
10115TIP3    H251837   3.363   4.227  10.812  1.3622 -1.1270 -2.4929
10116TIP3   OH251838   1.047   5.936   4.604  0.2941 -0.3658 -0.1720
10116TIP3    H151839   1.114   5.869   4.620  0.9752  0.8478  2.7690
10116TIP3    H251840   1.089   6.018   4.627 -1.5674  0.6785 -0.2695
10117TIP3   OH251841   2.793   5.945  17.074  0.4687 -0.2696  0.1749
10117TIP3    H151842   2.745   5.866  17.047  2.0151 -1.4241  0.6229
10117TIP3    H251843   2.742   6.018  17.038 -0.6095 -1.4985 -0.8959
10118TIP3   OH251844   5.703   2.966  10.524  0.0774  0.3933  0.0779
10118TIP3    H151845   5.711   2.874  10.547  1.1196  0.9181  2.0164
10118TIP3    H251846   5.609   2.979  10.509 -0.3242 -0.6291  1.4849
10119TIP3   OH251847   5.538   0.171   4.433  0.2050 -0.6582  0.0418
10119TIP3    H151848   5.443   0.173   4.420  0.2894 -1.5562 -0.8659
10119TIP3    H251849   5.574   0.184   4.345  0.9683  1.5292  0.6303
10120TIP3   OH251850   2.336   1.583   0.622 -0.5173 -0.0710  0.1149
10120TIP3    H151851   2.418   1.563   0.578 -0.9569 -0.3883 -0.5827
10120TIP3    H251852   2.339   1.531   0.703  0.2132  0.3697  0.3764
10121TIP3   OH251853   6.812   4.638   4.475  0.2322 -0.1997  0.8002
10121TIP3    H151854   6.888   4.649   4.419 -0.8031 -1.2196 -0.9087
10121TIP3    H251855   6.794   4.726   4.508 -0.8513  1.2051 -2.9309
10122TIP3   OH251856   2.713   2.392  11.770  0.2819  0.0120 -1.1290
10122TIP3    H151857   2.619   2.402  11.755  0.1223 -0.5184 -0.5223
10122TIP3    H251858   2.741   2.477  11.804  0.0568  0.2288 -1.4881
10123TIP3   OH251859   5.154   4.246   4.165  0.2524  0.3733  0.2505
10123TIP3    H151860   5.221   4.185   4.198 -0.0094 -0.7464 -1.1744
10123TIP3    H251861   5.082   4.237   4.227  0.0377 -1.1565 -0.1725
10124TIP3   OH251862   6.139   5.662   3.973  0.5074  0.0339  0.2527
10124TIP3    H151863   6.142   5.625   4.062 -0.9040  0.8693  0.6815
10124TIP3    H251864   6.047   5.658   3.949  1.1616 -2.6663 -2.3126
10125TIP3   OH251865   0.864   0.191   4.791 -0.8372  0.7293 -0.6618
10125TIP3    H151866   0.810   0.268   4.804  0.8268  1.6037  1.9788
10125TIP3    H251867   0.870   0.151   4.878  3.1325  1.0531 -0.6083
10126TIP3   OH251868   3.138   6.566   3.756 -0.0393  0.4060  0.3317
10126TIP3    H151869   3.151   6.574   3.850 -0.9639 -0.8391  0.5886
10126TIP3    H251870   3.043   6.568   3.745  0.0676  1.2024 -0.6610
10127TIP3   OH251871   5.594   3.437  10.627 -0.2271  0.1455  0.4527
10127TIP3    H151872   5.678   3.400  10.656 -0.6965  0.6424  2.6086
10127TIP3    H251873   5.605   3.449  10.533  1.1110 -2.3931  0.1900
10128TIP3   OH251874   0.717   6.169   0.866  0.7540 -0.2647 -0.1230
10128TIP3    H151875   0.686   6.257   0.845  1.0383 -0.1010  0.1312
10128TIP3    H251876   0.740   6.131   0.781  1.5527  0.2660 -0.1602
10129TIP3   OH251877   1.165   1.772  11.699 -0.7275  0.7837  0.2420
10129TIP3    H151878   1.205   1.834  11.639 -1.0779  1.6021  0.8431
10129TIP3    H251879   1.143   1.823  11.777  0.5500 -0.4296  1.4703
10130TIP3   OH251880   6.476   1.191   4.399  0.2964 -0.0478  0.7198
10130TIP3    H151881   6.403   1.211   4.456  0.3241  1.3103  0.3160
10130TIP3    H251882   6.466   1.098   4.378 -0.8336 -0.0755  1.3291
10131TIP3   OH251883   1.713   1.905   4.130 -0.3056 -0.4038  0.4603
10131TIP3    H151884   1.662   1.909   4.211  1.4706  0.5026  1.6113
10131TIP3    H251885   1.651   1.928   4.061 -1.4126  0.8510  1.8078
10132TIP3   OH251886   5.175   3.292   4.724 -0.1759 -0.0499  0.3504
10132TIP3    H151887   5.231   3.223   4.760  0.2068  1.0588  1.9673
10132TIP3    H251888   5.210   3.307   4.636 -1.2021 -2.9039 -0.6798
10133TIP3   OH251889   0.614   0.681  14.603  0.2760  0.6428  0.0690
10133TIP3    H151890   0.652   0.619  14.665  1.2061  0.2332 -0.8741
10133TIP3    H251891   0.683   0.744  14.586  0.1081  0.6362 -0.6949
10134TIP3   OH251892   3.927   5.850   5.757  0.5503 -0.0164 -0.3127
10134TIP3    H151893   3.867   5.924   5.767 -0.5634 -1.1353  2.3385
10134TIP3    H251894   3.894   5.803   5.681  0.6771  1.6273 -1.4315
10135TIP3   OH251895   0.141   3.621  14.858  0.3700 -0.1280 -0.4977
10135TIP3    H151896   0.140   3.668  14.941 -2.4832  1.5954 -1.3579
10135TIP3    H251897   0.113   3.532  14.881 -0.3309  0.3106  0.4073
10136TIP3   OH251898   4.333   4.976   5.001  0.3399  0.0738  0.4860
10136TIP3    H151899   4.358   5.053   5.051 -2.6197 -0.0166  2.3763
10136TIP3    H251900   4.367   4.902   5.051 -0.1559  0.0704  0.8271
10137TIP3   OH251901   2.363   1.783  14.491 -0.8935 -0.4361  0.4549
10137TIP3    H151902   2.335   1.719  14.426 -0.4499 -0.5117  0.3321
10137TIP3    H251903   2.449   1.813  14.460 -1.2339  0.4545  0.3395
10138TIP3   OH251904   1.319   2.158   5.298 -0.6293 -0.1688 -0.2392
10138TIP3    H151905   1.310   2.140   5.392  1.0790 -0.5720 -0.1250
10138TIP3    H251906   1.252   2.104   5.256  0.2598 -1.9683  0.5714
10139TIP3   OH251907   2.715   2.023  11.287 -0.1060 -0.8264  0.0744
10139TIP3    H151908   2.756   1.959  11.346  0.4497  0.4457  1.1255
10139TIP3    H251909   2.788   2.054  11.233 -0.1099 -0.2028  0.4144
10140TIP3   OH251910   5.263   2.243   4.889  0.3121  0.0291  0.1753
10140TIP3    H151911   5.345   2.282   4.917 -0.0582  0.9435  0.0031
10140TIP3    H251912   5.266   2.153   4.923  1.7837 -0.2504 -0.6383
10141TIP3   OH251913   3.542   4.505  12.210  0.2604  0.5467 -0.0852
10141TIP3    H151914   3.569   4.550  12.130  2.1863  0.4356  0.4421
10141TIP3    H251915   3.620   4.509  12.267 -0.6461 -0.4691  1.2915
10142TIP3   OH251916   2.537   3.541   0.671  0.0915 -0.1351 -0.4524
10142TIP3    H151917   2.587   3.460   0.659 -1.1193 -1.1729  1.1290
10142TIP3    H251918   2.464   3.533   0.610  1.0204  0.7424 -1.7470
10143TIP3   OH251919   3.348   6.309  14.741 -0.0455  0.5499  0.0749
10143TIP3    H151920   3.266   6.346  14.709 -1.7075 -2.9740 -0.2151
10143TIP3    H251921   3.327   6.275  14.828  0.8192 -1.0986 -0.3190
10144TIP3   OH251922   2.219   2.432   2.700 -0.1028  0.6074 -0.4617
10144TIP3    H151923   2.294   2.385   2.737  0.0297  0.9662 -0.2736
10144TIP3    H251924   2.156   2.363   2.679 -0.0271  0.3684  0.0771
10145TIP3   OH251925   0.524   3.181  15.239  0.3921 -0.1134 -0.6804
10145TIP3    H151926   0.523   3.087  15.220  1.6631  0.0097 -1.4927
10145TIP3    H251927   0.589   3.190  15.309 -0.4585  0.0639  0.1072
10146TIP3   OH251928   6.062   6.300  15.960  0.3200 -0.0503  0.1934
10146TIP3    H151929   6.093   6.333  16.044  0.6883  1.5993 -0.5381
10146TIP3    H251930   6.135   6.249  15.926 -0.2648 -1.7654  1.3566
10147TIP3   OH251931   0.077   5.154   4.504 -0.5098 -0.0637  0.1548
10147TIP3    H151932   0.046   5.151   4.414 -1.0932  1.0617  0.3025
10147TIP3    H251933   0.164   5.116   4.501  0.0067  1.1663 -1.1214
10148TIP3   OH251934   5.216   6.121   6.623 -0.0484  0.0533 -0.4026
10148TIP3    H151935   5.139   6.067   6.637 -0.1405  0.5696  1.2825
10148TIP3    H251936   5.251   6.138   6.711  2.7309 -1.1798 -1.1554
10149TIP3   OH251937   2.783   5.159   2.429 -0.0497 -0.4039 -0.1290
10149TIP3    H151938   2.836   5.230   2.392 -0.6552 -1.4275 -3.2025
10149TIP3    H251939   2.697   5.170   2.389 -0.6487 -1.8727  0.6735
10150TIP3   OH251940   2.266   5.838  13.364  0.5794  0.3598 -0.2112
10150TIP3    H151941   2.326   5.791  13.422  1.6251  1.1360 -0.6262
10150TIP3    H251942   2.216   5.769  13.320 -0.8226 -0.2340  2.1477
10151TIP3   OH251943   3.037   6.590  12.807  0.4462 -0.7432 -0.8015
10151TIP3    H151944   2.961   6.646  12.819  0.7120 -0.3039 -1.1171
10151TIP3    H251945   3.011   6.505  12.843 -0.3807 -0.7477 -1.3815
10152TIP3   OH251946   0.790   6.756   5.762  0.6432  0.4223  0.7332
10152TIP3    H151947   0.708   6.744   5.811 -0.0135 -0.9851 -0.6182
10152TIP3    H251948   0.830   6.833   5.802 -2.5723  2.7875 -0.1707
10153TIP3   OH251949   0.228   0.718   3.512 -0.4894  0.1403  0.4683
10153TIP3    H151950   0.186   0.663   3.578  1.0285 -0.7002  0.7864
10153TIP3    H251951   0.297   0.765   3.559 -1.0025  1.4503 -0.0387
10154TIP3   OH251952   2.477   1.229  11.749  0.8989  0.2460  0.0685
10154TIP3    H151953   2.404   1.210  11.690 -0.3107  0.5523  1.4182
10154TIP3    H251954   2.549   1.251  11.690 -0.3388  0.8668 -1.2991
10155TIP3   OH251955   2.241   3.828   5.560 -0.6590 -0.6720  0.4179
10155TIP3    H151956   2.222   3.916   5.528 -2.4905 -1.6511 -1.4331
10155TIP3    H251957   2.334   3.815   5.541 -1.0574 -0.2086 -2.2353
10156TIP3   OH251958   0.140   4.786  11.805  0.3239  0.1907  0.6193
10156TIP3    H151959   0.196   4.775  11.881  0.6777 -0.6132  0.2598
10156TIP3    H251960   0.063   4.732  11.824 -0.4360  1.4432  1.1964
10157TIP3   OH251961   5.488   0.703   4.829 -0.3822  0.0763  0.1905
10157TIP3    H151962   5.461   0.646   4.756 -0.5743 -1.2430  1.2420
10157TIP3    H251963   5.576   0.672   4.852 -1.2643 -1.1967  2.0635
10158TIP3   OH251964   4.899   6.558   5.940 -0.5694  0.2627 -0.0026
10158TIP3    H151965   4.867   6.620   6.005 -0.3597  1.4026 -0.9588
10158TIP3    H251966   4.980   6.523   5.977 -2.1528 -1.7176  1.8828
10159TIP3   OH251967   4.466   4.266   3.574 -0.3497 -0.3662 -0.4505
10159TIP3    H151968   4.439   4.341   3.626 -0.4674 -0.4870 -0.3342
10159TIP3    H251969   4.389   4.244   3.521 -0.4489 -0.6398 -0.2025
10160TIP3   OH251970   0.541   6.115  12.435  0.7106 -0.3811  0.3174
10160TIP3    H151971   0.564   6.130  12.343 -0.7836  0.2925  0.0122
10160TIP3    H251972   0.608   6.162  12.485 -0.3120  2.1647 -0.5199
10161TIP3   OH251973   6.208   1.390   2.667 -0.4734 -0.2560  0.1503
10161TIP3    H151974   6.146   1.461   2.684  0.0470  0.0512  0.7673
10161TIP3    H251975   6.288   1.434   2.637 -0.1153 -0.5722  0.6353
10162TIP3   OH251976   1.757   6.284  15.491  0.0038  0.4604 -0.2327
10162TIP3    H151977   1.841   6.270  15.447 -0.5614  2.1811 -1.9760
10162TIP3    H251978   1.779   6.338  15.567  0.4586  1.0604 -0.7815
10163TIP3   OH251979   0.699   1.280   6.287 -0.0836 -0.4889 -0.0528
10163TIP3    H151980   0.788   1.244   6.295  0.3049  0.6725  1.3300
10163TIP3    H251981   0.650   1.212   6.241  1.5406 -1.1190 -0.9565
10164TIP3   OH251982   0.523   0.112   0.340  0.5910  0.4933 -0.0440
10164TIP3    H151983   0.473   0.109   0.422  0.5617  0.0079 -0.0789
10164TIP3    H251984   0.513   0.202   0.309  3.5871  1.8499  2.3582
10165TIP3   OH251985   2.174   1.872  11.993 -0.0152  0.3869  0.3908
10165TIP3    H151986   2.235   1.922  11.939  1.5031 -0.0414  1.6504
10165TIP3    H251987   2.206   1.782  11.988 -0.5019  0.1656  1.1545
10166TIP3   OH251988   0.832   6.157   4.771 -0.3218 -0.0381  0.7635
10166TIP3    H151989   0.739   6.167   4.750 -0.1562  1.6635  0.6837
10166TIP3    H251990   0.860   6.245   4.796  1.5266 -0.2896 -0.2783
10167TIP3   OH251991   2.755   3.366  12.514  0.1467  0.2755 -0.1066
10167TIP3    H151992   2.660   3.376  12.508 -0.0115 -1.5091 -1.1134
10167TIP3    H251993   2.787   3.386  12.426  0.5357 -0.5701 -0.1687
10168TIP3   OH251994   1.444   6.475  16.347 -0.0065 -0.0596  0.3500
10168TIP3    H151995   1.430   6.492  16.253  0.1115  2.8276  0.7589
10168TIP3    H251996   1.369   6.515  16.390  0.7906  0.1572  1.5819
10169TIP3   OH251997   6.107   5.963   2.388 -0.4215 -0.4137  0.0892
10169TIP3    H151998   6.060   5.886   2.357 -1.4008  0.6749 -1.2233
10169TIP3    H251999   6.040   6.030   2.398  0.5581  0.5720  0.2354
10170TIP3   OH252000   3.811   3.259  17.092  0.1251  0.3362  0.0818
10170TIP3    H152001   3.805   3.292  17.181  0.3915  2.0504 -0.4946
10170TIP3    H252002   3.720   3.261  17.060  0.2500  1.5343 -0.2657
10171TIP3   OH252003   3.446   1.638   1.869 -0.0193 -0.1364 -0.7050
10171TIP3    H152004   3.496   1.594   1.800 -0.0490 -0.7570 -0.3448
10171TIP3    H252005   3.445   1.730   1.843  1.3678 -0.0891 -0.7006
10172TIP3   OH252006   5.879   1.250  14.231 -0.2350  0.2335  0.0692
10172TIP3    H152007   5.880   1.164  14.273  0.8315  0.1867 -0.0337
10172TIP3    H252008   5.789   1.259  14.198 -0.0657 -1.3434 -0.9655
10173TIP3   OH252009   3.263   2.893  14.411 -0.4010  0.3554 -0.0585
10173TIP3    H152010   3.170   2.875  14.397 -0.3230  0.1811 -0.3703
10173TIP3    H252011   3.299   2.902  14.323  0.0474 -0.4463  0.0385
10174TIP3   OH252012   3.067   5.966   4.367 -0.1076  0.3553 -0.3065
10174TIP3    H152013   3.033   5.943   4.280  0.9424  2.2820 -1.2847
10174TIP3    H252014   2.990   5.995   4.415 -0.8180 -1.3797 -0.3011
10175TIP3   OH252015   3.059   0.642   6.056 -0.1041  0.0871  0.2708
10175TIP3    H152016   2.980   0.621   6.106  0.7504 -0.7845  1.3108
10175TIP3    H252017   3.070   0.737   6.069 -0.5263  0.0686  0.8083
10176TIP3   OH252018   5.761   5.904  16.048  0.0665 -0.0320 -0.0707
10176TIP3    H152019   5.797   5.840  15.986 -0.6602  0.1437 -0.6913
10176TIP3    H252020   5.676   5.867  16.074  0.1022  0.1844  0.3654
10177TIP3   OH252021   1.616   1.928  12.508  0.7564  0.2368  0.4130
10177TIP3    H152022   1.650   1.968  12.589 -0.3133  1.8620  0.1062
10177TIP3    H252023   1.694   1.914  12.455  1.3113  0.7338  1.0656
10178TIP3   OH252024   6.141   3.762  16.577 -0.5899 -0.4399  0.2110
10178TIP3    H152025   6.184   3.733  16.657 -0.3313 -0.4853  0.0560
10178TIP3    H252026   6.070   3.699  16.564 -0.7779 -0.2955  0.5287
10179TIP3   OH252027   5.860   0.860   5.750  0.2140 -0.3477 -0.2715
10179TIP3    H152028   5.849   0.914   5.671 -2.0808  1.0258  0.8826
10179TIP3    H252029   5.936   0.806   5.731 -0.0461  0.1437 -3.3071
10180TIP3   OH252030   0.927   4.479  11.746  0.0846  0.4004 -0.5720
10180TIP3    H152031   1.007   4.526  11.721  0.3800 -0.7195 -1.8648
10180TIP3    H252032   0.958   4.394  11.778 -0.5219  0.4990  0.3049
10181TIP3   OH252033   5.188   2.763  12.584  0.4776 -0.2041  0.0765
10181TIP3    H152034   5.093   2.779  12.588  0.7281  1.1691  1.3981
10181TIP3    H252035   5.203   2.695  12.649  0.3465 -0.8518 -0.5526
10182TIP3   OH252036   2.161   1.428  15.757 -0.0263  0.4707  0.1678
10182TIP3    H152037   2.139   1.476  15.837  0.8764  1.9417 -0.4129
10182TIP3    H252038   2.177   1.339  15.786  1.5674  1.2474  1.8710
10183TIP3   OH252039   3.462   2.445   3.236  0.1645  0.1533 -0.6070
10183TIP3    H152040   3.479   2.361   3.279  2.0240  0.2798 -1.0066
10183TIP3    H252041   3.547   2.472   3.201 -0.2197  2.5669  0.1225
10184TIP3   OH252042   5.616   3.965  14.989  0.0722 -0.2416 -0.3238
10184TIP3    H152043   5.612   4.060  14.980 -1.0163 -0.2377  0.0302
10184TIP3    H252044   5.670   3.936  14.916 -0.4520  0.5762 -1.0572
10185TIP3   OH252045   3.611   4.606  15.802  0.3025 -0.4535 -0.3228
10185TIP3    H152046   3.693   4.656  15.796  0.3730 -0.6130 -0.7638
10185TIP3    H252047   3.543   4.667  15.774  0.3841 -0.5862 -0.8275
10186TIP3   OH252048   3.376   6.119   2.486 -0.2688  0.4173  0.3610
10186TIP3    H152049   3.421   6.034   2.484  0.9244  1.0214  0.8514
10186TIP3    H252050   3.357   6.138   2.394 -2.9694 -1.5793  0.3573
10187TIP3   OH252051   3.772   2.865   3.466 -0.2567  0.3723 -0.2427
10187TIP3    H152052   3.732   2.941   3.508  1.1158  1.1558 -0.3088
10187TIP3    H252053   3.811   2.899   3.386  1.9040 -0.0047  0.5839
10188TIP3   OH252054   5.081   6.019  12.561  0.7576  0.0217  0.1305
10188TIP3    H152055   5.002   6.004  12.612  0.2199  1.5294 -0.2094
10188TIP3    H252056   5.149   6.038  12.627  0.6768 -0.5446  0.3843
10189TIP3   OH252057   0.240   5.440  13.702  0.4336  0.6741  0.4338
10189TIP3    H152058   0.281   5.519  13.666  0.3559  1.2402  1.5653
10189TIP3    H252059   0.312   5.381  13.719  0.3661 -0.2909 -2.1747
10190TIP3   OH252060   5.565   4.697  11.750  0.2354  0.3437 -0.3276
10190TIP3    H152061   5.495   4.704  11.814  1.2937 -0.2676  0.9630
10190TIP3    H252062   5.521   4.686  11.666 -1.2018 -0.2115  0.4712
10191TIP3   OH252063   3.550   2.255   1.225  0.1331 -0.2328  0.3510
10191TIP3    H152064   3.455   2.251   1.209  0.0158 -0.0358  0.9482
10191TIP3    H252065   3.589   2.217   1.147 -0.3802  1.1723 -0.6339
10192TIP3   OH252066   4.316   2.011  14.276  0.4935 -0.1903  0.1998
10192TIP3    H152067   4.361   2.090  14.246 -0.4744 -0.3033 -1.6667
10192TIP3    H252068   4.233   2.042  14.311  0.3044 -0.3407 -0.1143
10193TIP3   OH252069   3.841   0.097  16.935  0.5256  0.0839 -0.0112
10193TIP3    H152070   3.917   0.038  16.939  0.0574 -0.5010  0.6345
10193TIP3    H252071   3.879   0.185  16.938  1.3183 -0.1211 -2.3921
10194TIP3   OH252072   3.677   0.385   0.313 -0.0909  0.0026 -1.3143
10194TIP3    H152073   3.754   0.395   0.256  0.0287 -1.1313 -1.3691
10194TIP3    H252074   3.697   0.440   0.389  0.3253  0.5061 -1.7717
10195TIP3   OH252075   0.493   4.005   5.926  0.4579 -0.6414  0.1191
10195TIP3    H152076   0.517   4.079   5.981 -2.2025  0.5929 -0.2056
10195TIP3    H252077   0.485   3.932   5.987  1.5881 -0.3127  0.6918
10196TIP3   OH252078   0.412   4.573   0.936 -0.0049 -0.3973 -0.5652
10196TIP3    H152079   0.403   4.664   0.965 -0.3904 -0.6741  0.2027
10196TIP3    H252080   0.454   4.580   0.851 -2.0154  0.6187 -1.5399
10197TIP3   OH252081   5.857   0.597  10.840 -1.0038  0.4913  0.2136
10197TIP3    H152082   5.775   0.609  10.792 -0.4711 -0.3946 -0.9738
10197TIP3    H252083   5.918   0.659  10.799  0.1059 -1.8609 -1.9333
10198TIP3   OH252084   3.630   4.789  13.128 -0.0048  0.2020  0.0504
10198TIP3    H152085   3.686   4.848  13.078 -1.9945  0.6680 -1.7862
10198TIP3    H252086   3.593   4.844  13.197 -1.3555  1.0068 -1.2649
10199TIP3   OH252087   1.718   0.627  12.597  0.0816 -0.7737 -0.1832
10199TIP3    H152088   1.762   0.711  12.581  2.7424 -1.6774  1.6249
10199TIP3    H252089   1.652   0.621  12.528 -2.3887  4.0915  1.2509
10200TIP3   OH252090   1.322   4.451   0.314  0.4876 -0.2795 -0.7323
10200TIP3    H152091   1.415   4.476   0.316  0.7170 -1.1466  0.6635
10200TIP3    H252092   1.300   4.431   0.405 -1.0932 -0.0661 -1.0363
10201TIP3   OH252093   3.475   6.405   2.058 -0.4704  0.6258 -0.2412
10201TIP3    H152094   3.456   6.495   2.084  1.1131  1.1259 -0.6908
10201TIP3    H252095   3.480   6.409   1.962 -0.1437  0.1136 -0.2483
10202TIP3   OH252096   4.191   5.414   2.425  0.0983 -0.2680  0.0868
10202TIP3    H152097   4.278   5.396   2.462 -0.5834 -1.6240  1.1287
10202TIP3    H252098   4.170   5.335   2.376 -1.3022 -0.7457  1.3879
10203TIP3   OH252099   2.995   5.317  16.496  0.0015  0.6363 -0.5837
10203TIP3    H152100   2.943   5.333  16.418  0.8714 -0.2575 -1.3769
10203TIP3    H252101   2.958   5.238  16.534  0.2652  0.4572 -0.6975
10204TIP3   OH252102   5.602   3.332  12.742 -0.9207  0.1327  0.2054
10204TIP3    H152103   5.567   3.419  12.724 -1.2061 -0.3674 -1.8655
10204TIP3    H252104   5.527   3.273  12.735 -1.1283 -0.1592  3.4778
10205TIP3   OH252105   5.594   0.174  13.648 -0.0001 -0.1230 -0.0727
10205TIP3    H152106   5.577   0.249  13.705 -2.3445 -0.1954 -0.5698
10205TIP3    H252107   5.639   0.111  13.704  1.6593  1.4521  0.4632
10206TIP3   OH252108   0.052   0.120  15.771  0.3206 -0.3331 -0.5154
10206TIP3    H152109  -0.038   0.143  15.793 -0.1963 -0.9236 -1.9476
10206TIP3    H252110   0.092   0.098  15.855  0.1585  3.2671  0.6899
10207TIP3   OH252111   5.400   1.488  14.263 -0.3058  0.1414  0.2187
10207TIP3    H152112   5.377   1.420  14.199  0.3367 -0.1264  0.2554
10207TIP3    H252113   5.323   1.544  14.268  0.6412  2.0210 -3.1459
10208TIP3   OH252114   4.104   4.436  15.665 -0.1768 -0.2699  0.1005
10208TIP3    H152115   4.172   4.368  15.662  0.5617  0.4706 -0.2861
10208TIP3    H252116   4.022   4.387  15.661  0.3198 -1.1966  0.7818
10209TIP3   OH252117   6.512   5.453  14.240 -0.2914  0.2771 -1.1265
10209TIP3    H152118   6.598   5.460  14.282 -1.5782 -1.0605  2.0750
10209TIP3    H252119   6.529   5.411  14.156  2.2690  1.0048 -1.0424
10210TIP3   OH252120   5.434   5.597   4.938 -0.1607 -0.4617  0.6667
10210TIP3    H152121   5.462   5.614   4.848  1.3222 -0.0270  1.1868
10210TIP3    H252122   5.451   5.504   4.951 -1.2186 -0.7351  0.2370
10211TIP3   OH252123   2.694   6.163   3.678  0.0665  0.1137  0.1341
10211TIP3    H152124   2.640   6.241   3.669 -1.4100 -0.5140  2.5575
10211TIP3    H252125   2.778   6.195   3.710  0.1771  0.8517 -0.8570
10212TIP3   OH252126   0.079   3.251   5.136  0.0103  0.4779 -0.3795
10212TIP3    H152127   0.102   3.282   5.048  2.6144 -1.5590 -0.5232
10212TIP3    H252128   0.028   3.171   5.120 -1.9870  1.6050  0.0225
10213TIP3   OH252129   6.596   5.333  16.621  0.4356 -0.3788 -0.2051
10213TIP3    H152130   6.520   5.285  16.589 -0.5400  1.5462 -0.9292
10213TIP3    H252131   6.637   5.369  16.542  2.1643 -1.4211  0.1609
10214TIP3   OH252132   0.276   1.758   0.442 -0.3562 -0.3284 -0.0292
10214TIP3    H152133   0.368   1.781   0.451 -0.1956 -0.6473 -0.7410
10214TIP3    H252134   0.274   1.663   0.451 -0.6774 -0.2800  0.4283
10215TIP3   OH252135   1.608   5.397   1.154  0.2606 -0.0221 -0.1548
10215TIP3    H152136   1.608   5.433   1.065  0.9309  0.4869  0.0404
10215TIP3    H252137   1.697   5.365   1.167  0.3219  0.3976  0.5200
10216TIP3   OH252138   0.973   2.662  16.673 -0.1396  0.0041  0.1338
10216TIP3    H152139   0.910   2.636  16.605 -1.1788  0.8896  0.7367
10216TIP3    H252140   0.979   2.585  16.730 -1.7642  0.3603  0.8526
10217TIP3   OH252141   6.733   4.826   4.984 -0.0538 -0.0255  0.2384
10217TIP3    H152142   6.743   4.862   5.072  1.7692  2.2787 -0.8085
10217TIP3    H252143   6.671   4.886   4.940  1.3478  0.6661 -0.8880
10218TIP3   OH252144   5.119   4.370   4.544 -0.2332 -0.3058  0.4987
10218TIP3    H152145   5.165   4.438   4.592 -1.3840  0.3110  0.7701
10218TIP3    H252146   5.063   4.327   4.610 -0.5437 -0.5954  0.0559
10219TIP3   OH252147   0.159   6.506   0.157  0.2841  0.0777  0.1415
10219TIP3    H152148   0.213   6.479   0.083  1.0239 -0.8738  1.0123
10219TIP3    H252149   0.221   6.544   0.219 -0.2984  0.6374  0.3913
10220TIP3   OH252150   1.682   1.481   1.586 -0.5163 -0.0325  0.0187
10220TIP3    H152151   1.687   1.548   1.654 -0.2962 -1.3692  1.3758
10220TIP3    H252152   1.589   1.460   1.579 -0.4521 -0.5194  0.5609
10221TIP3   OH252153   4.596   5.829  12.763 -0.1343  0.1490  0.0185
10221TIP3    H152154   4.665   5.879  12.807 -1.5056  1.4048  0.8714
10221TIP3    H252155   4.614   5.839  12.669  1.0427  0.1286  0.2372
10222TIP3   OH252156   0.676   0.104  16.014 -0.0501 -0.0656 -1.0945
10222TIP3    H152157   0.737   0.038  16.047 -1.8960 -0.8436  0.9890
10222TIP3    H252158   0.673   0.170  16.083 -2.3026 -0.5666 -0.6483
10223TIP3   OH252159   0.275   5.219   5.577 -0.0335 -0.4737 -0.1013
10223TIP3    H152160   0.215   5.237   5.648  0.7953 -0.0733  0.5129
10223TIP3    H252161   0.219   5.206   5.500 -0.8718  0.3783  0.3499
10224TIP3   OH252162   1.723   1.926  13.917  0.1947 -0.2971  0.4040
10224TIP3    H152163   1.762   1.867  13.853  0.3794 -2.2232  2.1774
10224TIP3    H252164   1.707   1.871  13.994 -0.5393  1.7723  1.8296
10225TIP3   OH252165   2.267   6.426   6.207 -0.2026  0.1387  0.4278
10225TIP3    H152166   2.300   6.427   6.117 -0.8585 -1.0552  0.1622
10225TIP3    H252167   2.345   6.431   6.261  0.2407  0.1564 -0.2048
10226TIP3   OH252168   0.930   2.162  11.986  0.2254 -0.0517 -0.9061
10226TIP3    H152169   0.884   2.187  11.906  0.5334 -0.4721 -1.2165
10226TIP3    H252170   0.892   2.076  12.009 -0.2106  0.2878 -0.3283
10227TIP3   OH252171   6.688   0.064  16.393 -1.1136  0.2292 -0.0158
10227TIP3    H152172   6.655  -0.004  16.334  0.0266  0.2421 -0.6860
10227TIP3    H252173   6.666   0.146  16.348 -1.0742  0.2664  0.0335
10228TIP3   OH252174   3.028   4.355   2.038 -0.4138 -0.3721  0.5927
10228TIP3    H152175   3.004   4.302   1.963 -2.4264  1.0573  0.1410
10228TIP3    H252176   2.959   4.339   2.102 -0.6038  0.9980  0.7716
10229TIP3   OH252177   6.250   0.602   3.746  0.6510 -0.7284  0.0220
10229TIP3    H152178   6.335   0.625   3.783  0.3738  0.7341 -0.1887
10229TIP3    H252179   6.195   0.679   3.761  0.2773 -0.3782 -2.6362
10230TIP3   OH252180   3.928   3.365  15.930  0.5535  0.7124  0.6435
10230TIP3    H152181   3.934   3.320  16.014  0.3506 -0.4321  0.0666
10230TIP3    H252182   3.948   3.298  15.865 -0.4697  1.2748 -0.2948
10231TIP3   OH252183   6.128   3.514  15.102  0.5209  0.4307 -0.2467
10231TIP3    H152184   6.046   3.545  15.063  0.3505 -0.4428 -0.6018
10231TIP3    H252185   6.177   3.478  15.028  0.6094 -0.3602  0.1984
10232TIP3   OH252186   1.822   6.652   3.283  0.5783 -0.5370 -0.0802
10232TIP3    H152187   1.828   6.747   3.287 -1.1784 -0.3735 -0.5229
10232TIP3    H252188   1.862   6.629   3.199 -0.1698 -0.0460 -0.5856
10233TIP3   OH252189   5.183   1.377   2.879 -0.1356 -0.0931  0.0272
10233TIP3    H152190   5.182   1.345   2.789  1.1825 -1.9103  0.6135
10233TIP3    H252191   5.274   1.365   2.907 -0.1092  2.0421  1.0882
10234TIP3   OH252192   2.713   4.377   4.452  0.2894 -0.7600  0.2341
10234TIP3    H152193   2.745   4.452   4.503 -0.8186  1.2963 -1.8886
10234TIP3    H252194   2.768   4.376   4.374  0.4966 -2.4041  0.3858
10235TIP3   OH252195   2.620   3.147   1.639 -0.3584  0.3143 -0.6895
10235TIP3    H152196   2.674   3.089   1.586 -1.5166  1.7080 -3.5978
10235TIP3    H252197   2.663   3.148   1.724  1.7258 -1.9238 -1.5962
10236TIP3   OH252198   6.370   2.816  14.535  0.3005  1.2995  0.0652
10236TIP3    H152199   6.463   2.833  14.521  0.7575 -1.4450 -0.6958
10236TIP3    H252200   6.359   2.827  14.630  2.4813 -2.3750  0.9713
10237TIP3   OH252201   0.395   2.937  16.947  0.4423  0.2192 -0.2516
10237TIP3    H152202   0.468   2.905  16.894  0.6899 -0.8984  0.7367
10237TIP3    H252203   0.436   2.984  17.019  0.1170  1.3180 -0.7565
10238TIP3   OH252204   4.937   4.137   2.615  0.0463 -0.1034  0.4337
10238TIP3    H152205   4.957   4.205   2.551 -0.4880 -0.6280 -0.3168
10238TIP3    H252206   5.022   4.102   2.640  0.2278 -1.2085 -1.4830
10239TIP3   OH252207   0.290   1.336   4.583 -0.9166 -0.3884 -0.3573
10239TIP3    H152208   0.286   1.343   4.487  0.3886 -0.6069 -0.4410
10239TIP3    H252209   0.361   1.396   4.608 -1.7720  0.2713  0.5555
10240TIP3   OH252210   5.382   4.641   0.059  0.4350 -0.5825 -0.9689
10240TIP3    H152211   5.320   4.576   0.026 -0.0718 -0.5886 -0.0253
10240TIP3    H252212   5.360   4.651   0.151  0.0467  1.4189 -1.2207
10241TIP3   OH252213   3.198   5.399  13.282 -0.2453  0.3471 -0.0327
10241TIP3    H152214   3.237   5.469  13.229  1.1794  0.0301  0.5678
10241TIP3    H252215   3.200   5.433  13.372 -1.3545  0.3034  0.0308
10242TIP3   OH252216   1.598   4.382  12.646 -0.0647  0.1871 -0.3917
10242TIP3    H152217   1.640   4.356  12.564  2.4542  0.3631  0.7787
10242TIP3    H252218   1.608   4.477  12.649  2.2945 -0.0361  1.2933
10243TIP3   OH252219   3.289   2.661  11.053  0.0898 -0.1476  0.0235
10243TIP3    H152220   3.383   2.670  11.064  0.3211 -0.9010 -1.2203
10243TIP3    H252221   3.278   2.587  10.993 -1.3394 -1.0750  1.3345
10244TIP3   OH252222   6.381   4.019  16.841  0.3214  0.2465 -0.0782
10244TIP3    H152223   6.289   4.044  16.845  0.9756  2.8422  1.8747
10244TIP3    H252224   6.424   4.077  16.905  3.1120 -1.8020  0.0877
10245TIP3   OH252225   3.588   6.031   2.845 -0.2200 -0.4962 -0.3688
10245TIP3    H152226   3.610   6.082   2.767  0.8788 -0.9441 -0.3655
10245TIP3    H252227   3.528   5.964   2.814 -0.9088  0.1875 -0.5531
10246TIP3   OH252228   1.835   0.113  13.818  0.3751 -0.1098  0.1179
10246TIP3    H152229   1.872   0.032  13.854  0.9273  0.5523  1.1233
10246TIP3    H252230   1.742   0.096  13.811  0.4791 -0.8257  0.3594
10247TIP3   OH252231   2.225   4.977   5.226 -0.7163  0.3781  0.2083
10247TIP3    H152232   2.143   5.008   5.188 -0.9513  0.5700  0.8666
10247TIP3    H252233   2.262   5.053   5.270  1.0177  0.9486 -2.0767
10248TIP3   OH252234   4.314   3.840  11.987  0.1835  0.0873 -0.0935
10248TIP3    H152235   4.367   3.769  11.952 -0.4774  0.3629 -1.7604
10248TIP3    H252236   4.291   3.893  11.910 -0.5746  1.2610  0.9003
10249TIP3   OH252237   3.049   4.373  10.743  0.3343 -0.5905  0.0060
10249TIP3    H152238   3.066   4.467  10.748 -1.2883 -0.1564 -1.7932
10249TIP3    H252239   3.136   4.333  10.736  0.9731  0.9338 -1.2606
10250TIP3   OH252240   3.832   2.581  14.416  0.0381  0.8325  0.3600
10250TIP3    H152241   3.869   2.530  14.345 -1.0863 -0.3369  0.5693
10250TIP3    H252242   3.805   2.516  14.481  1.1934  1.8620  1.9734
10251TIP3   OH252243   2.997   3.263  10.987  0.2445  0.1129  0.1811
10251TIP3    H152244   2.947   3.217  11.054  0.4031  1.4058  1.2371
10251TIP3    H252245   2.931   3.315  10.940  0.0787 -1.0609 -0.9424
10252TIP3   OH252246   5.619   5.505   0.855  0.1946 -0.0234  0.2108
10252TIP3    H152247   5.588   5.594   0.870  0.2697  0.0635 -0.1358
10252TIP3    H252248   5.592   5.485   0.766  1.2563  0.1137 -0.1604
10253TIP3   OH252249   4.688   3.793  16.137  0.0754  0.4313  0.3490
10253TIP3    H152250   4.693   3.807  16.231 -1.6140  0.7017  0.4317
10253TIP3    H252251   4.614   3.847  16.109  0.2677  0.0064 -1.0622
10254TIP3   OH252252   6.432   4.645  13.021 -0.4650  0.1764  0.4821
10254TIP3    H152253   6.479   4.597  13.090 -1.1662 -0.5544  0.4625
10254TIP3    H252254   6.481   4.727  13.012  0.3915 -0.2673  0.9502
10255TIP3   OH252255   5.751   4.935   0.316  0.0563  0.1144 -0.0607
10255TIP3    H152256   5.833   4.896   0.288  2.6196  3.3306  2.2587
10255TIP3    H252257   5.748   4.920   0.411 -0.8173  2.0986  0.2698
10256TIP3   OH252258   3.794   1.453  16.014 -0.7248  0.2366 -0.1648
10256TIP3    H152259   3.758   1.448  16.102 -0.0274  2.0914  0.2691
10256TIP3    H252260   3.835   1.539  16.010 -0.7549  0.1936 -2.3161
10257TIP3   OH252261   3.400   3.468  16.863 -0.7371 -0.0939  0.3668
10257TIP3    H152262   3.463   3.525  16.818 -2.3237 -0.5351 -2.6596
10257TIP3    H252263   3.455   3.407  16.912  1.1608  0.5389 -0.8431
10258TIP3   OH252264   3.477   1.926   3.629  0.1945  0.3077 -0.2774
10258TIP3    H152265   3.446   1.957   3.715 -2.2298 -0.4457 -0.7854
10258TIP3    H252266   3.561   1.884   3.648  0.2061  1.0559  1.5613
10259TIP3   OH252267   0.478   1.672  10.974 -0.0888  0.9318 -0.2604
10259TIP3    H152268   0.490   1.687  10.880 -0.1633 -0.5171 -0.5275
10259TIP3    H252269   0.469   1.760  11.011 -0.4149  1.5244 -1.6503
10260TIP3   OH252270   3.676   2.268  11.931  0.1297 -0.4524  1.1039
10260TIP3    H152271   3.584   2.241  11.920  0.1507 -0.8045  1.7004
10260TIP3    H252272   3.710   2.276  11.842 -1.1534  2.0940  0.7562
10261TIP3   OH252273   4.334   3.015  14.608  0.1566 -0.1691 -0.5107
10261TIP3    H152274   4.254   3.054  14.641 -2.1331 -1.0307 -4.4121
10261TIP3    H252275   4.347   2.937  14.662 -0.7187  0.7580  1.1231
10262TIP3   OH252276   0.997   4.633   0.997 -0.1103  0.1007  0.3960
10262TIP3    H152277   0.953   4.716   1.015 -1.0543 -0.1807 -0.4812
10262TIP3    H252278   0.925   4.571   0.979  0.6099 -0.1628 -1.9955
10263TIP3   OH252279   6.764   5.215   2.797  0.2499  0.0270 -0.3205
10263TIP3    H152280   6.737   5.125   2.779 -0.5422  0.4624 -1.4410
10263TIP3    H252281   6.805   5.211   2.883 -0.0158 -1.3535 -0.2324
10264TIP3   OH252282   2.231   4.844   1.430  0.2121 -0.3843 -0.1858
10264TIP3    H152283   2.312   4.830   1.478 -0.0933 -0.5319  0.2947
10264TIP3    H252284   2.163   4.846   1.498 -0.5012 -2.7361 -0.7533
10265TIP3   OH252285   3.085   1.087  11.155 -0.2429  0.5339 -0.0089
10265TIP3    H152286   3.105   1.178  11.132 -1.4083  1.2471  1.5848
10265TIP3    H252287   3.147   1.035  11.104 -0.6113  2.1116 -2.1823
10266TIP3   OH252288   0.528   3.840  12.319  0.5843  0.4259 -0.0059
10266TIP3    H152289   0.520   3.883  12.234  1.4445 -0.6564 -0.6665
10266TIP3    H252290   0.503   3.749  12.302 -0.4484  0.4638  1.1875
10267TIP3   OH252291   5.003   5.648  15.370  0.1412  0.1732  0.0369
10267TIP3    H152292   4.963   5.683  15.291 -0.1813  0.7353  0.4409
10267TIP3    H252293   4.970   5.704  15.441 -1.7125 -1.9036  0.9305
10268TIP3   OH252294   6.326   3.625  15.278  0.5280  0.1157 -0.1517
10268TIP3    H152295   6.399   3.564  15.284  0.0677 -0.3326  2.2772
10268TIP3    H252296   6.266   3.585  15.216  0.7800 -1.3365  0.5069
10269TIP3   OH252297   5.604   1.092   1.780  0.1105  0.6646 -0.2169
10269TIP3    H152298   5.538   1.075   1.712 -0.0638  0.6109 -0.0356
10269TIP3    H252299   5.555   1.136   1.849  0.1078 -0.0595  0.2470
10270TIP3   OH252300   2.581   2.178  10.286 -0.4923 -0.5402  0.2327
10270TIP3    H152301   2.671   2.152  10.305 -0.6452 -0.2969  1.3754
10270TIP3    H252302   2.561   2.137  10.202  0.7809 -0.3426 -0.1752
10271TIP3   OH252303   0.325   1.578  12.943 -0.0732  0.1506  0.1721
10271TIP3    H152304   0.242   1.588  12.896  0.0774 -0.0611 -0.1411
10271TIP3    H252305   0.389   1.561  12.875  0.2943  0.6714  0.3811
10272TIP3   OH252306   2.981   2.207  16.241 -0.2842 -0.1336 -0.3913
10272TIP3    H152307   2.928   2.197  16.163  0.0788 -0.1063 -0.6455
10272TIP3    H252308   2.987   2.119  16.278  2.1424 -0.8091 -2.1209
10273TIP3   OH252309   2.382   1.033   4.495 -0.4160 -0.1253  0.4523
10273TIP3    H152310   2.409   0.949   4.457 -0.3512 -0.1309  0.5099
10273TIP3    H252311   2.348   1.010   4.581  0.5863  0.0197  0.9057
10274TIP3   OH252312   2.004   5.659  11.719 -0.1117  0.1762 -0.6349
10274TIP3    H152313   2.073   5.706  11.674  0.2949 -0.6353 -0.8789
10274TIP3    H252314   1.938   5.643  11.652  0.3205 -0.6960 -0.8620
10275TIP3   OH252315   3.833   1.848   1.903  0.3631  0.0385  0.2622
10275TIP3    H152316   3.798   1.760   1.921  0.8307 -0.1713  0.1818
10275TIP3    H252317   3.765   1.908   1.932  0.4599 -0.3266  1.2966
10276TIP3   OH252318   6.633   0.644  16.699 -0.0516  0.3628 -0.0119
10276TIP3    H152319   6.555   0.645  16.755 -0.5368  1.2365 -0.6762
10276TIP3    H252320   6.628   0.560  16.654 -1.0605  0.7323 -0.6330
10277TIP3   OH252321   5.785   0.003   5.254 -0.1545 -0.3460  0.3822
10277TIP3    H152322   5.832  -0.070   5.295  1.5522  0.3689 -0.1911
10277TIP3    H252323   5.789  -0.015   5.160  0.5673  0.6132  0.2126
10278TIP3   OH252324   0.865   0.532   4.566  0.3239  0.4168 -0.0473
10278TIP3    H152325   0.946   0.500   4.605 -0.1909  0.9878  1.5513
10278TIP3    H252326   0.798   0.519   4.633 -0.5032  1.8900 -0.5324
10279TIP3   OH252327   4.870   3.036  14.283 -0.0818  0.3071 -0.4440
10279TIP3    H152328   4.963   3.020  14.268 -0.3788 -2.0506 -0.1136
10279TIP3    H252329   4.829   3.020  14.199 -0.4743 -1.6693  0.0686
10280TIP3   OH252330   3.660   0.866   0.598  0.5524 -0.1283  0.3220
10280TIP3    H152331   3.567   0.849   0.611  0.0531  2.4104  0.7054
10280TIP3    H252332   3.667   0.892   0.506  1.3740 -2.6829 -0.4159
10281TIP3   OH252333   2.661   5.400   0.588 -0.1381  0.3977 -0.1404
10281TIP3    H152334   2.596   5.468   0.610  0.6955  1.2600 -0.2895
10281TIP3    H252335   2.671   5.349   0.668  0.5168  1.5454  0.5271
10282TIP3   OH252336   4.470   5.983  13.198 -0.3384 -0.1004  0.2666
10282TIP3    H152337   4.418   6.025  13.130  0.8097  0.6948 -0.1396
10282TIP3    H252338   4.491   6.054  13.259 -0.8890 -0.6939  1.1786
10283TIP3   OH252339   0.519   1.175   3.783 -0.1119  0.5312  0.2204
10283TIP3    H152340   0.567   1.166   3.701  0.0783  0.0903  0.3771
10283TIP3    H252341   0.452   1.242   3.765  1.2799  2.0043  0.3334
10284TIP3   OH252342   4.183   0.877  11.101 -0.3859 -0.0212 -0.0253
10284TIP3    H152343   4.219   0.955  11.143 -1.6284  0.1603  0.7886
10284TIP3    H252344   4.194   0.808  11.167 -0.5309 -0.2051 -0.1946
10285TIP3   OH252345   6.429   0.465  15.339  0.0275  0.1440 -0.7694
10285TIP3    H152346   6.487   0.541  15.337  0.9241 -0.4284  1.0008
10285TIP3    H252347   6.486   0.392  15.362 -1.2450 -0.5772  0.2443
10286TIP3   OH252348   1.150   2.240   0.010  0.3244 -0.1283 -0.1038
10286TIP3    H152349   1.090   2.200   0.073  1.0824 -0.0195  0.6865
10286TIP3    H252350   1.134   2.191  -0.071 -0.2158 -0.6741  0.3223
10287TIP3   OH252351   1.955   5.641  12.400 -0.0818  0.4762  0.7084
10287TIP3    H152352   1.981   5.676  12.315 -1.5706  0.9832  0.4346
10287TIP3    H252353   1.867   5.676  12.415 -0.3905 -0.6893  1.8365
10288TIP3   OH252354   6.449   4.476   3.225  0.1775  0.0831  0.0803
10288TIP3    H152355   6.476   4.559   3.185  1.4922 -0.0771  0.5798
10288TIP3    H252356   6.374   4.448   3.173  1.5479  0.0853 -2.0349
10289TIP3   OH252357   0.802   1.137   3.863  0.2662 -0.0737 -0.0719
10289TIP3    H152358   0.892   1.163   3.845  0.6016 -1.3975 -0.3885
10289TIP3    H252359   0.754   1.157   3.782  0.4670 -0.2472 -0.2328
10290TIP3   OH252360   4.662   5.485   3.331 -0.6138  0.0752  0.4360
10290TIP3    H152361   4.654   5.391   3.316 -0.6112  0.3809 -1.8865
10290TIP3    H252362   4.747   5.495   3.375 -0.6202 -0.9855  0.7190
10291TIP3   OH252363   6.323   2.009  14.300  0.0106  1.0897 -0.3857
10291TIP3    H152364   6.271   1.990  14.222  0.4657  2.3466 -1.0264
10291TIP3    H252365   6.324   2.105  14.305  0.3195  1.0362  0.9448
10292TIP3   OH252366   4.287   1.159   5.240 -0.0848 -0.1727 -0.1743
10292TIP3    H152367   4.327   1.076   5.215 -0.1343 -0.2638  0.0536
10292TIP3    H252368   4.222   1.136   5.306  1.5983  0.2915  1.7782
10293TIP3   OH252369   2.851   2.541  15.662 -0.4447 -0.2232 -0.1277
10293TIP3    H152370   2.836   2.571  15.573 -1.0928 -0.3083 -0.0495
10293TIP3    H252371   2.918   2.600  15.696 -0.0989 -0.2710 -0.7052
10294TIP3   OH252372   2.998   4.722  16.430  0.0601  0.2879  0.5235
10294TIP3    H152373   2.971   4.630  16.434 -1.0907  0.5707 -0.2667
10294TIP3    H252374   2.944   4.760  16.361  2.1776  1.0300 -0.8066
10295TIP3   OH252375   4.483   5.117  14.194 -0.0990 -0.3170  0.2847
10295TIP3    H152376   4.437   5.033  14.193 -0.0553 -0.4143  2.1131
10295TIP3    H252377   4.575   5.094  14.187 -0.1689 -0.3036 -0.7639
10296TIP3   OH252378   5.271   3.315   0.066 -0.0093 -0.1189 -0.0362
10296TIP3    H152379   5.241   3.394   0.021 -1.7862 -0.0957  1.0751
10296TIP3    H252380   5.229   3.319   0.152  3.4261 -0.0208  1.8060
10297TIP3   OH252381   4.923   5.802  11.945  0.3218 -0.1325  0.5125
10297TIP3    H152382   4.906   5.709  11.962  3.4171 -0.4932  2.3100
10297TIP3    H252383   4.894   5.847  12.024 -2.0286  0.6572 -0.7070
10298TIP3   OH252384   2.523   6.677  16.207 -0.3373  0.2674  0.4621
10298TIP3    H152385   2.474   6.614  16.260 -0.2311  0.7466  1.1454
10298TIP3    H252386   2.497   6.762  16.243  0.1979  0.5691  0.1318
10299TIP3   OH252387   6.286   0.746  13.086  0.3524 -0.0428 -0.2136
10299TIP3    H152388   6.250   0.771  13.171 -1.2856  0.7823 -1.1084
10299TIP3    H252389   6.311   0.828  13.045 -0.9067 -0.2098 -1.3867
10300TIP3   OH252390   3.635   0.352   3.653  0.2340  0.0063 -0.4231
10300TIP3    H152391   3.639   0.432   3.600 -0.7499  1.4346  1.5119
10300TIP3    H252392   3.549   0.315   3.634 -0.0808  0.4693  0.0493
10301TIP3   OH252393   6.428   4.325   4.435  0.0654 -0.7016 -0.1233
10301TIP3    H152394   6.427   4.265   4.510 -1.3597  0.2792  0.6947
10301TIP3    H252395   6.336   4.345   4.419  0.4781  1.1749 -0.4266
10302TIP3   OH252396   4.660   5.969  10.825  0.2192  0.1624  0.3668
10302TIP3    H152397   4.667   6.060  10.797  0.8882  0.0264  0.0727
10302TIP3    H252398   4.598   5.929  10.764  0.4336  0.2624  0.0818
10303TIP3   OH252399   5.958   5.692   3.277 -0.0373 -0.0466 -0.4216
10303TIP3    H152400   5.874   5.659   3.308 -0.6585  0.5102 -1.4567
10303TIP3    H252401   5.954   5.683   3.182  1.3673 -0.6781 -0.4504
10304TIP3   OH252402   6.239   3.013   1.848 -0.2950  0.5787 -0.0080
10304TIP3    H152403   6.169   3.076   1.829 -0.1158  0.1269 -2.4897
10304TIP3    H252404   6.193   2.936   1.881 -0.5554  1.7275  2.5565
10305TIP3   OH252405   0.963   2.600  15.199 -0.0429 -0.2132 -0.5451
10305TIP3    H152406   0.973   2.633  15.289  2.6393 -2.9535  0.3476
10305TIP3    H252407   0.873   2.621  15.176 -1.4183 -0.8033  3.4463
10306TIP3   OH252408   5.845   3.250   1.046 -0.5978  0.0629 -0.2426
10306TIP3    H152409   5.865   3.217   0.959 -0.9416  1.3346 -0.8275
10306TIP3    H252410   5.785   3.323   1.031  1.1652  1.8523  0.8667
10307TIP3   OH252411   6.140   3.113  12.066  0.1103  0.0775  0.1456
10307TIP3    H152412   6.167   3.059  11.991  0.1798 -0.8193  0.7956
10307TIP3    H252413   6.186   3.196  12.054 -1.8629  0.9357 -2.1805
10308TIP3   OH252414   4.830   4.796   6.122 -0.5649  0.2644  0.3936
10308TIP3    H152415   4.751   4.770   6.169 -0.5880 -0.7825 -0.2011
10308TIP3    H252416   4.901   4.753   6.170 -0.5496 -0.4619 -0.2694
10309TIP3   OH252417   1.235   1.434   2.763  0.0342 -0.9247 -0.1309
10309TIP3    H152418   1.315   1.433   2.815  0.0825  0.1378 -0.1465
10309TIP3    H252419   1.251   1.373   2.692  1.3261  0.1462 -0.8053
10310TIP3   OH252420   1.319   3.262  13.745  0.1456 -0.2947 -0.4296
10310TIP3    H152421   1.401   3.215  13.735  1.0462  0.8797  1.1072
10310TIP3    H252422   1.260   3.221  13.681  1.8274 -1.3114 -1.3958
10311TIP3   OH252423   4.370   3.212  12.195  0.1443 -0.0660 -0.2610
10311TIP3    H152424   4.364   3.119  12.214  0.0672 -0.1072 -0.4739
10311TIP3    H252425   4.280   3.242  12.195 -0.0760 -0.4882 -2.5328
10312TIP3   OH252426   4.307   4.935  13.302 -0.2723 -0.3280 -0.4882
10312TIP3    H152427   4.303   5.018  13.350  1.3402  0.8890 -2.2979
10312TIP3    H252428   4.361   4.878  13.356 -0.4495  0.1697  0.2352
10313TIP3   OH252429   3.388   4.987   1.813  0.2353  0.7105  0.3195
10313TIP3    H152430   3.368   4.973   1.905  1.8970  0.2853  0.6559
10313TIP3    H252431   3.340   4.918   1.767 -0.8099  1.0846  0.8229
10314TIP3   OH252432   3.022   2.251  14.320 -0.6399 -0.2312  0.2152
10314TIP3    H152433   3.098   2.197  14.299 -0.7452  0.3567 -1.8593
10314TIP3    H252434   3.056   2.341  14.317 -0.8505 -0.0566  1.9458
10315TIP3   OH252435   0.460   1.185   0.200 -0.3321  0.1609  0.4207
10315TIP3    H152436   0.554   1.169   0.208 -0.3148  0.3987  0.7264
10315TIP3    H252437   0.437   1.151   0.113  0.3039  1.3188 -0.2368
10316TIP3   OH252438   6.083   1.804   2.553  0.2532 -0.4597  0.5014
10316TIP3    H152439   6.047   1.883   2.594 -0.9292  0.4324 -2.0308
10316TIP3    H252440   6.064   1.734   2.615  0.9324  1.1386  2.6147
10317TIP3   OH252441   5.640   4.867   5.409 -0.3244 -0.0489 -0.2011
10317TIP3    H152442   5.552   4.836   5.429 -0.6743  1.1376  0.1628
10317TIP3    H252443   5.654   4.842   5.317 -0.9900 -0.3409 -0.2288
10318TIP3   OH252444   0.503   4.030  14.710  0.1847 -0.0517 -0.0213
10318TIP3    H152445   0.551   4.111  14.694  0.2266 -0.2481 -0.9374
10318TIP3    H252446   0.438   4.053  14.776  1.4003  0.2677  1.1153
10319TIP3   OH252447   5.617   4.999  15.574  0.2155 -0.2685  0.0109
10319TIP3    H152448   5.691   5.061  15.575 -0.1890  0.3271 -1.9763
10319TIP3    H252449   5.541   5.053  15.595 -0.0994 -0.0948 -1.4474
10320TIP3   OH252450   4.060   2.301   1.150  0.2494  0.3046 -0.5647
10320TIP3    H152451   4.073   2.266   1.238 -0.2917  0.3343 -0.4670
10320TIP3    H252452   4.079   2.228   1.091  1.2115  0.4556 -0.4553
10321TIP3   OH252453   1.162   4.196   6.278  0.1842  0.2764  0.0880
10321TIP3    H152454   1.193   4.110   6.250 -0.0233  0.2607 -0.0913
10321TIP3    H252455   1.085   4.177   6.332 -0.2821  0.3886 -0.5354
10322TIP3   OH252456   0.878   1.019   2.103 -0.1331 -0.0815 -0.3719
10322TIP3    H152457   0.840   0.939   2.138 -1.9861  1.1330  0.5672
10322TIP3    H252458   0.955   1.035   2.157 -0.8392 -0.2314  0.7087
10323TIP3   OH252459   6.583   4.405   0.570 -0.2205 -0.0311  0.4739
10323TIP3    H152460   6.491   4.402   0.541  0.4516 -0.5535 -1.8768
10323TIP3    H252461   6.581   4.450   0.654 -2.7741 -1.2116  1.1389
10324TIP3   OH252462   3.028   3.053   0.436  0.3624  0.1814 -0.4057
10324TIP3    H152463   3.040   3.126   0.375 -1.7112  0.8586 -0.1069
10324TIP3    H252464   2.995   2.981   0.381  0.3186  0.1827 -0.3816
10325TIP3   OH252465   0.007   0.985  16.151  0.3032 -0.0374 -0.2119
10325TIP3    H152466   0.017   1.063  16.205  1.4651 -0.0644 -0.3743
10325TIP3    H252467   0.092   0.942  16.154  0.5117  0.1081 -2.3173
10326TIP3   OH252468   3.329   3.233   2.407 -0.0289  0.1680 -0.3844
10326TIP3    H152469   3.367   3.228   2.320 -0.8864  0.4939 -0.7906
10326TIP3    H252470   3.388   3.182   2.463  0.3092 -0.3721 -1.2288
10327TIP3   OH252471   6.038   5.955   3.673  0.2208  0.1142 -0.2151
10327TIP3    H152472   6.032   5.965   3.578  1.2333 -0.8939 -0.4044
10327TIP3    H252473   6.079   6.037   3.702  0.2836  0.2616 -0.7031
10328TIP3   OH252474   3.093   4.255   2.910  0.7629  0.1737 -0.5890
10328TIP3    H152475   3.161   4.188   2.899  1.3886  0.8898 -1.2597
10328TIP3    H252476   3.137   4.337   2.886 -0.4188  0.6243 -1.2802
10329TIP3   OH252477   4.543   0.202  16.001  0.0724 -0.4653 -0.1414
10329TIP3    H152478   4.491   0.229  15.926 -1.4411 -0.6623  0.8019
10329TIP3    H252479   4.591   0.281  16.027  1.5990 -0.6937 -2.0296
10330TIP3   OH252480   2.386   3.350   5.957  0.1253  0.0548  0.0266
10330TIP3    H152481   2.350   3.312   5.877 -0.4484  0.1573  0.2319
10330TIP3    H252482   2.322   3.416   5.984  1.1368  1.2265 -0.3537
10331TIP3   OH252483   4.861   5.962  17.001  0.0217 -0.0691 -0.3441
10331TIP3    H152484   4.823   5.876  16.984 -1.1493  0.7885 -2.3621
10331TIP3    H252485   4.810   6.023  16.948  1.4134  1.7748  0.2953
10332TIP3   OH252486   6.196   1.517  11.189  1.0696  0.2425  0.3792
10332TIP3    H152487   6.186   1.465  11.269  0.3057  0.2178  0.2772
10332TIP3    H252488   6.106   1.535  11.161  1.3219 -0.0112 -0.6449
10333TIP3   OH252489   6.061   1.831   3.427 -0.4010 -0.4144 -0.8073
10333TIP3    H152490   6.002   1.879   3.485  0.7825  1.8419 -1.3377
10333TIP3    H252491   6.004   1.792   3.361 -1.4162  0.4257 -0.4541
10334TIP3   OH252492   6.393   3.523   1.075 -0.0110 -0.0859 -0.6531
10334TIP3    H152493   6.345   3.472   1.140  1.7116 -0.1179  0.6702
10334TIP3    H252494   6.429   3.458   1.015 -0.8917 -0.1184 -1.1628
10335TIP3   OH252495   2.800   2.439   2.161  0.0467 -0.7951  0.3109
10335TIP3    H152496   2.880   2.408   2.202 -0.0752  1.1895  2.2212
10335TIP3    H252497   2.808   2.412   2.070  3.1836 -0.1382  0.2758
10336TIP3   OH252498   1.456   3.149  15.907  0.0542 -0.1226 -0.5866
10336TIP3    H152499   1.512   3.210  15.859  0.3762 -0.7266 -0.9942
10336TIP3    H252500   1.517   3.095  15.959 -0.2298 -0.0462 -0.1723
10337TIP3   OH252501   0.856   6.167   3.503  0.1267 -0.2962 -0.0804
10337TIP3    H152502   0.906   6.223   3.561  0.5387 -1.3264  0.5914
10337TIP3    H252503   0.764   6.183   3.526  0.2183  0.4421 -0.2290
10338TIP3   OH252504   0.349   2.510  16.919  0.1299 -0.5253 -0.1076
10338TIP3    H152505   0.280   2.572  16.943  1.8873  1.1276  0.9894
10338TIP3    H252506   0.391   2.488  17.003  1.5205 -0.7312 -0.8232
10339TIP3   OH252507   3.255   3.691  11.492  0.7338 -0.3406 -0.0172
10339TIP3    H152508   3.330   3.640  11.524 -1.2728 -3.5202  0.1007
10339TIP3    H252509   3.205   3.712  11.571 -1.4470 -3.5146 -0.3654
10340TIP3   OH252510   4.940   1.136   4.114  0.1364 -0.0459  0.0260
10340TIP3    H152511   4.953   1.145   4.208  2.2567 -0.7928 -0.1271
10340TIP3    H252512   4.941   1.041   4.099 -2.5099 -0.0476 -0.5180
10341TIP3   OH252513   5.342   4.848  13.818 -0.2222 -0.2623 -0.1300
10341TIP3    H152514   5.347   4.826  13.911 -0.9871  0.7396  0.1697
10341TIP3    H252515   5.392   4.928  13.810 -1.6170  0.6375 -0.2204
10342TIP3   OH252516   0.409   3.852   1.283  0.1694 -0.0115 -0.5314
10342TIP3    H152517   0.325   3.896   1.269 -0.0774 -0.2450  0.2001
10342TIP3    H252518   0.402   3.771   1.233 -2.0916 -2.5910  3.4805
10343TIP3   OH252519   0.772   4.298   4.534 -0.4101 -0.3573  0.3129
10343TIP3    H152520   0.741   4.357   4.466  0.4439 -0.4628 -0.1862
10343TIP3    H252521   0.697   4.241   4.552 -0.7933 -0.0308 -0.2054
10344TIP3   OH252522   5.895   5.131   1.927  0.0446 -0.2857 -0.0099
10344TIP3    H152523   5.985   5.104   1.949  0.1452  1.1684  1.6034
10344TIP3    H252524   5.843   5.051   1.937  0.6854 -0.4941  2.3850
10345TIP3   OH252525   2.526   6.318  12.916 -0.0043  0.8664  0.3439
10345TIP3    H152526   2.433   6.334  12.898 -0.1890 -2.2926 -2.5053
10345TIP3    H252527   2.530   6.302  13.010 -1.8469  3.3025  0.9481
10346TIP3   OH252528   3.258   5.256  16.538 -0.5338  0.2962  0.6207
10346TIP3    H152529   3.175   5.279  16.496 -1.2902 -0.9393  1.3809
10346TIP3    H252530   3.298   5.192  16.479 -0.4068  0.4398  0.5515
10347TIP3   OH252531   6.029   4.761  12.086 -0.3534  0.1604 -0.1780
10347TIP3    H152532   6.027   4.667  12.068  0.1379  0.1501 -0.1923
10347TIP3    H252533   5.937   4.786  12.091 -0.5016 -0.5164  0.8603
10348TIP3   OH252534   3.789   2.196  12.678 -0.6980  0.5041 -0.6593
10348TIP3    H152535   3.837   2.239  12.749 -1.4667  0.1249  0.1266
10348TIP3    H252536   3.838   2.216  12.599  2.2870 -1.9991  0.3357
10349TIP3   OH252537   0.558   0.114   1.299 -0.1391 -0.6004 -0.2094
10349TIP3    H152538   0.543   0.019   1.294 -1.1033 -0.4309 -0.9688
10349TIP3    H252539   0.528   0.146   1.214  1.1809  0.2696 -0.3740
10350TIP3   OH252540   4.600   0.789   4.247 -0.4043 -0.0892 -0.2942
10350TIP3    H152541   4.518   0.788   4.198 -0.3148 -0.0741 -0.4451
10350TIP3    H252542   4.626   0.881   4.249  0.2995 -0.2522 -1.4115
10351TIP3   OH252543   1.899   5.267  10.420  0.3917 -0.7032  0.1308
10351TIP3    H152544   1.894   5.330  10.492 -1.3497  0.4759 -0.9511
10351TIP3    H252545   1.936   5.317  10.347 -0.6196 -1.0347 -0.6275
10352TIP3   OH252546   5.897   5.698  12.222 -0.3012  0.3187 -0.6451
10352TIP3    H152547   5.843   5.621  12.240  0.2835  0.0604  0.0902
10352TIP3    H252548   5.951   5.673  12.147  0.1185 -0.1182 -0.2062
10353TIP3   OH252549   6.803   6.743  13.716 -0.7362 -0.2593  0.1409
10353TIP3    H152550   6.895   6.764  13.697 -1.1316  1.2931 -0.2325
10353TIP3    H252551   6.784   6.791  13.796 -1.7065  0.9259 -0.7597
10354TIP3   OH252552   0.850   1.006   3.283 -0.5145  0.1828 -0.3281
10354TIP3    H152553   0.811   1.064   3.217 -0.2295 -0.4545 -1.0670
10354TIP3    H252554   0.942   1.033   3.287  0.0599 -1.3589 -1.9847
10355TIP3   OH252555   4.368   3.303  15.914 -0.0885  0.4676 -0.2894
10355TIP3    H152556   4.297   3.283  15.976 -1.0614 -0.7586 -1.7371
10355TIP3    H252557   4.337   3.269  15.830  1.3137  1.8402 -1.4208
10356TIP3   OH252558   1.134   3.157   2.506 -0.2518  0.0340 -0.8839
10356TIP3    H152559   1.219   3.114   2.502 -0.4232 -0.3968 -0.0863
10356TIP3    H252560   1.087   3.124   2.429 -0.5130 -1.5097 -0.0993
10357TIP3   OH252561   4.322   6.817  13.341  0.2292 -0.1521  0.3791
10357TIP3    H152562   4.258   6.883  13.367  1.4751  0.4078  2.1592
10357TIP3    H252563   4.406   6.863  13.341  0.8731 -1.2759 -0.3064
10358TIP3   OH252564   1.970   0.659  14.526 -1.1536 -0.2377 -0.2438
10358TIP3    H152565   1.900   0.606  14.562 -0.2526 -2.3318 -1.4078
10358TIP3    H252566   2.034   0.666  14.597 -0.6166 -2.0124 -0.5129
10359TIP3   OH252567   2.607   3.961  12.483 -0.1619  0.0344  0.4516
10359TIP3    H152568   2.648   4.021  12.545 -0.7401  0.0262  0.8553
10359TIP3    H252569   2.523   3.939  12.523 -1.0319  0.8593 -0.8110
10360TIP3   OH252570   2.118   3.379   0.441  0.2208 -0.3453  0.0116
10360TIP3    H152571   2.023   3.369   0.440  0.2693 -0.8309  0.2572
10360TIP3    H252572   2.151   3.295   0.472  0.7690 -0.4380 -0.7920
10361TIP3   OH252573   0.563   2.014   4.878 -0.4329 -0.8784  0.2222
10361TIP3    H152574   0.470   2.036   4.870 -0.1671  0.3376  0.1537
10361TIP3    H252575   0.578   1.945   4.814 -1.0252 -0.1606 -0.7177
10362TIP3   OH252576   6.702   3.073  13.671 -0.3238  0.2123  0.3707
10362TIP3    H152577   6.681   3.049  13.761  0.4944 -2.0974  0.0251
10362TIP3    H252578   6.782   3.125  13.678 -0.0025 -0.3476  0.9591
10363TIP3   OH252579   4.245   0.077   2.777  0.0799 -0.0995 -0.5057
10363TIP3    H152580   4.237   0.027   2.858 -0.2455  2.0108  0.8561
10363TIP3    H252581   4.336   0.108   2.776 -0.6088  2.1987  0.6036
10364TIP3   OH252582   0.423   2.390  11.425  0.0265 -0.4658  0.1251
10364TIP3    H152583   0.488   2.445  11.469 -1.7675  0.7406  1.3762
10364TIP3    H252584   0.415   2.427  11.337 -0.0100  0.2877  0.4384
10365TIP3   OH252585   1.862   1.439   5.506  0.5337 -0.1132  0.5684
10365TIP3    H152586   1.804   1.512   5.528 -1.4228 -2.0518  2.4188
10365TIP3    H252587   1.815   1.392   5.436  1.1299 -0.2992  0.2897
10366TIP3   OH252588   0.068   2.049   0.334  0.2223  0.2988  0.0168
10366TIP3    H152589   0.124   2.114   0.291  0.1646  0.8501  0.7376
10366TIP3    H252590  -0.015   2.094   0.347 -0.5930 -0.6892 -1.5139
10367TIP3   OH252591   0.904   6.257  13.274  0.4506 -0.3615 -0.1302
10367TIP3    H152592   0.996   6.234  13.289  1.2145 -0.6376 -4.0855
10367TIP3    H252593   0.857   6.174  13.283  0.6123 -0.2885  1.5468
10368TIP3   OH252594   5.983   1.023   5.300  0.0208  0.6393 -0.1470
10368TIP3    H152595   5.918   1.012   5.369 -1.1364  0.5034 -1.2331
10368TIP3    H252596   5.935   1.061   5.226  0.7032 -1.3075 -1.6891
10369TIP3   OH252597   4.270   4.939   0.330 -0.1777  0.1342 -0.1410
10369TIP3    H152598   4.263   5.024   0.286  1.3197 -0.8367 -2.4725
10369TIP3    H252599   4.337   4.952   0.398 -0.1532  0.8851 -0.3060
10370TIP3   OH252600   3.330   3.400  12.233 -0.2416 -0.2943  0.0958
10370TIP3    H152601   3.357   3.309  12.225 -0.3175 -0.3615  0.5989
10370TIP3    H252602   3.235   3.397  12.222 -0.0020  0.1012 -3.1283
10371TIP3   OH252603   3.109   5.401  15.476 -0.0013  0.0704  0.1007
10371TIP3    H152604   3.128   5.490  15.448  1.8251 -0.6160 -1.0397
10371TIP3    H252605   3.015   5.392  15.464  0.1410  1.0161 -2.3983
10372TIP3   OH252606   5.290   3.336   5.491 -0.0905  0.2154  0.1289
10372TIP3    H152607   5.250   3.382   5.417  1.2851 -0.1177 -0.8554
10372TIP3    H252608   5.222   3.274   5.519 -1.8752  2.5698  1.3260
10373TIP3   OH252609   3.379   1.841   5.932 -0.3226 -0.0914 -0.1388
10373TIP3    H152610   3.386   1.882   6.019 -0.3728 -0.9812  0.2983
10373TIP3    H252611   3.468   1.836   5.900 -0.2718 -0.0195 -0.0100
10374TIP3   OH252612   4.444   0.086   0.535 -0.9128 -0.2611 -0.1912
10374TIP3    H152613   4.536   0.062   0.543 -1.3307 -1.8788  0.0968
10374TIP3    H252614   4.432   0.107   0.443 -0.7825 -2.5865 -0.8034
10375TIP3   OH252615   1.908   2.312  15.238 -0.5475 -0.3283  0.2183
10375TIP3    H152616   1.977   2.259  15.278 -0.1680  0.3176  0.4387
10375TIP3    H252617   1.954   2.363  15.171 -0.8569 -0.0773  0.1959
10376TIP3   OH252618   3.275   3.287   4.889 -0.3005  0.1539  0.0225
10376TIP3    H152619   3.257   3.363   4.945  0.2850  1.2557 -1.2333
10376TIP3    H252620   3.254   3.212   4.944 -2.1509  1.2272  0.8959
10377TIP3   OH252621   4.044   2.232   4.315 -0.0630 -0.7519 -0.0388
10377TIP3    H152622   4.135   2.210   4.296  0.1287 -0.2194  0.2478
10377TIP3    H252623   4.017   2.167   4.379  0.3678 -0.4418  0.4744
10378TIP3   OH252624   1.233   0.916  11.524  0.3602  0.5665 -0.0737
10378TIP3    H152625   1.157   0.861  11.505  2.1315 -1.8620 -0.7420
10378TIP3    H252626   1.277   0.926  11.439 -0.7170  4.5812 -0.3429
10379TIP3   OH252627   1.767   5.628  16.202  0.1986 -0.0592 -0.5178
10379TIP3    H152628   1.719   5.699  16.244 -0.6383  0.2670 -1.9315
10379TIP3    H252629   1.710   5.600  16.130  1.9601  0.1038 -2.0562
10380TIP3   OH252630   2.090   6.328  11.496  0.3582  0.6401  0.2463
10380TIP3    H152631   2.124   6.239  11.505  0.1708  0.6203  0.7966
10380TIP3    H252632   2.011   6.318  11.442 -0.6669  0.2094  1.7652
10381TIP3   OH252633   1.074   5.884   5.270 -0.0849 -0.5059  0.1823
10381TIP3    H152634   1.008   5.832   5.316 -1.3143  1.0666  0.2877
10381TIP3    H252635   1.129   5.920   5.340  0.9195 -1.8207  0.0941
10382TIP3   OH252636   6.276   4.410   3.996 -0.2909  0.3559 -0.2815
10382TIP3    H152637   6.323   4.453   4.067  0.0762  0.3892 -0.5408
10382TIP3    H252638   6.328   4.429   3.918  0.0003 -0.7550 -0.3615
10383TIP3   OH252639   6.613   3.313   3.653 -0.3496 -0.4024  1.1279
10383TIP3    H152640   6.674   3.255   3.699 -1.7264 -1.2745  1.9162
10383TIP3    H252641   6.549   3.338   3.719 -1.6596 -0.6646 -0.0041
10384TIP3   OH252642   2.695   4.132  15.742  0.5347 -0.5516 -0.5421
10384TIP3    H152643   2.635   4.066  15.776 -2.1165  1.1875 -1.5941
10384TIP3    H252644   2.696   4.118  15.648  1.2548 -0.0921 -0.6108
10385TIP3   OH252645   4.070   3.723   5.674  0.0073  0.0552  0.2458
10385TIP3    H152646   4.147   3.678   5.640 -0.4418  0.4213 -1.3107
10385TIP3    H252647   4.084   3.725   5.769  1.9484  0.1831 -0.0035
10386TIP3   OH252648   3.851   3.654   2.265  0.3033 -0.1991  0.0615
10386TIP3    H152649   3.808   3.655   2.351  1.4449 -2.4980  0.7468
10386TIP3    H252650   3.830   3.739   2.227 -1.3748  0.3706  2.0445
10387TIP3   OH252651   4.688   5.843  13.387 -0.6097 -1.4746  0.1613
10387TIP3    H152652   4.684   5.752  13.358 -1.1649 -0.2760 -4.2309
10387TIP3    H252653   4.609   5.884  13.350  1.7240  1.6233 -1.9656
10388TIP3   OH252654   2.699   0.107   0.363 -0.3138 -0.1735 -0.5657
10388TIP3    H152655   2.615   0.149   0.380 -0.2271  0.0630 -0.7111
10388TIP3    H252656   2.737   0.093   0.449  0.1120  0.9960 -0.5462
10389TIP3   OH252657   1.712   3.354  13.690  0.0660 -0.4259  0.3816
10389TIP3    H152658   1.642   3.296  13.719  0.2922 -0.2617  1.2973
10389TIP3    H252659   1.750   3.310  13.614 -1.4194 -0.2126 -0.5195
10390TIP3   OH252660   5.896   0.713   0.461  0.3182  0.0685  0.0102
10390TIP3    H152661   5.827   0.647   0.454  0.1403  0.3049 -0.5050
10390TIP3    H252662   5.915   0.738   0.371  0.2129  0.8927  0.2070
10391TIP3   OH252663   3.631   3.088  15.038 -0.6171 -0.4167  0.3071
10391TIP3    H152664   3.573   3.104  14.963  1.1736 -0.7215 -1.2058
10391TIP3    H252665   3.603   3.152  15.103 -2.5543 -0.4585 -0.3876
10392TIP3   OH252666   4.832   5.045   6.033 -0.5590  0.0899  0.0574
10392TIP3    H152667   4.756   5.077   6.082  0.7437  1.0403  1.5643
10392TIP3    H252668   4.845   4.956   6.065  0.2429  0.6808  1.4666
10393TIP3   OH252669   4.366   2.770  12.100  0.6800 -0.3225  0.8152
10393TIP3    H152670   4.372   2.704  12.031  3.8251  0.5098  0.1102
10393TIP3    H252671   4.420   2.736  12.171 -0.3076  0.0638  1.7864
10394TIP3   OH252672   2.815   3.426   2.642 -0.0023 -0.4985 -0.2163
10394TIP3    H152673   2.804   3.521   2.642 -0.1498 -0.4886  1.6231
10394TIP3    H252674   2.726   3.392   2.631  0.0291 -0.4326 -0.6954
10395TIP3   OH252675   3.182   4.301  13.315 -0.3284 -0.3512  0.0690
10395TIP3    H152676   3.098   4.344  13.300 -0.3209 -0.2824  0.2228
10395TIP3    H252677   3.244   4.373  13.325 -0.0442 -0.3999 -1.1925
10396TIP3   OH252678   2.178   2.203   0.225 -0.4460 -0.0011  0.0867
10396TIP3    H152679   2.199   2.296   0.234  2.3878 -0.5356 -0.3052
10396TIP3    H252680   2.119   2.199   0.150 -1.0511  1.4938  0.4354
10397TIP3   OH252681   3.599   0.772  14.169  0.2079 -0.5379 -0.2255
10397TIP3    H152682   3.552   0.768  14.252  1.3043 -2.6045  0.3651
10397TIP3    H252683   3.536   0.739  14.105 -0.4899  0.6417 -0.1808
10398TIP3   OH252684   6.358   0.090  16.497 -0.0018  0.0674  0.2072
10398TIP3    H152685   6.383   0.052  16.413  0.1175  0.2444  0.1645
10398TIP3    H252686   6.263   0.086  16.497 -0.0230  0.5402 -0.1525
10399TIP3   OH252687   4.794   5.918  14.083 -0.1747  0.0880 -0.3802
10399TIP3    H152688   4.704   5.948  14.083 -0.6207 -1.1151 -1.8853
10399TIP3    H252689   4.791   5.833  14.127  0.6998  1.1363  1.8773
10400TIP3   OH252690   1.577   0.766  13.634 -0.0592 -0.2773  0.1289
10400TIP3    H152691   1.574   0.862  13.637 -0.8485 -0.3071  0.3598
10400TIP3    H252692   1.566   0.744  13.541  2.1073 -0.0980 -0.2274
10401TIP3   OH252693   5.066   1.981  16.335 -0.0239 -0.2146  0.8959
10401TIP3    H152694   5.080   1.975  16.241  2.2593 -1.5207  1.2601
10401TIP3    H252695   5.070   2.075  16.354  0.0933  0.0135 -0.2035
10402TIP3   OH252696   3.498   0.446  11.970  0.2507 -0.0642  0.2060
10402TIP3    H152697   3.559   0.423  11.900  0.0210  0.9008 -0.3245
10402TIP3    H252698   3.448   0.520  11.935  0.0282  0.3368  1.3363
10403TIP3   OH252699   3.071   2.136   1.723 -0.2042  0.2441  0.2980
10403TIP3    H152700   3.086   2.045   1.749  0.8808  0.5496  0.8069
10403TIP3    H252701   3.075   2.135   1.627 -1.9161 -0.5043  0.1864
10404TIP3   OH252702   3.295   0.891  14.802 -0.2143 -0.4468 -0.3996
10404TIP3    H152703   3.279   0.957  14.869 -0.3461  1.1675 -1.9432
10404TIP3    H252704   3.383   0.859  14.820  0.7735  1.8275 -0.9166
10405TIP3   OH252705   1.284   2.493  13.025 -0.0202  0.2259  0.1035
10405TIP3    H152706   1.249   2.562  13.082 -0.5634  0.6812 -0.7581
10405TIP3    H252707   1.252   2.412  13.065 -0.0332  0.5089  0.6889
10406TIP3   OH252708   4.683   1.721  12.205 -0.4622  0.1905 -0.0807
10406TIP3    H152709   4.689   1.747  12.297 -1.4159  1.6319 -0.3883
10406TIP3    H252710   4.769   1.741  12.169 -0.5934  1.2128  0.1378
10407TIP3   OH252711   6.001   1.909  15.920 -0.6252 -0.0410  0.0240
10407TIP3    H152712   5.962   1.851  15.985 -0.5704  0.7424  0.7725
10407TIP3    H252713   6.093   1.916  15.945 -0.2960 -0.7672 -0.9165
10408TIP3   OH252714   0.213   2.999  14.236 -0.0401  0.0630  0.5084
10408TIP3    H152715   0.171   2.919  14.270  0.4612 -1.3480 -1.9670
10408TIP3    H252716   0.208   3.061  14.309 -1.2062 -1.9369  2.2551
10409TIP3   OH252717   3.936   5.144   1.411 -0.0876 -0.2093 -0.5167
10409TIP3    H152718   3.855   5.185   1.382 -0.1960  0.7908  1.0766
10409TIP3    H252719   4.003   5.210   1.397  0.2323 -0.5435 -0.5830
10410TIP3   OH252720   5.531   0.785  12.165 -0.1972  0.0703  0.5222
10410TIP3    H152721   5.614   0.751  12.131 -1.0072 -1.2703 -0.2281
10410TIP3    H252722   5.533   0.764  12.258 -0.0678 -0.7499  0.3391
10411TIP3   OH252723   0.414   1.858  12.137 -0.4768  0.0825 -0.0575
10411TIP3    H152724   0.393   1.790  12.073 -2.3753  2.2297 -1.8970
10411TIP3    H252725   0.329   1.886  12.171  0.3189  0.9431  1.3405
10412TIP3   OH252726   6.740   0.058   1.282  0.1701 -0.1601  0.1461
10412TIP3    H152727   6.681   0.006   1.335  0.6604  0.3853  1.2522
10412TIP3    H252728   6.789  -0.006   1.231 -0.2698 -0.6920  0.3854
10413TIP3   OH252729   6.222   5.452   3.717  0.4387  0.2287 -0.0165
10413TIP3    H152730   6.165   5.516   3.675 -0.5797  0.0240  1.0253
10413TIP3    H252731   6.246   5.491   3.801  1.8242  0.2911 -0.4186
10414TIP3   OH252732   1.291   3.939  14.911  0.2128  0.1702 -0.2345
10414TIP3    H152733   1.287   3.850  14.945  0.0684  0.2059 -0.1557
10414TIP3    H252734   1.199   3.962  14.894  0.0977  0.9081  1.2877
10415TIP3   OH252735   0.006   2.523  15.078  0.6141  0.1879 -0.0853
10415TIP3    H152736  -0.035   2.453  15.129 -1.1689 -0.6696 -2.5157
10415TIP3    H252737   0.094   2.489  15.058  0.6205 -0.3092  0.7122
10416TIP3   OH252738   3.413   5.507  15.326  0.0997 -0.3910 -0.8756
10416TIP3    H152739   3.350   5.454  15.278  1.0942 -1.6386 -0.8729
10416TIP3    H252740   3.460   5.444  15.381  0.2349  0.7457  0.3517
10417TIP3   OH252741   3.022   1.149   3.819 -0.0124  0.4815 -0.1179
10417TIP3    H152742   3.029   1.056   3.842 -1.6694 -0.3304 -2.4040
10417TIP3    H252743   3.027   1.195   3.902  0.8834 -1.6567  1.0919
10418TIP3   OH252744   2.419   6.775   5.292  0.1791 -0.2377  0.3318
10418TIP3    H152745   2.405   6.772   5.197  1.5823  1.9213 -0.0166
10418TIP3    H252746   2.343   6.731   5.328 -0.3831 -1.1607 -1.7954
10419TIP3   OH252747   1.180   0.573   2.636  0.2766 -0.1899 -0.2711
10419TIP3    H152748   1.161   0.545   2.725 -1.7040 -0.7143 -0.8075
10419TIP3    H252749   1.102   0.550   2.586  2.0026 -1.6529 -2.5495
10420TIP3   OH252750   0.467   2.152   1.101 -0.1259 -0.3281 -0.3898
10420TIP3    H152751   0.544   2.208   1.111 -0.9186  0.5985  0.8848
10420TIP3    H252752   0.497   2.080   1.045  1.5187  0.2518 -0.3239
10421TIP3   OH252753   6.681   1.733  10.809  0.0980  0.1220  0.0150
10421TIP3    H152754   6.726   1.648  10.807  2.6478  1.3579  0.3228
10421TIP3    H252755   6.614   1.724  10.877  1.0865 -1.2954  0.8498
10422TIP3   OH252756   2.067   4.084   0.403 -0.2947  0.4788  0.0122
10422TIP3    H152757   2.152   4.084   0.447 -0.7639  1.2014  0.9848
10422TIP3    H252758   2.040   4.176   0.405 -1.1009  0.2547 -0.2720
10423TIP3   OH252759   6.272   6.031  15.296  0.0041  0.3513  0.3457
10423TIP3    H152760   6.299   6.051  15.207 -0.3540  1.3644  0.4484
10423TIP3    H252761   6.291   5.938  15.307 -1.0274 -0.0612 -1.1725
10424TIP3   OH252762   1.261   4.792  14.911 -0.6867 -0.2466 -0.5404
10424TIP3    H152763   1.229   4.772  14.823 -1.1630  1.0186 -0.6839
10424TIP3    H252764   1.181   4.810  14.961 -0.3344  1.2059 -0.4402
10425TIP3   OH252765   6.718   5.924  12.018  0.2238 -0.1948  0.1818
10425TIP3    H152766   6.660   5.921  11.942  1.1662  0.5200 -0.5972
10425TIP3    H252767   6.746   6.016  12.023  0.8741 -0.4196  0.8482
10426TIP3   OH252768   0.050   3.875   1.954  0.2920 -0.1259 -0.2329
10426TIP3    H152769   0.045   3.882   2.049  1.8742 -2.0483  0.0484
10426TIP3    H252770   0.143   3.878   1.933  0.0650 -1.1049 -1.5754
10427TIP3   OH252771   5.732   2.318  11.094 -0.2927  0.4153 -0.6750
10427TIP3    H152772   5.725   2.397  11.148 -1.5960  0.3412 -0.7142
10427TIP3    H252773   5.644   2.282  11.093  0.6012 -2.0555  0.8400
10428TIP3   OH252774   4.764   2.147  17.168 -0.1095 -0.1564  0.5422
10428TIP3    H152775   4.681   2.111  17.197 -0.0643  0.0796  0.9669
10428TIP3    H252776   4.740   2.223  17.116 -0.1118  1.0974  2.3117
10429TIP3   OH252777   2.912   3.235  11.374  0.1788  0.1999  0.1344
10429TIP3    H152778   2.971   3.174  11.418  1.1808  0.7642 -0.4044
10429TIP3    H252779   2.891   3.192  11.291  0.1775  0.1849  0.1425
10430TIP3   OH252780   2.361   6.596   4.627 -0.0062 -0.0081 -0.0078
10430TIP3    H152781   2.300   6.666   4.649  0.3599  0.5648 -0.7735
10430TIP3    H252782   2.441   6.641   4.600  0.1229 -0.7035 -0.8390
10431TIP3   OH252783   2.708   6.523   0.957 -0.0000 -0.6584  0.0744
10431TIP3    H152784   2.723   6.555   1.046 -0.6347 -0.7582  0.2250
10431TIP3    H252785   2.613   6.514   0.951  0.1386 -2.5794  0.0692
10432TIP3   OH252786   2.542   5.755   2.036 -0.4655 -0.1918 -0.3853
10432TIP3    H152787   2.546   5.680   2.095 -0.5659  0.7808  0.9082
10432TIP3    H252788   2.514   5.828   2.092  2.0086  1.3737 -1.0044
10433TIP3   OH252789   4.937   5.802  11.201 -0.0128  0.0178  0.4238
10433TIP3    H152790   4.874   5.756  11.145 -0.1762  0.6200  0.1041
10433TIP3    H252791   5.009   5.739  11.212  0.2071  0.0184 -0.7979
10434TIP3   OH252792   2.492   4.892   5.897 -0.0976  0.1286  0.1905
10434TIP3    H152793   2.418   4.859   5.948 -0.1788  1.0556  0.7030
10434TIP3    H252794   2.476   4.986   5.890  1.6436  0.5622  1.4001
10435TIP3   OH252795   2.687   2.619   5.894 -0.2597  0.0500  0.2463
10435TIP3    H152796   2.754   2.565   5.852 -0.0877  0.9510 -0.6700
10435TIP3    H252797   2.626   2.640   5.823  1.0688  3.2313 -0.1069
10436TIP3   OH252798   2.729   1.129  15.652  0.6600  0.0734 -0.0357
10436TIP3    H152799   2.762   1.102  15.737 -2.0222  0.7229  1.3126
10436TIP3    H252800   2.663   1.064  15.630 -1.8568  2.2342  0.5876
10437TIP3   OH252801   3.135   2.522   4.538 -0.0232 -0.2500  0.5095
10437TIP3    H152802   3.071   2.579   4.495 -0.2174 -0.7434  0.1394
10437TIP3    H252803   3.107   2.518   4.629  0.8327  1.4466  0.9097
10438TIP3   OH252804   3.380   3.305   2.889  0.3330 -0.2061  0.5232
10438TIP3    H152805   3.331   3.343   2.816 -0.9870 -0.7889  1.0683
10438TIP3    H252806   3.367   3.366   2.961 -0.4037 -0.8211  0.9298
10439TIP3   OH252807   5.311   0.287  13.234 -0.5462  0.0309  0.0419
10439TIP3    H152808   5.223   0.300  13.197 -0.0711 -1.4556 -1.7356
10439TIP3    H252809   5.304   0.321  13.324 -2.6351  0.8943 -0.3756
10440TIP3   OH252810   6.087   6.130  10.997  0.4117 -0.0963 -0.2150
10440TIP3    H152811   6.047   6.045  10.977  0.6758 -0.2107 -0.2602
10440TIP3    H252812   6.021   6.176  11.048  0.4606 -0.5227  0.2397
10441TIP3   OH252813   3.029   5.153  13.151  0.0429 -0.3150 -0.0447
10441TIP3    H152814   2.960   5.102  13.109 -1.1368  0.3629  0.9786
10441TIP3    H252815   2.990   5.239  13.165  0.8990 -0.0804  1.0561
10442TIP3   OH252816   3.050   2.941  14.095  0.6979 -0.5244 -0.3624
10442TIP3    H152817   3.037   2.855  14.134 -3.4376 -0.0724 -0.3188
10442TIP3    H252818   3.032   3.003  14.165 -1.8152  0.2732 -1.5798
10443TIP3   OH252819   1.371   0.583  15.369 -0.1140  0.3403 -0.8016
10443TIP3    H152820   1.305   0.518  15.392 -1.7414  1.4053 -2.2247
10443TIP3    H252821   1.349   0.609  15.280  1.7745  1.3263 -1.0331
10444TIP3   OH252822   6.444   5.936   4.498  0.1315 -0.0645 -0.0158
10444TIP3    H152823   6.490   5.878   4.437 -1.0705 -1.1057  0.0333
10444TIP3    H252824   6.400   6.000   4.442  0.4521  0.0542 -0.1354
10445TIP3   OH252825   0.336   1.569  14.158  0.4119  0.1680  0.0089
10445TIP3    H152826   0.282   1.604  14.087  0.8118 -1.0811 -0.9462
10445TIP3    H252827   0.424   1.562  14.121  0.7939  0.2070  0.8711
10446TIP3   OH252828   0.294   2.503   4.210 -0.2105 -0.7059  0.1951
10446TIP3    H152829   0.354   2.429   4.219  0.0281 -0.8553 -2.0174
10446TIP3    H252830   0.209   2.469   4.236  0.2126 -1.2174  0.9500
10447TIP3   OH252831   1.902   2.365   0.256  0.1893  0.1816  0.1600
10447TIP3    H152832   1.974   2.399   0.203  0.7192 -0.1099  0.6901
10447TIP3    H252833   1.941   2.296   0.309 -0.4956 -0.0274  0.4026
10448TIP3   OH252834   6.371   5.711  15.100 -0.3931  0.1490  0.3298
10448TIP3    H152835   6.424   5.651  15.154 -1.0237 -0.1132  0.6656
10448TIP3    H252836   6.401   5.798  15.125 -0.3639  0.0151  0.7819
10449TIP3   OH252837   6.127   2.950  12.528 -0.1675  0.5076 -0.4857
10449TIP3    H152838   6.103   2.921  12.440  1.1348 -1.4064 -0.2580
10449TIP3    H252839   6.117   2.873  12.583  1.0047  1.1288  0.6614
10450TIP3   OH252840   1.270   1.113   4.508  0.7182  0.2543 -0.1904
10450TIP3    H152841   1.212   1.118   4.585 -0.4926  0.6843 -1.1008
10450TIP3    H252842   1.316   1.197   4.507  0.0665  0.6130 -0.4356
10451TIP3   OH252843   4.256   2.080  13.150 -0.4177  0.0919  0.1979
10451TIP3    H152844   4.219   2.063  13.237 -0.3601  0.0601  0.2156
10451TIP3    H252845   4.336   2.029  13.147 -0.2985  0.2778  0.2129
10452TIP3   OH252846   0.217   2.240   0.180 -1.0061  0.4897 -0.0824
10452TIP3    H152847   0.255   2.300   0.245 -1.3315  0.6747 -0.0638
10452TIP3    H252848   0.292   2.192   0.145 -0.7986  0.5706  0.2472
10453TIP3   OH252849   5.345   6.394  11.465  0.1297  0.5427 -0.3335
10453TIP3    H152850   5.258   6.393  11.505 -0.3756 -0.3744 -1.3839
10453TIP3    H252851   5.365   6.301  11.450  2.4878  0.4945  2.3461
10454TIP3   OH252852   1.488   6.808   1.994  0.2003  0.1674 -0.4089
10454TIP3    H152853   1.516   6.826   2.084 -1.0307  1.9284 -0.3162
10454TIP3    H252854   1.500   6.714   1.984 -0.9213 -0.3538  2.1073
10455TIP3   OH252855   5.394   0.401  11.482  0.2247 -0.3399  0.6344
10455TIP3    H152856   5.335   0.333  11.452 -1.1507  0.3753  1.6006
10455TIP3    H252857   5.340   0.480  11.487  0.8228 -0.0028  3.0724
10456TIP3   OH252858   1.274   4.879   1.174  0.2279  0.0233 -0.1293
10456TIP3    H152859   1.241   4.967   1.194 -1.6809 -0.3855 -1.2594
10456TIP3    H252860   1.262   4.871   1.079 -1.5504 -2.1796  0.2183
10457TIP3   OH252861   2.276   5.383  13.880 -0.3274  0.0650  0.1370
10457TIP3    H152862   2.356   5.377  13.828 -1.4847 -0.1936 -1.6857
10457TIP3    H252863   2.302   5.432  13.958  1.3802  0.8412 -0.8657
10458TIP3   OH252864   0.739   0.826   4.648 -1.1070 -0.0487 -0.5855
10458TIP3    H152865   0.722   0.896   4.586  0.3565  1.6118  0.7653
10458TIP3    H252866   0.653   0.788   4.666 -2.2034  2.3542 -0.3182
10459TIP3   OH252867   3.523   3.598  15.925 -0.2216  0.0835 -0.2647
10459TIP3    H152868   3.585   3.558  15.865  1.1601 -0.1858  1.2807
10459TIP3    H252869   3.479   3.665  15.873  2.9629  1.8885 -0.9018
10460TIP3   OH252870   3.854   5.795   5.204 -0.2633 -0.2242 -0.1264
10460TIP3    H152871   3.776   5.850   5.218 -1.0579 -1.7077  1.7038
10460TIP3    H252872   3.822   5.723   5.150  0.1104 -0.2976 -0.2473
10461TIP3   OH252873   2.890   5.709  13.904  0.3907 -0.4804  0.0117
10461TIP3    H152874   2.953   5.773  13.870 -0.9620  0.1144 -1.5058
10461TIP3    H252875   2.909   5.703  13.997  1.8911  0.5785 -0.1932
10462TIP3   OH252876   0.343   0.557   0.475 -0.0783 -0.6046 -0.0340
10462TIP3    H152877   0.279   0.627   0.471 -0.9392 -1.4309 -2.2609
10462TIP3    H252878   0.334   0.521   0.563 -0.9023  0.8756  0.5187
10463TIP3   OH252879   2.502   1.103   1.920  0.0827  0.1715  0.0909
10463TIP3    H152880   2.427   1.065   1.873  1.4325 -1.5481 -0.7718
10463TIP3    H252881   2.527   1.179   1.867 -1.7731  1.5347  1.0636
10464TIP3   OH252882   5.284   3.976  12.918 -0.6626 -0.6635  0.1835
10464TIP3    H152883   5.351   3.970  12.987 -0.4350 -0.1886  0.0087
10464TIP3    H252884   5.300   3.899  12.863 -0.8356 -1.0378  0.6513
10465TIP3   OH252885   5.973   1.875   6.105 -0.3805 -0.1828 -0.1034
10465TIP3    H152886   6.066   1.890   6.125 -0.6647 -0.3730  1.4599
10465TIP3    H252887   5.926   1.931   6.166 -1.3097 -0.4999 -0.5116
10466TIP3   OH252888   0.421   0.634  12.669 -0.1357 -0.8955 -0.6991
10466TIP3    H152889   0.478   0.567  12.708  0.3621 -0.2609 -0.3016
10466TIP3    H252890   0.404   0.602  12.581 -1.1559 -2.2896 -0.0369
10467TIP3   OH252891   1.377   1.229   3.096 -0.2333  0.3478  0.3496
10467TIP3    H152892   1.317   1.304   3.088  0.2851  0.7052 -0.2296
10467TIP3    H252893   1.437   1.238   3.023  1.2958  0.6698  1.5871
10468TIP3   OH252894   4.036   2.502   2.627  0.4615  0.3103 -0.6333
10468TIP3    H152895   4.128   2.509   2.604  0.6261  0.0524 -0.0614
10468TIP3    H252896   4.035   2.471   2.718 -0.1778  0.9953 -0.3914
10469TIP3   OH252897   4.633   5.584  15.681  0.5615  0.0167 -0.3745
10469TIP3    H152898   4.726   5.601  15.696  0.4169  0.1088  0.4440
10469TIP3    H252899   4.597   5.669  15.655  1.2292 -0.5607 -3.6091
10470TIP3   OH252900   2.369   4.784  13.365  0.0293 -0.6309 -0.0894
10470TIP3    H152901   2.293   4.742  13.326  0.4137 -0.8765 -0.5860
10470TIP3    H252902   2.356   4.878  13.349 -0.7668 -0.5453  0.9150
10471TIP3   OH252903   3.610   4.247  12.273 -0.4787 -0.5374  0.2603
10471TIP3    H152904   3.564   4.331  12.268 -0.3107 -0.4655 -0.1072
10471TIP3    H252905   3.621   4.232  12.367 -2.7896 -1.4063  0.4577
10472TIP3   OH252906   6.247   3.801  13.964  0.2034  0.4975 -0.2528
10472TIP3    H152907   6.181   3.870  13.961  0.8498  1.1076 -0.5694
10472TIP3    H252908   6.258   3.782  14.057  0.4628  1.2599 -0.1222
10473TIP3   OH252909   0.458   3.784  16.467 -0.2358 -0.5090 -0.3425
10473TIP3    H152910   0.472   3.879  16.461 -0.4766 -0.3876  0.8320
10473TIP3    H252911   0.447   3.756  16.376  2.1261  0.2238 -0.9236
10474TIP3   OH252912   1.356   3.514   4.469 -0.5028  0.1687  0.2370
10474TIP3    H152913   1.352   3.473   4.556 -2.7023  0.3752  0.2731
10474TIP3    H252914   1.450   3.516   4.449  0.0674 -0.0112  2.5353
10475TIP3   OH252915   4.949   0.734   2.398  0.5123 -0.3004 -0.0813
10475TIP3    H152916   4.982   0.722   2.309  1.4085 -0.5364  0.2738
10475TIP3    H252917   4.936   0.829   2.406 -0.1047 -0.3371 -0.6450
10476TIP3   OH252918   3.750   3.133   0.299 -0.0486 -0.1954  0.4473
10476TIP3    H152919   3.735   3.073   0.373 -1.6821  0.4037  0.6463
10476TIP3    H252920   3.677   3.195   0.304  0.0060  0.0660 -1.4819
10477TIP3   OH252921   6.158   4.179  14.031 -0.5058  0.4088  0.2342
10477TIP3    H152922   6.100   4.185  14.107 -0.5778 -0.5107  0.2579
10477TIP3    H252923   6.117   4.113  13.975 -0.1955  0.7348 -0.3794
10478TIP3   OH252924   5.858   4.135   2.844 -0.5604 -0.6300  0.0598
10478TIP3    H152925   5.851   4.223   2.805 -1.8446 -1.1019 -0.8665
10478TIP3    H252926   5.816   4.078   2.780 -0.0026 -1.8906  0.7898
10479TIP3   OH252927   2.086   5.585  15.161 -0.0323  0.0970  0.1583
10479TIP3    H152928   2.130   5.670  15.155 -0.8189  0.4589 -0.5667
10479TIP3    H252929   2.038   5.589  15.244  0.4650  0.0879  0.4562
10480TIP3   OH252930   4.902   4.046   4.541  0.3069 -0.4073 -0.3337
10480TIP3    H152931   4.836   4.086   4.483  0.7569  0.6947 -0.1193
10480TIP3    H252932   4.936   4.120   4.592  2.6097 -0.7162 -1.3071
10481TIP3   OH252933   0.713   2.377   2.709 -0.3591 -0.1331 -0.6534
10481TIP3    H152934   0.793   2.338   2.674 -0.8154  0.0715 -2.0089
10481TIP3    H252935   0.642   2.327   2.668 -0.9374 -0.1436  0.3258
10482TIP3   OH252936   1.049   4.215  15.112 -0.3956  0.0765 -0.0546
10482TIP3    H152937   0.965   4.236  15.071 -0.4023 -0.7025 -0.4643
10482TIP3    H252938   1.063   4.284  15.176 -1.0763  0.5249 -0.3861
10483TIP3   OH252939   5.132   2.201   4.615  0.0578  0.3232  0.3753
10483TIP3    H152940   5.141   2.154   4.697  0.9145 -0.8836 -0.3924
10483TIP3    H252941   5.196   2.272   4.620  3.2944 -2.2626 -0.9286
10484TIP3   OH252942   4.135   1.437  12.070 -0.0991  0.4124  0.0327
10484TIP3    H152943   4.192   1.370  12.107 -0.7234  1.1404  2.4961
10484TIP3    H252944   4.192   1.513  12.058 -0.1365  0.5537  0.7089
10485TIP3   OH252945   3.847   0.154   3.219 -0.9610  0.6979 -0.1688
10485TIP3    H152946   3.918   0.217   3.207 -0.2988  0.1307  0.6601
10485TIP3    H252947   3.847   0.102   3.139  0.6310 -0.3357  0.4705
10486TIP3   OH252948   6.764   3.007  15.042  0.6245  0.5321 -0.0508
10486TIP3    H152949   6.746   3.085  15.095  1.0755 -0.6560  1.9550
10486TIP3    H252950   6.680   2.984  15.003  0.5555  2.1823 -0.9436
10487TIP3   OH252951   0.718   2.337  13.054  0.1167 -0.3291  0.0221
10487TIP3    H152952   0.801   2.310  13.094 -0.1698 -0.0834  0.7982
10487TIP3    H252953   0.718   2.294  12.969  1.2954  0.1077 -0.2225
10488TIP3   OH252954   3.282   2.506  14.330  0.0028  0.3990 -0.1140
10488TIP3    H152955   3.204   2.525  14.383 -1.3547 -2.3796 -0.9430
10488TIP3    H252956   3.355   2.535  14.384 -1.5354  2.3667  1.0436
10489TIP3   OH252957   3.150   0.655   6.425 -1.0768 -0.5130  0.0094
10489TIP3    H152958   3.206   0.605   6.485 -2.0632 -1.2467  0.3352
10489TIP3    H252959   3.195   0.648   6.341 -0.5725 -0.9294  0.3000
10490TIP3   OH252960   4.865   4.642   4.768 -0.1813  0.1805 -0.0189
10490TIP3    H152961   4.779   4.609   4.793  0.0515 -0.3872  0.0583
10490TIP3    H252962   4.923   4.612   4.838 -0.0702  1.3272  0.3917
10491TIP3   OH252963   1.738   6.804   3.041 -0.2447  0.2213  0.2883
10491TIP3    H152964   1.721   6.888   3.085 -1.7076  0.5512 -0.8562
10491TIP3    H252965   1.652   6.762   3.037  0.7867 -2.5656  3.1491
10492TIP3   OH252966   3.831   3.790  13.330  0.2661  0.3266 -0.1326
10492TIP3    H152967   3.766   3.727  13.361 -0.0523  0.6965 -0.0413
10492TIP3    H252968   3.911   3.765  13.376 -0.5524  1.8571  2.3513
10493TIP3   OH252969   5.370   3.767  17.232 -0.4054 -0.2748 -0.1825
10493TIP3    H152970   5.428   3.804  17.165  0.2257 -0.5624  0.2000
10493TIP3    H252971   5.297   3.829  17.237 -0.9489 -0.7504 -1.8167
10494TIP3   OH252972   3.524   6.570   3.811 -0.4551 -0.5925  0.7073
10494TIP3    H152973   3.486   6.495   3.766  0.1394 -0.5504  0.1263
10494TIP3    H252974   3.463   6.642   3.793 -2.1690 -1.3482  3.0032
10495TIP3   OH252975   1.440   4.202  12.454 -0.0262  0.8222  0.2343
10495TIP3    H152976   1.376   4.204  12.525  0.1873 -0.0024  0.4635
10495TIP3    H252977   1.389   4.176  12.377 -0.0620  0.6608  0.3115
10496TIP3   OH252978   2.061   1.367  16.246 -0.0298 -0.5420  0.2811
10496TIP3    H152979   2.025   1.340  16.331 -0.1166 -0.7652  0.1757
10496TIP3    H252980   1.994   1.339  16.183  0.5778 -1.4638  0.0283
10497TIP3   OH252981   5.424   5.164  12.723 -0.2181 -0.8526  1.0484
10497TIP3    H152982   5.344   5.111  12.714 -0.5907 -0.2574  0.7682
10497TIP3    H252983   5.471   5.151  12.641 -1.1352  0.5641  0.2671
10498TIP3   OH252984   6.126   1.754  11.504  0.5211  0.1845 -0.2731
10498TIP3    H152985   6.195   1.773  11.567 -0.5917 -0.1016  1.0687
10498TIP3    H252986   6.050   1.802  11.536 -0.0209  0.2232 -1.5351
10499TIP3   OH252987   0.450   4.595  11.684 -0.3093 -0.4357 -0.4055
10499TIP3    H152988   0.382   4.571  11.746 -0.1375  0.6886  0.2544
10499TIP3    H252989   0.459   4.690  11.694 -0.0027 -0.2880 -1.8765
10500TIP3   OH252990   1.022   5.479  12.964 -0.2873  0.2330  0.4998
10500TIP3    H152991   0.977   5.563  12.957 -0.5889  0.0296 -0.1340
10500TIP3    H252992   0.956   5.415  12.936 -0.3430 -0.3094  1.8115
10501TIP3   OH252993   3.266   0.803   0.839  0.3035  0.5880 -0.5550
10501TIP3    H152994   3.228   0.719   0.865  0.8863  0.3887 -0.3369
10501TIP3    H252995   3.207   0.868   0.877  1.0846  0.3068  1.2330
10502TIP3   OH252996   2.217   4.504  12.151  0.2584 -0.3005  0.4313
10502TIP3    H152997   2.256   4.474  12.069 -0.7069  0.4108 -0.3109
10502TIP3    H252998   2.169   4.427  12.184 -1.8378  0.2029 -1.2321
10503TIP3   OH252999   0.167   5.882   5.716  0.2475  0.1583 -0.0288
10503TIP3    H153000   0.262   5.880   5.708  0.1103 -1.7507 -1.9183
10503TIP3    H253001   0.151   5.869   5.810  1.8164  0.9181  0.3753
10504TIP3   OH253002   1.449   2.090  11.361  0.4648  0.2285  0.7571
10504TIP3    H153003   1.522   2.146  11.335  0.2671  0.4098  0.5840
10504TIP3    H253004   1.463   2.008  11.314  0.9239  0.0193  1.2518
10505TIP3   OH253005   1.616   5.185   3.434 -0.3386  0.3291 -0.0381
10505TIP3    H153006   1.712   5.185   3.439 -0.1058  1.9103 -2.6587
10505TIP3    H253007   1.596   5.132   3.357 -1.7276 -1.2088  1.3099
10506TIP3   OH253008   0.226   4.677   4.721 -0.1473  0.1388  0.3072
10506TIP3    H153009   0.182   4.754   4.758  1.8660  0.9465  1.1754
10506TIP3    H253010   0.287   4.714   4.656 -1.1764 -0.9967 -1.3925
10507TIP3   OH253011   5.982   5.023  14.696  0.1396 -0.4664  0.1215
10507TIP3    H153012   5.914   5.031  14.762  1.1680 -0.7207  1.2336
10507TIP3    H253013   5.987   5.110  14.656 -1.2827 -0.6223 -0.4465
10508TIP3   OH253014   0.761   1.609   5.022  0.2863 -0.0949  0.2773
10508TIP3    H153015   0.719   1.523   5.027  0.5576 -0.3729 -1.7548
10508TIP3    H253016   0.687   1.671   5.023  0.0791 -0.3376  1.4444
10509TIP3   OH253017   2.211   0.615   0.726  0.1014 -0.3324  0.4683
10509TIP3    H153018   2.170   0.671   0.792 -3.5392  1.9717 -3.2214
10509TIP3    H253019   2.167   0.531   0.735 -1.8050  0.5359 -0.0242
10510TIP3   OH253020   3.786   1.805  14.474  0.3211  0.5448  0.0019
10510TIP3    H153021   3.793   1.753  14.553  0.8815 -0.8767 -0.9500
10510TIP3    H253022   3.767   1.742  14.404 -0.0984  1.7417 -1.0240
10511TIP3   OH253023   5.591   5.537   6.158 -0.4462  0.4714 -0.0023
10511TIP3    H153024   5.644   5.458   6.160 -1.6399 -0.3848 -0.8401
10511TIP3    H253025   5.617   5.586   6.237  1.3228 -0.0511 -0.2216
10512TIP3   OH253026   3.365   1.349  12.774 -0.5407 -0.1892  0.0624
10512TIP3    H153027   3.360   1.406  12.697  1.1108 -0.6574 -0.4367
10512TIP3    H253028   3.437   1.289  12.754  1.2232  0.8581  2.7331
10513TIP3   OH253029   5.666   2.719  10.603 -0.5399  0.8434  0.0364
10513TIP3    H153030   5.694   2.679  10.685 -0.3890  1.3322  0.2295
10513TIP3    H253031   5.573   2.698  10.597 -0.1783 -0.6958 -0.5530
10514TIP3   OH253032   2.007   2.406  16.694 -0.1739 -0.1744  0.8798
10514TIP3    H153033   1.958   2.406  16.611  0.2279  0.0040  0.6422
10514TIP3    H253034   1.941   2.385  16.760 -0.4897 -0.3649  0.5092
10515TIP3   OH253035   5.048   3.911  13.934 -0.6578 -0.0658  0.0684
10515TIP3    H153036   5.020   3.962  14.010  3.5818  0.4844  1.5351
10515TIP3    H253037   5.126   3.863  13.964  0.3493 -1.0124 -3.5022
10516TIP3   OH253038   4.070   2.965  12.802 -0.1964 -0.8035 -0.5260
10516TIP3    H153039   4.136   2.916  12.851 -0.0889 -0.4867 -0.3528
10516TIP3    H253040   3.986   2.937  12.840 -0.0941 -0.2735  0.1034
10517TIP3   OH253041   4.141   4.211  11.711 -0.1632 -0.2903  0.0651
10517TIP3    H153042   4.130   4.288  11.766 -0.5750  0.2781 -0.7891
10517TIP3    H253043   4.051   4.187  11.686 -0.0574 -1.2083  0.5449
10518TIP3   OH253044   1.569   3.296   6.104 -0.4472 -0.1517  0.1542
10518TIP3    H153045   1.527   3.266   6.023  0.7530  0.0194 -0.5610
10518TIP3    H253046   1.611   3.218   6.140  1.0950  0.2592 -0.7113
10519TIP3   OH253047   6.058   6.646  15.058 -0.1295  0.0425  0.2796
10519TIP3    H153048   6.145   6.678  15.080 -0.3491 -0.2286  1.6048
10519TIP3    H253049   6.056   6.556  15.090 -0.5808 -0.2691 -0.5871
10520TIP3   OH253050   6.256   4.089  14.935  0.2738  0.3344  0.5189
10520TIP3    H153051   6.340   4.117  14.971  0.2472  1.0708  0.0363
10520TIP3    H253052   6.227   4.163  14.881 -0.2665 -0.2580 -0.0225
10521TIP3   OH253053   0.166   5.052   5.083 -0.7221 -0.1336 -0.1196
10521TIP3    H153054   0.152   5.128   5.026 -0.5298  1.5089  1.9094
10521TIP3    H253055   0.238   5.004   5.042  0.2309  1.6457 -0.6520
10522TIP3   OH253056   6.756   1.903   4.111  0.1186  0.0345  0.0586
10522TIP3    H153057   6.667   1.931   4.091 -0.0384  1.3790  2.3018
10522TIP3    H253058   6.745   1.834   4.177  0.7147 -0.2292 -0.1150
10523TIP3   OH253059   3.837   0.670   4.739  0.1116  0.0941  0.1992
10523TIP3    H153060   3.820   0.587   4.783  0.7607 -0.2195 -0.1302
10523TIP3    H253061   3.827   0.736   4.808 -0.9470 -0.2026  0.3377
10524TIP3   OH253062   0.564   4.821  12.843 -0.1791  0.2989 -0.1024
10524TIP3    H153063   0.489   4.791  12.791 -0.5702 -0.8135  1.0446
10524TIP3    H253064   0.547   4.914  12.859 -1.2052  0.1171 -0.0633
10525TIP3   OH253065   1.164   2.426  12.408 -0.1136 -0.3568  0.2120
10525TIP3    H153066   1.255   2.432  12.380 -0.8250 -0.1660 -2.2968
10525TIP3    H253067   1.144   2.333  12.405 -0.0854 -0.3704  0.4544
10526TIP3   OH253068   3.417   3.705  16.553  0.2255  0.8739 -0.0633
10526TIP3    H153069   3.429   3.628  16.498  0.0243  1.1387 -0.4815
10526TIP3    H253070   3.326   3.698  16.584 -0.0117  1.2925 -0.6494
10527TIP3   OH253071   2.155   1.462   3.664 -0.0924 -0.0575 -0.4390
10527TIP3    H153072   2.142   1.371   3.638  2.1909 -1.2915  2.2037
10527TIP3    H253073   2.126   1.465   3.755 -0.3738  1.9694 -0.5561
10528TIP3   OH253074   4.766   5.561   5.084  0.3961  0.2248  0.2551
10528TIP3    H153075   4.834   5.504   5.120  0.3253  0.1159  0.2161
10528TIP3    H253076   4.812   5.616   5.021  0.3367 -0.2735 -0.2317
10529TIP3   OH253077   1.297   4.706  11.940  0.4049 -0.6611 -0.1713
10529TIP3    H153078   1.367   4.642  11.924  0.8939 -0.4487  0.9990
10529TIP3    H253079   1.315   4.739  12.028 -1.3366 -0.8002  0.2621
10530TIP3   OH253080   0.886   1.805   5.599  0.2515  0.3816 -0.4651
10530TIP3    H153081   0.833   1.726   5.602 -0.0188  0.5825  1.7802
10530TIP3    H253082   0.856   1.857   5.674  3.2526  0.7226  0.6315
10531TIP3   OH253083   1.846   2.165   2.283 -0.2779 -0.0013 -0.2565
10531TIP3    H153084   1.930   2.205   2.306 -0.3963  0.6195 -0.8759
10531TIP3    H253085   1.809   2.138   2.367  0.2838  0.2378  0.0743
10532TIP3   OH253086   4.632   1.021  11.486 -0.1552 -0.3150 -0.6074
10532TIP3    H153087   4.639   1.054  11.397 -0.1711  0.1463 -0.4426
10532TIP3    H253088   4.686   1.081  11.538 -1.8385  0.7551  0.0269
10533TIP3   OH253089   5.126   5.854  16.919  0.2287  0.0587 -0.3717
10533TIP3    H153090   5.031   5.858  16.932  0.1329 -1.5331 -0.3305
10533TIP3    H253091   5.163   5.906  16.990 -0.5875 -0.4288  0.4260
10534TIP3   OH253092   1.084   3.648  12.354  0.5779  0.3068 -0.6008
10534TIP3    H153093   1.069   3.565  12.397  0.1196  1.9445  2.6945
10534TIP3    H253094   1.175   3.643  12.322 -0.2406 -2.3198 -2.9515
10535TIP3   OH253095   0.219   3.053  13.968  0.1042  0.1189  0.2723
10535TIP3    H153096   0.224   3.067  14.062 -0.5457 -0.1896  0.3589
10535TIP3    H253097   0.191   2.962  13.958  0.9051 -0.0865 -0.2381
10536TIP3   OH253098   6.223   4.608   0.176  0.1681 -0.1631  0.1298
10536TIP3    H153099   6.233   4.572   0.088  0.9512 -1.1022  0.5845
10536TIP3    H253100   6.232   4.532   0.234  1.8097  0.7272  1.1254
10537TIP3   OH253101   6.424   6.336  14.029  0.0463  0.7684 -0.7504
10537TIP3    H153102   6.450   6.390  14.104 -0.4623 -0.3790  0.2807
10537TIP3    H253103   6.498   6.277  14.017 -0.0049  0.7509 -0.9680
10538TIP3   OH253104   1.622   6.784  14.649 -0.3665  0.0430  0.5283
10538TIP3    H153105   1.702   6.814  14.607  1.5519 -3.9183  0.9158
10538TIP3    H253106   1.554   6.797  14.583  0.7717  2.2865 -0.3120
10539TIP3   OH253107   5.457   1.518   0.424  0.1450 -0.2088 -0.0701
10539TIP3    H153108   5.453   1.574   0.347  0.6755 -0.6661 -0.4416
10539TIP3    H253109   5.399   1.445   0.403  0.0001 -0.1485  0.1204
10540TIP3   OH253110   1.654   0.706   5.841 -0.2573  0.1492 -0.6063
10540TIP3    H153111   1.597   0.673   5.911  1.4229 -2.7834 -0.5060
10540TIP3    H253112   1.592   0.739   5.775 -1.9929 -0.5411  0.5815
10541TIP3   OH253113   6.666   3.861  15.911 -0.1691 -0.0711  0.3593
10541TIP3    H153114   6.583   3.841  15.867  1.5587 -1.6259 -2.5238
10541TIP3    H253115   6.680   3.954  15.893 -1.5227  0.3600  1.3890
10542TIP3   OH253116   4.550   5.892  13.775  0.2786  0.4297 -0.2811
10542TIP3    H153117   4.521   5.962  13.834  1.2476 -0.0615  0.8031
10542TIP3    H253118   4.645   5.903  13.770  0.1339  1.2425 -2.7910
10543TIP3   OH253119   5.058   3.763   0.779 -0.4069 -0.2833  0.4295
10543TIP3    H153120   4.968   3.736   0.796 -0.7470  0.8497  0.4589
10543TIP3    H253121   5.056   3.858   0.782  0.9761 -0.2584  1.3036
10544TIP3   OH253122   3.171   2.856  12.126 -0.6837 -0.1508 -0.3458
10544TIP3    H153123   3.200   2.824  12.211 -0.0364 -1.3971 -1.0191
10544TIP3    H253124   3.078   2.878  12.140 -0.6726 -0.6358  0.5955
10545TIP3   OH253125   4.206   5.003   1.386  0.0925 -0.1616  0.2017
10545TIP3    H153126   4.119   5.009   1.427  0.4025  2.3574  0.6366
10545TIP3    H253127   4.233   5.094   1.373  2.9086 -0.8498  0.5706
10546TIP3   OH253128   2.409   3.541  13.166 -0.5501  0.0501  0.4119
10546TIP3    H153129   2.430   3.634  13.164 -1.0717  0.1545 -0.6048
10546TIP3    H253130   2.314   3.537  13.166 -0.5404 -0.4754  1.6580
10547TIP3   OH253131   5.158   5.326   5.217 -0.3960  0.0190 -0.3753
10547TIP3    H153132   5.142   5.244   5.265  0.6192  0.7514  1.3159
10547TIP3    H253133   5.181   5.298   5.129 -1.5330 -1.4308 -0.2536
10548TIP3   OH253134   6.108   1.007   1.714 -0.0610 -0.1604  0.3556
10548TIP3    H153135   6.132   0.983   1.804 -1.0481 -0.1152  0.6415
10548TIP3    H253136   6.082   0.924   1.674  1.4875 -0.3763 -0.2651
10549TIP3   OH253137   0.714   2.360   2.279  0.1818 -0.0663 -0.0229
10549TIP3    H153138   0.695   2.382   2.188 -1.4642  1.2591  0.5749
10549TIP3    H253139   0.635   2.387   2.327  0.9410 -0.8576  1.7777
10550TIP3   OH253140   4.911   5.883   1.424  0.2959 -0.0271  0.1089
10550TIP3    H153141   4.875   5.887   1.513  2.0849 -1.0562  0.9133
10550TIP3    H253142   4.936   5.974   1.404  0.0283  0.1828  0.7033
10551TIP3   OH253143   0.743   1.121   5.809 -0.0243  0.1758 -0.0939
10551TIP3    H153144   0.652   1.150   5.823  0.8572  2.9436  0.6075
10551TIP3    H253145   0.763   1.068   5.886 -0.8534  0.0468  0.0490
10552TIP3   OH253146   6.254   2.295   4.428  0.0136  0.0258  0.3642
10552TIP3    H153147   6.163   2.264   4.422 -0.1690  0.4932  0.6749
10552TIP3    H253148   6.247   2.390   4.418  0.3338  0.1910  1.6584
10553TIP3   OH253149   1.932   5.023  13.706 -0.0740  0.2102 -0.4705
10553TIP3    H153150   1.872   5.095  13.685  0.3988  1.1338  1.1515
10553TIP3    H253151   1.997   5.063  13.765  1.1166 -1.1821 -0.7900
10554TIP3   OH253152   2.830   5.911   5.734 -0.0190 -0.1758 -0.1701
10554TIP3    H153153   2.895   5.841   5.725  1.4400  1.2109 -0.8972
10554TIP3    H253154   2.838   5.938   5.826  0.3843 -0.0703 -0.2326
10555TIP3   OH253155   6.547   0.853  16.944 -0.3162 -0.4722 -0.6139
10555TIP3    H153156   6.514   0.764  16.939 -0.7550 -0.2328 -2.4206
10555TIP3    H253157   6.482   0.900  16.995  0.5122 -1.3980  1.4217
10556TIP3   OH253158   2.623   1.169   4.316 -0.1576 -0.2242 -0.1605
10556TIP3    H153159   2.566   1.100   4.350 -1.1561  0.7191  0.1026
10556TIP3    H253160   2.663   1.130   4.238 -0.5851 -1.1529  0.0713
10557TIP3   OH253161   3.626   1.584   3.300 -0.1637  0.4203  0.6278
10557TIP3    H153162   3.711   1.622   3.319 -0.2007  0.3066  1.0281
10557TIP3    H253163   3.645   1.494   3.273 -0.0894  0.6669 -0.1500
10558TIP3   OH253164   2.727   6.701   6.364 -1.0544  0.0706 -0.1552
10558TIP3    H153165   2.800   6.694   6.427  0.5302 -0.6322 -1.9711
10558TIP3    H253166   2.723   6.615   6.323 -2.0558  0.5195 -1.0369
10559TIP3   OH253167   4.519   4.806   1.540 -0.5023  0.6826 -0.1754
10559TIP3    H153168   4.600   4.841   1.576 -0.6413  0.5499  0.2786
10559TIP3    H253169   4.542   4.776   1.453  0.3156 -0.7396  0.4893
10560TIP3   OH253170   5.592   0.266  13.366  0.0102 -0.2497  0.3382
10560TIP3    H153171   5.500   0.283  13.382  0.7474  3.1410  1.9309
10560TIP3    H253172   5.625   0.234  13.450  0.3450 -1.3654 -0.1969
10561TIP3   OH253173   1.030   5.740  14.967  0.4591 -0.6435  0.3083
10561TIP3    H153174   1.009   5.779  15.052 -0.7951  0.6726 -0.5525
10561TIP3    H253175   1.113   5.780  14.942  0.7773 -0.9553  0.8465
10562TIP3   OH253176   4.385   2.271   0.923  0.1744  0.2509 -0.7279
10562TIP3    H153177   4.417   2.270   0.833 -1.9098 -2.7731 -1.5965
10562TIP3    H253178   4.436   2.203   0.967  0.3314  0.8594  0.0449
10563TIP3   OH253179   0.448   2.211   2.010  0.2144 -0.0900 -0.1226
10563TIP3    H153180   0.487   2.130   2.043 -0.0121  0.3288  1.2731
10563TIP3    H253181   0.480   2.219   1.921  1.4876 -0.9146  0.2383
10564TIP3   OH253182   1.185   3.758  11.486  0.2812 -0.3718 -0.1194
10564TIP3    H153183   1.204   3.727  11.398 -1.8186  0.4337 -0.9065
10564TIP3    H253184   1.124   3.694  11.522 -1.1763  0.8149 -0.3846
10565TIP3   OH253185   2.909   6.715  14.703  0.4699 -0.4147 -0.2424
10565TIP3    H153186   2.851   6.653  14.657  0.7654 -0.8680 -0.0147
10565TIP3    H253187   2.943   6.771  14.634  0.4951 -0.7524 -0.5101
10566TIP3   OH253188   4.827   6.238  12.648  0.4319  0.0645  0.0940
10566TIP3    H153189   4.853   6.304  12.583 -3.8777  0.8115 -1.1925
10566TIP3    H253190   4.838   6.283  12.732  1.4587  0.8962 -0.4567
10567TIP3   OH253191   4.001   6.116  15.330  0.5497  0.6743  0.0985
10567TIP3    H153192   3.931   6.179  15.311 -1.2506 -1.1390  0.3053
10567TIP3    H253193   4.058   6.119  15.254 -0.3008  1.5333 -0.5267
10568TIP3   OH253194   1.849   4.796   2.135 -0.0103  0.3338  1.1638
10568TIP3    H153195   1.867   4.728   2.200  0.1883 -0.3106  0.4480
10568TIP3    H253196   1.929   4.801   2.083 -0.1326  0.9161  1.0266
10569TIP3   OH253197   6.483   3.139  14.318 -0.5575 -0.0686  0.3361
10569TIP3    H153198   6.501   3.211  14.379 -0.2484 -0.2277  0.4348
10569TIP3    H253199   6.388   3.130  14.320 -0.6891  0.9579 -0.3950
10570TIP3   OH253200   5.725   1.543  11.629 -0.0752 -0.8600  0.0763
10570TIP3    H153201   5.703   1.452  11.649  1.1341 -1.0495  0.6133
10570TIP3    H253202   5.771   1.574  11.707  0.4062 -0.0961 -0.4965
10571TIP3   OH253203   0.446   0.725   2.947  0.2155  0.6462 -0.2384
10571TIP3    H153204   0.398   0.800   2.981  1.4022  0.8282  1.1608
10571TIP3    H253205   0.514   0.709   3.013 -0.0783 -1.7292 -0.4179
10572TIP3   OH253206   4.268   4.486   0.186 -0.2789  0.1217 -0.1151
10572TIP3    H153207   4.190   4.485   0.130  0.2847  0.6558 -0.9228
10572TIP3    H253208   4.341   4.500   0.126  0.6758 -2.2701  0.3605
10573TIP3   OH253209   3.724   1.687  13.403  0.1446  0.4250 -0.6191
10573TIP3    H153210   3.750   1.693  13.495  0.8521 -2.0465 -0.5862
10573TIP3    H253211   3.798   1.644  13.360 -0.8764 -0.0146 -2.0022
10574TIP3   OH253212   0.897   0.629   5.839  0.1371 -0.1932  0.0469
10574TIP3    H153213   0.950   0.633   5.919 -1.4756  0.8383  1.1200
10574TIP3    H253214   0.809   0.652   5.868 -0.2440  1.5889 -2.2621
10575TIP3   OH253215   6.806   6.811  17.149 -0.3124 -0.1041 -0.0410
10575TIP3    H153216   6.748   6.736  17.160 -1.5238  0.8024  0.0375
10575TIP3    H253217   6.768   6.879  17.204  0.1869  0.8708 -0.8524
10576TIP3   OH253218   3.624   3.046  11.371  0.5072 -0.3915  0.2258
10576TIP3    H153219   3.533   3.048  11.341  0.8270  0.0160 -0.7342
10576TIP3    H253220   3.668   3.114  11.320  1.4891 -0.9997  0.2447
10577TIP3   OH253221   5.268   0.652  15.121 -0.1893 -0.0445  0.1819
10577TIP3    H153222   5.317   0.727  15.088 -0.7538 -0.0667 -0.7633
10577TIP3    H253223   5.290   0.580  15.062 -1.1493 -0.1153 -0.1187
10578TIP3   OH253224   1.963   2.063  16.751 -0.3642  0.3083  0.1413
10578TIP3    H153225   1.923   2.115  16.681  2.0408  1.3428 -0.5829
10578TIP3    H253226   1.998   2.127  16.812  0.9773 -0.4893  0.2490
10579TIP3   OH253227   4.690   5.081  16.511  0.0210 -0.5959 -0.0989
10579TIP3    H153228   4.664   5.058  16.421  1.3581  0.6994 -0.8591
10579TIP3    H253229   4.657   5.170  16.524  2.2347  0.3501 -0.4072
10580TIP3   OH253230   4.905   3.998  14.861 -0.4029 -0.0577 -0.0156
10580TIP3    H153231   4.894   4.000  14.766  1.1741 -0.4103 -0.2295
10580TIP3    H253232   4.924   4.089  14.885  0.1374 -0.1302 -0.1653
10581TIP3   OH253233   1.071   2.908   3.823 -0.0049  0.4569  0.2117
10581TIP3    H153234   0.976   2.910   3.827 -0.0689 -0.3688 -0.6567
10581TIP3    H253235   1.092   2.838   3.761  1.1746  0.3543  0.6856
10582TIP3   OH253236   5.687   6.736  14.502 -0.2814  0.5739  0.0035
10582TIP3    H153237   5.655   6.738  14.411 -1.1520 -0.5408  0.2552
10582TIP3    H253238   5.638   6.664  14.542  1.9017 -0.6140  0.6813
10583TIP3   OH253239   1.527   3.627  15.054  0.7364  0.4110 -0.3881
10583TIP3    H153240   1.572   3.573  15.119 -1.3015 -1.2971 -0.2821
10583TIP3    H253241   1.488   3.698  15.105 -0.0395 -0.3788  0.1428
10584TIP3   OH253242   0.597   0.934  13.093 -0.2649  0.2842 -0.3666
10584TIP3    H153243   0.552   0.858  13.056 -0.4224  0.2650 -0.1376
10584TIP3    H253244   0.646   0.898  13.168 -2.4272  0.8207  1.4124
10585TIP3   OH253245   0.720   1.796  11.322  0.2435  0.5834 -0.1302
10585TIP3    H153246   0.685   1.790  11.411  0.7757  0.6554  0.0855
10585TIP3    H253247   0.746   1.887  11.313  0.1802  0.5789 -0.3674
10586TIP3   OH253248   4.442   1.313  13.938 -1.0110  0.2608  0.0659
10586TIP3    H153249   4.445   1.388  13.878  1.0097  1.4527  1.5374
10586TIP3    H253250   4.400   1.347  14.017  0.3004 -0.0016  0.9017
10587TIP3   OH253251   2.511   2.803  15.017  0.1398  0.2042 -0.6362
10587TIP3    H153252   2.566   2.837  14.946 -1.1617  0.6840 -1.4536
10587TIP3    H253253   2.566   2.737  15.060  1.9697  1.8146 -0.3369
10588TIP3   OH253254   0.140   3.709   5.334  0.1003 -0.0750  0.3139
10588TIP3    H153255   0.126   3.617   5.311  1.5955  0.4273 -3.1978
10588TIP3    H253256   0.071   3.728   5.399 -0.0306 -3.6754  1.4567
10589TIP3   OH253257   4.143   5.598   3.184 -0.0571 -0.0486 -0.5999
10589TIP3    H153258   4.080   5.527   3.191  1.0385 -1.1462 -1.3334
10589TIP3    H253259   4.215   5.572   3.242 -1.1867  2.2813  2.0385
10590TIP3   OH253260   4.709   4.494  17.179  0.2515  0.1017  0.1326
10590TIP3    H153261   4.725   4.411  17.224  0.4964 -0.9175 -1.7282
10590TIP3    H253262   4.718   4.560  17.247 -2.9516 -1.5227  2.4208
10591TIP3   OH253263   1.411   1.115   1.784 -0.2827  0.2789  0.3675
10591TIP3    H153264   1.486   1.115   1.725  0.3676  0.6251  1.1685
10591TIP3    H253265   1.416   1.199   1.830 -0.8255  0.0601  0.8485
10592TIP3   OH253266   5.976   1.043  13.210  0.2201  0.0604  0.0247
10592TIP3    H153267   6.058   0.994  13.217  0.2525  0.0989 -0.0880
10592TIP3    H253268   5.987   1.118  13.269  0.5064  0.4040 -0.4676
10593TIP3   OH253269   1.179   0.490  12.790  0.5105  0.5407 -0.4632
10593TIP3    H153270   1.248   0.535  12.741  0.3993 -0.3482 -1.4715
10593TIP3    H253271   1.145   0.424  12.729  0.6774 -0.9187  0.9442
10594TIP3   OH253272   5.153   3.066  12.387  0.0629  0.0488 -0.3061
10594TIP3    H153273   5.098   3.134  12.426  0.2873 -0.7389  1.5170
10594TIP3    H253274   5.215   3.042  12.457  2.0663  0.1776 -1.9320
10595TIP3   OH253275   3.111   4.330   2.379  0.0415 -0.4553  0.1285
10595TIP3    H153276   3.157   4.266   2.325 -1.4830 -1.9636  0.5232
10595TIP3    H253277   3.043   4.279   2.424 -0.9963  1.3848  0.7550
10596TIP3   OH253278   4.789   6.212   1.963  0.5470 -0.0815 -0.5108
10596TIP3    H153279   4.824   6.133   1.921  0.8097  0.9261 -2.3061
10596TIP3    H253280   4.694   6.205   1.951  0.4448 -0.7452  0.5424
10597TIP3   OH253281   5.469   4.508   4.584 -0.2368 -0.5157  0.2742
10597TIP3    H153282   5.558   4.499   4.618 -0.5339  0.3471  1.3648
10597TIP3    H253283   5.432   4.420   4.592 -0.1786 -0.4299  1.9392
10598TIP3   OH253284   3.499   1.939  13.290  0.4379 -1.0465  0.6494
10598TIP3    H153285   3.488   1.849  13.260 -0.0418 -0.4818 -0.9447
10598TIP3    H253286   3.410   1.972  13.303  0.5148 -0.1884 -0.7707
10599TIP3   OH253287   6.789   5.891   4.406  0.4178 -0.0608  0.1093
10599TIP3    H153288   6.777   5.977   4.365  0.5377  0.0339  0.2728
10599TIP3    H253289   6.883   5.875   4.401  0.5071  0.2047  0.8573
10600TIP3   OH253290   0.108   1.789   0.763  0.2400 -0.5456 -0.1860
10600TIP3    H153291   0.055   1.718   0.725  1.2925 -0.3718 -2.1137
10600TIP3    H253292   0.062   1.813   0.843 -2.4465 -0.6006 -1.6092
10601TIP3   OH253293   1.038   6.638   0.058 -0.5938 -0.3212 -0.3066
10601TIP3    H153294   1.054   6.547   0.083 -3.6324 -1.2127 -1.1496
10601TIP3    H253295   1.058   6.688   0.137  0.1700 -1.8235  0.5051
10602TIP3   OH253296   1.892   4.547   3.531  0.1278 -0.2463 -0.2827
10602TIP3    H153297   1.839   4.504   3.598 -0.4262  1.0503  0.1454
10602TIP3    H253298   1.974   4.568   3.576  0.1657 -0.3237 -0.3161
10603TIP3   OH253299   4.740   5.084  11.210  0.0866  0.2848  0.0330
10603TIP3    H153300   4.772   5.168  11.244 -0.4798 -0.1702  1.7690
10603TIP3    H253301   4.658   5.069  11.257  0.9761 -2.0061  1.0049
10604TIP3   OH253302   1.215   6.250  12.304 -0.1959 -0.2136  0.3140
10604TIP3    H153303   1.141   6.252  12.365 -1.1931 -0.7916 -0.8221
10604TIP3    H253304   1.188   6.306  12.232  0.5115 -0.3637 -0.0789
10605TIP3   OH253305   3.047   3.292  13.539  0.9673  0.0260  0.4705
10605TIP3    H153306   3.063   3.386  13.549  0.1515  0.4515 -1.6691
10605TIP3    H253307   3.115   3.263  13.477  0.1905 -0.4298 -0.1868
10606TIP3   OH253308   3.971   1.053  16.767  0.6953  0.2363  0.3897
10606TIP3    H153309   3.896   0.996  16.754  2.1240 -1.8775  0.9048
10606TIP3    H253310   4.045   1.003  16.734  1.8063  2.6001 -0.8801
10607TIP3   OH253311   3.872   6.359  15.323  0.1588  0.1045  0.3832
10607TIP3    H153312   3.950   6.406  15.293  0.0512  0.8352  1.2224
10607TIP3    H253313   3.799   6.404  15.280  0.1447 -0.1577  0.1270
10608TIP3   OH253314   3.712   3.154   1.884  0.5368  0.2321 -0.1563
10608TIP3    H153315   3.758   3.228   1.923  1.1449 -0.0569 -0.3134
10608TIP3    H253316   3.665   3.192   1.809  0.1996  0.5957  0.2325
10609TIP3   OH253317   4.645   0.767  16.348 -0.0430  0.4800  0.3277
10609TIP3    H153318   4.659   0.709  16.423 -0.8573  2.8092  2.4187
10609TIP3    H253319   4.578   0.723  16.296  2.2107 -2.3470 -0.4399
10610TIP3   OH253320   1.061   0.054   4.189  0.1639 -0.3679 -0.3606
10610TIP3    H153321   1.152   0.068   4.163 -0.0814  1.1090 -0.4915
10610TIP3    H253322   1.065   0.043   4.284  0.5555 -1.0881 -0.4560
10611TIP3   OH253323   3.067   2.615   2.075  0.2502 -0.0167 -0.6840
10611TIP3    H153324   3.064   2.524   2.102 -1.8633  0.4363  0.8690
10611TIP3    H253325   3.132   2.655   2.132 -1.6453  0.1868  1.4750
10612TIP3   OH253326   5.165   3.696  14.240  0.4883  0.0445  0.6386
10612TIP3    H153327   5.233   3.677  14.306 -0.7817  1.0137  2.2968
10612TIP3    H253328   5.165   3.791  14.232 -0.2492  0.0112  0.1678
10613TIP3   OH253329   6.079   2.624  15.659  0.4205  0.3095 -0.0069
10613TIP3    H153330   6.092   2.573  15.580 -0.2036  1.3447 -0.8169
10613TIP3    H253331   6.096   2.715  15.632 -0.4446  0.7573  0.8599
10614TIP3   OH253332   0.201   3.027  16.476  0.5960  0.1901 -0.0946
10614TIP3    H153333   0.188   3.035  16.382 -3.9368 -0.4419  0.2473
10614TIP3    H253334   0.208   3.117  16.507  2.2243  0.3974 -0.9558
10615TIP3   OH253335   5.420   1.137   5.832  0.0294  0.5126 -0.3527
10615TIP3    H153336   5.508   1.107   5.857  0.6271  1.1087 -1.6754
10615TIP3    H253337   5.364   1.109   5.905  1.5576  1.4769  1.2692
10616TIP3   OH253338   3.961   0.730  11.246 -0.0349 -0.2295  0.6420
10616TIP3    H153339   4.001   0.643  11.243  0.3346 -0.1147  1.9054
10616TIP3    H253340   3.937   0.748  11.155  0.9319 -1.1647  0.1801
10617TIP3   OH253341   6.738   1.955  13.809  0.0130 -0.0541 -0.3596
10617TIP3    H153342   6.716   1.877  13.758  0.5826 -0.3751 -0.1246
10617TIP3    H253343   6.710   1.935  13.898 -0.6907  0.3814 -0.4748
10618TIP3   OH253344   4.307   6.657  16.479 -0.3197  0.1018 -0.0611
10618TIP3    H153345   4.370   6.726  16.456  1.1331 -0.2317  2.5794
10618TIP3    H253346   4.332   6.583  16.424  0.6427  0.4407 -0.1018
10619TIP3   OH253347   4.023   6.279   4.698 -0.4767 -0.1882  0.1097
10619TIP3    H153348   4.000   6.323   4.780 -1.9303 -2.2005  0.8550
10619TIP3    H253349   3.944   6.287   4.644 -0.7031 -1.6612  0.1908
10620TIP3   OH253350   2.374   2.911   0.388 -0.0288 -0.0909  0.3959
10620TIP3    H153351   2.337   2.912   0.476  0.7178  1.6604  0.7340
10620TIP3    H253352   2.448   2.851   0.393 -1.0010 -1.3220  0.4889
10621TIP3   OH253353   1.719   2.819  12.572 -0.2558 -0.4549 -0.1904
10621TIP3    H153354   1.717   2.748  12.508  1.5367 -0.5084 -0.2407
10621TIP3    H253355   1.688   2.780  12.653  0.2332 -1.1682 -0.3431
10622TIP3   OH253356   4.447   0.931   1.555 -0.4386 -0.0012 -0.1542
10622TIP3    H153357   4.386   1.001   1.534 -1.5611 -0.8672  0.0604
10622TIP3    H253358   4.512   0.971   1.613 -0.5129  1.0682 -0.8011
10623TIP3   OH253359   4.930   5.025  12.651 -0.2171  0.1582  0.2319
10623TIP3    H153360   4.943   4.951  12.710 -0.0812  0.7519  0.9595
10623TIP3    H253361   4.847   5.006  12.607 -0.6706  0.0265  1.1102
10624TIP3   OH253362   5.503   6.437  12.644  0.6123 -0.0021 -0.3667
10624TIP3    H153363   5.529   6.380  12.571 -0.2295 -0.4426 -0.3290
10624TIP3    H253364   5.539   6.395  12.722 -1.0854 -1.2120 -0.1863
10625TIP3   OH253365   0.064   1.408   4.725 -0.2964 -0.5047  0.2218
10625TIP3    H153366   0.141   1.387   4.672  0.4239  2.6569 -0.1699
10625TIP3    H253367  -0.010   1.396   4.665  0.2868  0.5207 -0.7396
10626TIP3   OH253368   1.215   3.203  14.051  0.2438 -0.2550  0.6252
10626TIP3    H153369   1.310   3.207  14.059  0.6021 -3.6752 -0.4140
10626TIP3    H253370   1.188   3.142  14.120 -1.2700  0.9496  1.1399
10627TIP3   OH253371   3.538   6.285  10.631  0.1562 -0.6447 -0.0917
10627TIP3    H153372   3.444   6.298  10.619  0.1013 -0.2388  0.7233
10627TIP3    H253373   3.579   6.351  10.576  0.0601 -2.5021 -2.6000
10628TIP3   OH253374   1.567   6.605  12.342  0.3483  0.9265 -0.2394
10628TIP3    H153375   1.588   6.557  12.262  0.4077  0.2904  0.1593
10628TIP3    H253376   1.518   6.544  12.396  0.4143  1.3105  0.2676
10629TIP3   OH253377   6.646   1.439   2.119  0.0662 -0.3867 -0.3147
10629TIP3    H153378   6.630   1.454   2.026 -1.0934  1.8376  0.1762
10629TIP3    H253379   6.686   1.520   2.150 -0.4219 -0.7215  1.3018
10630TIP3   OH253380   3.276   0.864  13.653 -0.4924 -0.3235  0.1213
10630TIP3    H153381   3.274   0.941  13.711  0.9172  0.6439 -1.0355
10630TIP3    H253382   3.184   0.845  13.635 -0.8873  1.7482 -0.3682
10631TIP3   OH253383   3.208   0.279   5.151 -0.3419 -0.0532 -0.9128
10631TIP3    H153384   3.211   0.372   5.130 -0.5152 -0.0277 -0.8306
10631TIP3    H253385   3.230   0.274   5.244  1.5605 -0.2688 -1.3287
10632TIP3   OH253386   3.667   3.388  16.585 -0.1040 -0.0601 -0.3958
10632TIP3    H153387   3.579   3.399  16.550  0.3438  1.0691 -1.2121
10632TIP3    H253388   3.698   3.477  16.602  1.8484 -0.2288 -2.6219
10633TIP3   OH253389   0.692   2.885  15.914 -0.2296 -0.0141 -0.3565
10633TIP3    H153390   0.603   2.850  15.921 -0.0006 -0.8986 -1.5196
10633TIP3    H253391   0.749   2.809  15.923  0.4830  0.6647  1.2832
10634TIP3   OH253392   0.910   4.484  15.064  0.2618 -0.6927  0.0988
10634TIP3    H153393   0.843   4.417  15.055 -0.9578  0.7159 -2.6488
10634TIP3    H253394   0.863   4.563  15.092  1.1316 -0.2460  0.3373
10635TIP3   OH253395   5.575   1.857   5.076  0.0090 -0.0368  0.2740
10635TIP3    H153396   5.649   1.900   5.119 -0.0111 -1.0620  1.3834
10635TIP3    H253397   5.615   1.793   5.017  0.0470 -0.9326  1.2296
10636TIP3   OH253398   6.112   3.526   2.485 -0.5935 -0.3263 -0.4505
10636TIP3    H153399   6.021   3.511   2.458 -0.6775 -0.6748  0.0083
10636TIP3    H253400   6.109   3.525   2.580  0.1560 -2.0348 -0.4193
10637TIP3   OH253401   6.303   4.514  10.629  0.1880  0.1656  0.3070
10637TIP3    H153402   6.256   4.524  10.712  3.0107  0.8949  1.9479
10637TIP3    H253403   6.249   4.560  10.565 -0.9398  1.6009  2.2024
10638TIP3   OH253404   4.708   4.866   4.493  0.1883  0.1701  0.6484
10638TIP3    H153405   4.760   4.944   4.512  1.7262 -0.8002  0.5621
10638TIP3    H253406   4.767   4.808   4.445 -1.1958 -0.6969 -0.0848
10639TIP3   OH253407   1.425   3.339   1.432 -0.1186  0.3756  0.4722
10639TIP3    H153408   1.443   3.290   1.512 -1.3327 -0.7484  0.0800
10639TIP3    H253409   1.371   3.281   1.379 -2.1599  2.3324  0.2449
10640TIP3   OH253410   2.137   4.972   3.840  0.0904 -0.1237 -0.5096
10640TIP3    H153411   2.078   5.022   3.785 -0.8769  0.7525  1.2256
10640TIP3    H253412   2.201   5.036   3.872 -1.2946  0.1981  1.9137
10641TIP3   OH253413   4.004   1.704  13.679  0.4719  0.3658 -0.6652
10641TIP3    H153414   3.991   1.724  13.586 -0.3192  0.8681 -0.4598
10641TIP3    H253415   4.067   1.769  13.709  0.7762  0.1643 -0.8637
10642TIP3   OH253416   3.637   0.510  11.106 -0.2160  0.5182  0.1171
10642TIP3    H153417   3.627   0.566  11.183  0.0730  0.1151  0.4546
10642TIP3    H253418   3.631   0.570  11.032 -0.6994  0.8844  0.4462
10643TIP3   OH253419   1.886   2.680  16.387  0.2159  0.9690 -0.3627
10643TIP3    H153420   1.968   2.713  16.425 -0.4085  0.6525  1.3406
10643TIP3    H253421   1.889   2.586  16.405 -0.3053  0.8883 -0.6995
10644TIP3   OH253422   0.614   0.492   6.377  0.5312  0.4444 -0.4867
10644TIP3    H153423   0.560   0.549   6.322 -0.5606 -1.1066 -1.0892
10644TIP3    H253424   0.556   0.465   6.448  1.4124  1.0425  0.4856
10645TIP3   OH253425   5.657   5.380  15.550 -0.3717 -0.4692  0.2388
10645TIP3    H153426   5.697   5.464  15.527 -0.6087 -0.5879 -0.6339
10645TIP3    H253427   5.685   5.320  15.480 -0.2109 -1.1217  0.8426
10646TIP3   OH253428   0.830   5.898   3.597 -0.8287 -0.2334 -0.4195
10646TIP3    H153429   0.881   5.818   3.612 -1.8501 -0.8289  0.0053
10646TIP3    H253430   0.895   5.964   3.574  0.2926 -0.6234  1.3750
10647TIP3   OH253431   3.257   6.003   2.691 -0.4358 -0.0056 -0.2679
10647TIP3    H153432   3.302   6.060   2.628 -1.5105  2.1874  0.8257
10647TIP3    H253433   3.323   5.938   2.717  0.5754  0.1765 -2.2346
10648TIP3   OH253434   2.713   3.120   2.372 -0.2108 -0.3142  0.4144
10648TIP3    H153435   2.780   3.188   2.370  0.7662 -1.0339  3.1726
10648TIP3    H253436   2.632   3.166   2.352  0.8187  0.9535 -1.1088
10649TIP3   OH253437   4.518   1.138  17.262  0.6249 -0.0333  0.2555
10649TIP3    H153438   4.521   1.121  17.168  1.7945  0.9743  0.0877
10649TIP3    H253439   4.435   1.184  17.275  1.0118  0.9072 -0.4908
10650TIP3   OH253440   1.857   4.577  17.167 -0.2862 -0.2146  0.2557
10650TIP3    H153441   1.795   4.645  17.193  1.0087  1.4907 -0.9250
10650TIP3    H253442   1.835   4.559  17.075  0.3236 -0.3105  0.1256
10651TIP3   OH253443   6.055   2.062  14.575 -0.1565 -0.1417  0.0365
10651TIP3    H153444   6.064   2.115  14.654  1.4230  1.2066 -1.0018
10651TIP3    H253445   5.974   2.012  14.589 -0.3150  0.6137  2.1568
10652TIP3   OH253446   1.611   1.063  12.681 -0.2401  0.0500 -0.1139
10652TIP3    H153447   1.548   1.010  12.631  1.4452 -0.4044 -1.9044
10652TIP3    H253448   1.632   1.136  12.623  1.6279 -0.3797 -0.0492
10653TIP3   OH253449   3.554   2.670   2.234 -0.4241 -0.4338 -0.3493
10653TIP3    H153450   3.570   2.763   2.217  1.2406 -0.9066 -1.6112
10653TIP3    H253451   3.604   2.651   2.313 -1.3651 -0.1240  0.3434
10654TIP3   OH253452   4.645   1.216  10.540  0.2700 -0.2868 -0.0508
10654TIP3    H153453   4.687   1.135  10.513  0.4595 -0.2182  0.0326
10654TIP3    H253454   4.569   1.225  10.483  1.5345  0.6836 -1.6704
10655TIP3   OH253455   4.512   6.436  14.419  0.0116 -0.2697 -0.1249
10655TIP3    H153456   4.492   6.359  14.472 -0.6802 -1.0403 -1.4516
10655TIP3    H253457   4.438   6.495  14.433 -0.2058 -0.5045 -0.2662
10656TIP3   OH253458   6.001   4.089   1.776 -0.0879 -0.4143 -0.2135
10656TIP3    H153459   6.073   4.100   1.838  0.0131  2.2569 -0.6866
10656TIP3    H253460   6.044   4.074   1.692 -0.1051 -0.1241 -0.2756
10657TIP3   OH253461   4.485   0.333   4.503  0.1337  0.1796 -0.2481
10657TIP3    H153462   4.493   0.363   4.594 -1.4881  1.5126 -0.4994
10657TIP3    H253463   4.484   0.414   4.451  0.2511 -0.5311 -1.3909
10658TIP3   OH253464   5.030   3.919   3.580 -0.2405  0.5765 -0.1790
10658TIP3    H153465   4.984   3.944   3.501 -0.8975 -0.7319 -0.2485
10658TIP3    H253466   5.040   4.000   3.630 -1.8184  1.0503 -0.5835
10659TIP3   OH253467   6.518   2.247   4.025  0.1749  0.5617 -0.1463
10659TIP3    H153468   6.477   2.325   4.063  1.8936  0.3991  2.1998
10659TIP3    H253469   6.611   2.269   4.019  0.4710 -0.7924 -0.8256
10660TIP3   OH253470   2.967   1.529   3.326 -0.7516  0.2412  0.4464
10660TIP3    H153471   3.028   1.455   3.336 -0.2872  0.5004 -0.4274
10660TIP3    H253472   2.928   1.516   3.240 -0.9126  0.8396  0.4298
10661TIP3   OH253473   4.066   5.555  11.821 -0.0745  0.0747 -0.0766
10661TIP3    H153474   4.147   5.604  11.809 -0.5547  0.7253 -0.8475
10661TIP3    H253475   4.007   5.616  11.865 -0.5454  0.0691 -0.6689
10662TIP3   OH253476   2.668   1.395  15.870 -0.6645  0.4065 -0.2910
10662TIP3    H153477   2.712   1.478  15.849 -0.3851 -0.0367 -1.5442
10662TIP3    H253478   2.619   1.374  15.790 -0.9941 -0.4775  0.1343
10663TIP3   OH253479   5.036   5.460   3.133 -0.5842  0.5961 -0.0271
10663TIP3    H153480   4.977   5.479   3.060  1.9148  1.7267 -1.9630
10663TIP3    H253481   5.046   5.544   3.178 -1.3986  0.1155  1.0755
10664TIP3   OH253482   3.458   5.103  12.258  0.2245 -1.1096 -0.1090
10664TIP3    H153483   3.422   5.048  12.188  0.8157 -2.8229  0.8787
10664TIP3    H253484   3.549   5.119  12.232 -0.4532  1.1178 -1.3577
10665TIP3   OH253485   5.119   3.449   5.263  0.4957  0.4174 -0.7442
10665TIP3    H153486   5.088   3.364   5.294  2.0518  0.2870  0.6156
10665TIP3    H253487   5.040   3.499   5.244 -0.6338  0.3137  3.0515
10666TIP3   OH253488   2.007   1.839  13.394 -0.0691 -0.0104  0.1613
10666TIP3    H153489   1.939   1.791  13.442  0.0384  0.8855  1.2368
10666TIP3    H253490   2.080   1.778  13.388 -0.7048 -0.7324 -0.3823
10667TIP3   OH253491   6.017   5.633  13.945 -0.5888 -0.5445 -0.4536
10667TIP3    H153492   6.015   5.674  13.859 -2.9267  2.1981  0.7434
10667TIP3    H253493   6.068   5.693  13.999 -2.7943  0.1154  1.0146
10668TIP3   OH253494   2.540   4.067  13.902  0.3871  0.0966  0.0003
10668TIP3    H153495   2.553   4.104  13.815  1.2397  0.0663  0.1090
10668TIP3    H253496   2.626   4.035  13.928  0.4283  1.2544  1.3832
10669TIP3   OH253497   1.770   0.438   4.318 -0.4668 -0.1494 -0.0323
10669TIP3    H153498   1.701   0.484   4.269 -1.8796 -1.1277  0.9523
10669TIP3    H253499   1.780   0.488   4.398 -0.2574 -0.1881 -0.0344
10670TIP3   OH253500   2.690   4.720   1.695 -0.5158 -0.8876  0.6465
10670TIP3    H153501   2.658   4.809   1.683 -0.5846 -0.7411  1.8209
10670TIP3    H253502   2.622   4.664   1.657  0.1266 -0.4228 -1.2915
10671TIP3   OH253503   2.475   4.224   3.096  0.2168 -0.3412 -0.2000
10671TIP3    H153504   2.488   4.192   3.185  0.3726  2.0611  0.7087
10671TIP3    H253505   2.391   4.269   3.098  1.5116  2.3298 -0.3541
10672TIP3   OH253506   1.566   1.322   2.625  0.0848  0.5510 -0.4713
10672TIP3    H153507   1.622   1.259   2.670 -0.5702  0.7862  0.7408
10672TIP3    H253508   1.614   1.405   2.629 -0.8541  1.0618  1.7667
10673TIP3   OH253509   3.422   5.653  13.716 -0.3346  0.1908 -0.2885
10673TIP3    H153510   3.517   5.663  13.712 -0.3191  0.1288 -0.0959
10673TIP3    H253511   3.388   5.730  13.671 -0.2291  1.3077  1.4338
10674TIP3   OH253512   6.103   4.439   0.795  0.0746 -0.3592 -0.2316
10674TIP3    H153513   6.142   4.489   0.723 -0.0313  1.7401  1.0620
10674TIP3    H253514   6.039   4.382   0.754  1.1961 -0.4540 -1.9395
10675TIP3   OH253515   5.338   0.417  13.478 -0.5918  0.2292 -0.1992
10675TIP3    H153516   5.338   0.424  13.573  0.0120 -0.7194 -0.1168
10675TIP3    H253517   5.277   0.485  13.449  0.2011  1.4089  0.7832
10676TIP3   OH253518   4.691   5.524  13.501  0.6617  0.1130  0.3272
10676TIP3    H153519   4.655   5.517  13.589  1.0496  1.7427  0.6421
10676TIP3    H253520   4.624   5.570  13.450  0.8151 -0.0122  0.0051
10677TIP3   OH253521   1.133   0.045  15.425  0.3685  0.1846 -0.3628
10677TIP3    H153522   1.039   0.061  15.419  0.8501  3.0690 -1.7417
10677TIP3    H253523   1.155   0.004  15.341  0.3513 -0.5736 -0.0039
10678TIP3   OH253524   5.849   0.692   1.936  0.9026  0.4602  0.2409
10678TIP3    H153525   5.924   0.705   1.879 -0.8806 -0.2034 -2.4261
10678TIP3    H253526   5.856   0.600   1.963  1.9865  0.8918  1.5568
10679TIP3   OH253527   0.820   5.942   1.128 -0.1325 -0.4720 -0.5979
10679TIP3    H153528   0.789   5.996   1.201  1.1967 -1.7721  1.0208
10679TIP3    H253529   0.745   5.936   1.069 -0.6212  2.2859 -0.3873
10680TIP3   OH253530   3.861   5.425   2.528 -0.4936 -0.0527  0.0420
10680TIP3    H153531   3.930   5.369   2.564  0.6324  0.8629 -0.6342
10680TIP3    H253532   3.873   5.509   2.571 -1.2458  0.1016 -0.0381
10681TIP3   OH253533   4.803   3.083  12.289  0.3015 -0.4568  0.0357
10681TIP3    H153534   4.714   3.057  12.310 -0.7703  2.0994 -0.9124
10681TIP3    H253535   4.822   3.154  12.350  1.4363 -0.5114 -0.2313
10682TIP3   OH253536   2.124   5.012   0.455  0.2792  0.7936  0.2017
10682TIP3    H153537   2.120   5.062   0.537 -1.0041  1.0972 -0.0353
10682TIP3    H253538   2.043   5.034   0.409  1.6505  1.8633 -1.8803
10683TIP3   OH253539   5.739   6.008  12.786 -0.6951 -0.1575 -0.9871
10683TIP3    H153540   5.794   6.083  12.765 -0.4602  0.3877  1.3371
10683TIP3    H253541   5.789   5.932  12.755 -0.1246  0.5275 -1.7720
10684TIP3   OH253542   5.366   0.419  11.181 -0.6380  0.6780  0.3460
10684TIP3    H153543   5.401   0.354  11.120  1.3617  1.1898  0.8771
10684TIP3    H253544   5.281   0.384  11.206 -1.2361  0.1158 -2.1870
10685TIP3   OH253545   4.995   4.753  12.501 -0.1565 -1.0066  0.1597
10685TIP3    H153546   5.055   4.712  12.564  0.5987  1.5544  1.2235
10685TIP3    H253547   4.912   4.762  12.549  0.2502  0.4110  0.6487
10686TIP3   OH253548   4.685   2.781  13.061  0.4017 -0.1178 -0.3930
10686TIP3    H153549   4.759   2.729  13.094 -0.2133  0.7256  2.6200
10686TIP3    H253550   4.683   2.858  13.118 -0.7014  1.6330 -2.6488
10687TIP3   OH253551   6.336   3.453  14.104 -0.1953  0.7180 -0.2430
10687TIP3    H153552   6.348   3.498  14.188 -0.8389  1.5884 -0.6064
10687TIP3    H253553   6.416   3.473  14.056  0.2664  0.0494  0.2234
10688TIP3   OH253554   0.294   5.447  13.332 -0.0663  0.0662 -0.2391
10688TIP3    H153555   0.240   5.376  13.368 -0.3954 -0.3224 -1.4561
10688TIP3    H253556   0.370   5.450  13.389  0.5754 -2.1616 -0.8917
10689TIP3   OH253557   0.314   3.260  11.032  0.1343 -0.0505 -1.2276
10689TIP3    H153558   0.280   3.179  11.070  0.5151 -0.3467 -1.5176
10689TIP3    H253559   0.316   3.244  10.938  0.2263  0.2902 -1.2854
10690TIP3   OH253560   5.351   3.748   0.875  0.0387 -0.0130 -0.5135
10690TIP3    H153561   5.270   3.778   0.916  0.6091 -0.4289  0.9827
10690TIP3    H253562   5.363   3.659   0.909  2.0877  0.7068  0.8223
10691TIP3   OH253563   4.752   6.363  15.493 -0.1906  0.0577 -0.3856
10691TIP3    H153564   4.710   6.291  15.539  1.3925 -0.6894 -0.0489
10691TIP3    H253565   4.692   6.385  15.423 -0.7482 -1.5433 -0.4422
10692TIP3   OH253566   6.422   2.904   4.094  0.4391  0.4985 -0.4751
10692TIP3    H153567   6.332   2.884   4.070  0.0481 -1.3563  2.0953
10692TIP3    H253568   6.434   2.996   4.069 -2.7122  1.3139  0.5178
10693TIP3   OH253569   1.802   3.820  11.712  0.5449 -0.1179  0.3464
10693TIP3    H153570   1.712   3.791  11.727  0.4029  1.1206  2.1175
10693TIP3    H253571   1.855   3.766  11.771  0.8231  0.0676  0.2668
10694TIP3   OH253572   5.629   3.798   1.515  0.6338  0.0011 -0.4399
10694TIP3    H153573   5.720   3.827   1.505  0.5442  0.8649  0.9933
10694TIP3    H253574   5.578   3.878   1.516 -0.1498 -0.4716 -1.0234
10695TIP3   OH253575   1.058   5.090   1.181 -0.0371  0.3020 -0.1697
10695TIP3    H153576   1.098   5.141   1.252  0.6821 -1.3550  0.6814
10695TIP3    H253577   0.964   5.100   1.194  0.0852  0.1576  0.9582
10696TIP3   OH253578   4.575   2.981  12.389 -0.0160 -0.5720 -1.0003
10696TIP3    H153579   4.544   2.892  12.370  1.0417 -1.1313 -0.2161
10696TIP3    H253580   4.503   3.021  12.439 -1.7718  0.0751 -3.8202
10697TIP3   OH253581   5.160   4.038  11.007  0.2262 -0.1850  0.6592
10697TIP3    H153582   5.109   4.108  10.966 -0.6693 -2.4665 -2.5015
10697TIP3    H253583   5.251   4.060  10.988  0.0011  0.4818  0.3149
10698TIP3   OH253584   4.337   6.083  15.160 -0.0628 -0.2958  0.0297
10698TIP3    H153585   4.367   6.111  15.246 -1.3763 -0.9033  0.7164
10698TIP3    H253586   4.357   5.990  15.157 -1.4991 -0.6344  0.3626
10699TIP3   OH253587   0.709   3.358  16.085  0.1041 -0.0305  0.5495
10699TIP3    H153588   0.787   3.341  16.032  0.3094  0.6275  0.6310
10699TIP3    H253589   0.665   3.430  16.040 -0.2993 -0.2011  0.6699
10700TIP3   OH253590   3.919   3.999   3.563 -0.0195  0.4828 -0.3587
10700TIP3    H153591   3.829   4.027   3.578 -0.2800  0.7432 -2.2253
10700TIP3    H253592   3.958   3.996   3.651 -1.3819  1.8804  0.3376
10701TIP3   OH253593   3.149   6.454   5.607  0.2470  0.1320 -0.8858
10701TIP3    H153594   3.224   6.426   5.659 -0.1830 -1.4281 -1.0499
10701TIP3    H253595   3.072   6.431   5.660 -0.1532  0.8206 -1.1431
10702TIP3   OH253596   4.685   4.333  11.505 -0.4484  0.2144  0.9658
10702TIP3    H153597   4.751   4.265  11.516  0.5352  1.0733  0.4580
10702TIP3    H253598   4.611   4.288  11.464  0.9452 -0.1484 -1.2773
10703TIP3   OH253599   6.372   5.765   1.346  0.1945  0.1227  0.3428
10703TIP3    H153600   6.318   5.716   1.409 -0.4212  2.0597  1.3994
10703TIP3    H253601   6.348   5.728   1.261 -1.8411  0.0194  0.9088
10704TIP3   OH253602   5.387   6.769  15.318 -0.1432  0.3501 -0.0990
10704TIP3    H153603   5.395   6.831  15.390 -0.3308  0.4233 -0.1412
10704TIP3    H253604   5.338   6.816  15.251 -0.5460  0.0518 -0.0151
10705TIP3   OH253605   2.261   5.360   1.394  0.3983 -0.0869 -0.7706
10705TIP3    H153606   2.238   5.443   1.351 -1.1978 -0.2857 -0.3806
10705TIP3    H253607   2.340   5.380   1.444 -0.2747  1.3601 -0.2405
10706TIP3   OH253608   1.345   6.583  14.271 -0.1960  0.5956 -0.2921
10706TIP3    H153609   1.342   6.488  14.254  0.9903  0.3051  0.9873
10706TIP3    H253610   1.305   6.622  14.193  1.0961 -0.8593 -1.7738
10707TIP3   OH253611   5.752   3.426  10.383  0.8445  0.3196 -0.4941
10707TIP3    H153612   5.808   3.472  10.446  0.8979 -0.0455 -0.2700
10707TIP3    H253613   5.789   3.338  10.379  0.5264  0.1931 -0.6513
10708TIP3   OH253614   1.698   2.186   0.613  0.2401 -0.2494  0.7244
10708TIP3    H153615   1.644   2.108   0.628  0.1161 -0.5878 -1.1638
10708TIP3    H253616   1.732   2.174   0.524  0.4256  1.7409  0.4824
10709TIP3   OH253617   6.084   2.440  11.458 -0.2298 -0.6614  0.0805
10709TIP3    H153618   6.024   2.459  11.530 -1.3002 -1.0099 -0.7024
10709TIP3    H253619   6.167   2.418  11.501 -0.9497 -1.2379  1.2149
10710TIP3   OH253620   0.296   5.583   6.368  0.2851  0.0012 -0.6617
10710TIP3    H153621   0.369   5.603   6.426 -0.0558 -0.2692 -0.1344
10710TIP3    H253622   0.322   5.502   6.323  0.5607  0.2275 -0.9152
10711TIP3   OH253623   0.418   1.551  17.091  0.5191 -0.1915  0.2470
10711TIP3    H153624   0.353   1.481  17.101  0.0767  0.1131 -0.4644
10711TIP3    H253625   0.366   1.630  17.077  1.0354 -0.1794 -1.8896
10712TIP3   OH253626   2.540   0.818  12.194 -0.4142 -0.0195  0.0154
10712TIP3    H153627   2.489   0.851  12.268 -0.4213  1.2600 -0.5308
10712TIP3    H253628   2.611   0.769  12.234 -0.6197  0.3576  0.8697
10713TIP3   OH253629   1.899   4.549  15.472  0.9550  0.2954  0.4952
10713TIP3    H153630   1.879   4.640  15.448 -0.4695  0.0056  0.4697
10713TIP3    H253631   1.994   4.545  15.476  1.3015  0.9315 -3.0695
10714TIP3   OH253632   6.058   3.995  13.865 -0.4033 -1.0065 -0.1849
10714TIP3    H153633   6.103   4.052  13.803 -0.7601 -0.8050 -0.2567
10714TIP3    H253634   5.969   3.987  13.831 -0.7072 -0.6010  0.4885
10715TIP3   OH253635   6.250   1.795   5.229  0.3925  0.2055  0.2079
10715TIP3    H153636   6.324   1.787   5.290  1.7198  0.7588 -1.2493
10715TIP3    H253637   6.190   1.856   5.272  0.0034 -1.3917  2.0977
10716TIP3   OH253638   0.791   6.583   6.136 -0.2858  0.2796 -0.6770
10716TIP3    H153639   0.767   6.505   6.086 -1.1895 -0.9248  1.4834
10716TIP3    H253640   0.714   6.640   6.131 -0.3588  0.1798 -0.6884
10717TIP3   OH253641   1.952   5.478  13.083 -0.1597 -0.1740  0.5667
10717TIP3    H153642   1.983   5.505  12.996 -0.9853  0.4654  0.4601
10717TIP3    H253643   1.905   5.396  13.067  1.1565 -0.9736  0.6795
10718TIP3   OH253644   1.855   5.668  15.349  0.1515  0.0607  0.1350
10718TIP3    H153645   1.808   5.681  15.431  0.1270  1.8509 -0.1067
10718TIP3    H253646   1.923   5.736  15.350  0.5751 -0.3272 -1.0084
10719TIP3   OH253647   5.886   5.598  11.399 -0.3927  0.3730 -0.0407
10719TIP3    H153648   5.824   5.671  11.398 -0.5383  0.2945  1.1622
10719TIP3    H253649   5.961   5.630  11.350 -0.5524  1.2485  0.2591
10720TIP3   OH253650   4.796   1.743   4.491  0.3018  0.2929  0.8333
10720TIP3    H153651   4.827   1.824   4.451  2.1605  0.7037  2.8937
10720TIP3    H253652   4.739   1.772   4.563  1.5796 -0.1102  2.0702
10721TIP3   OH253653   2.296   1.356   2.378  0.0177  0.2046 -0.1376
10721TIP3    H153654   2.261   1.440   2.348  0.6447  0.5206  0.0037
10721TIP3    H253655   2.320   1.310   2.298  0.4701  0.5111 -0.1800
10722TIP3   OH253656   2.592   4.952  15.282  0.2803 -0.3929  0.1896
10722TIP3    H153657   2.623   5.042  15.273  0.4327 -0.5167 -0.5614
10722TIP3    H253658   2.620   4.926  15.371 -0.3067  0.4928  0.6414
10723TIP3   OH253659   5.666   5.097   4.404 -0.1136  0.3519  0.3022
10723TIP3    H153660   5.675   5.187   4.435 -1.7972  1.0332 -0.9914
10723TIP3    H253661   5.723   5.092   4.328 -0.8056  0.6796 -0.2518
10724TIP3   OH253662   3.799   4.181  14.757 -0.0293 -0.0652  0.8570
10724TIP3    H153663   3.866   4.132  14.804 -0.0625  1.0136  2.0936
10724TIP3    H253664   3.742   4.114  14.719  0.9863 -0.9733  0.9068
10725TIP3   OH253665   0.908   6.742   6.433  0.2073 -0.0644 -0.5358
10725TIP3    H153666   0.924   6.837   6.432  0.5894 -0.1190 -0.0798
10725TIP3    H253667   0.821   6.732   6.470  0.1794  0.1091 -0.5554
10726TIP3   OH253668   1.166   3.416  15.006  0.3945 -0.1798  0.0178
10726TIP3    H153669   1.094   3.355  15.024  0.1067  0.7737  2.5578
10726TIP3    H253670   1.239   3.382  15.058  0.8818  0.4786 -0.2302
10727TIP3   OH253671   2.663   3.692  12.652  0.4952  0.7311 -0.1725
10727TIP3    H153672   2.676   3.711  12.559 -0.1349 -2.0964 -0.9379
10727TIP3    H253673   2.737   3.636  12.676 -0.5612 -0.5192  0.3287
10728TIP3   OH253674   3.481   3.940   4.484 -0.0801  0.3996  1.1704
10728TIP3    H153675   3.391   3.917   4.461  0.1017  0.8003  0.0139
10728TIP3    H253676   3.526   3.856   4.492  0.1294  0.2180 -1.1830
10729TIP3   OH253677   4.925   0.395  10.283  0.0718 -0.4055  0.2683
10729TIP3    H153678   4.858   0.358  10.225  1.2399 -0.2247 -1.2502
10729TIP3    H253679   4.989   0.324  10.294  0.6365  0.0570  0.0439
10730TIP3   OH253680   3.188   0.280  13.003  0.3556 -0.1829 -0.0561
10730TIP3    H153681   3.131   0.300  12.928 -0.3667 -1.5479  0.1095
10730TIP3    H253682   3.241   0.206  12.974  1.0033  0.1229  0.3252
10731TIP3   OH253683   5.502   4.179  15.235 -0.1295 -0.2341 -0.5393
10731TIP3    H153684   5.578   4.121  15.234 -0.1193 -0.2439  0.2410
10731TIP3    H253685   5.500   4.218  15.148  2.7845  2.4083  0.3835
10732TIP3   OH253686   0.637   2.714  15.424  0.0853  0.0565 -0.1560
10732TIP3    H153687   0.585   2.726  15.504  0.1177  0.1504 -0.1490
10732TIP3    H253688   0.726   2.736  15.450 -0.3161  2.8909 -0.9061
10733TIP3   OH253689   1.907   3.183   1.375  0.6775  1.0674 -0.1430
10733TIP3    H153690   1.877   3.131   1.301  1.7100  1.7752 -1.0927
10733TIP3    H253691   1.838   3.248   1.389 -0.2419 -0.0192  0.5390
10734TIP3   OH253692   5.240   4.550  11.724  0.3937 -0.1667  0.0620
10734TIP3    H153693   5.281   4.475  11.766 -1.1872 -1.2893 -0.3080
10734TIP3    H253694   5.220   4.609  11.797  1.5022 -0.1500  0.3752
10735TIP3   OH253695   5.544   0.682  14.756  0.5107 -0.0335 -0.4022
10735TIP3    H153696   5.462   0.674  14.707  0.2228  0.3775  0.0018
10735TIP3    H253697   5.525   0.642  14.841  0.2520  1.3636  0.2314
10736TIP3   OH253698   1.068   1.038  11.009 -0.0020  0.0263 -0.5808
10736TIP3    H153699   1.058   1.131  10.990 -0.3673  0.1962  0.3922
10736TIP3    H253700   1.080   0.997  10.923 -1.4105  0.7685 -1.1587
10737TIP3   OH253701   1.648   3.405  16.747 -0.0296 -0.0022  0.0354
10737TIP3    H153702   1.597   3.324  16.748 -1.9410  1.0923 -1.3150
10737TIP3    H253703   1.632   3.446  16.832  1.4017 -1.2353  0.9529
10738TIP3   OH253704   0.141   5.187  16.806  0.3696  0.0302  0.1926
10738TIP3    H153705   0.216   5.189  16.746 -0.7801 -0.3494 -1.2996
10738TIP3    H253706   0.179   5.205  16.892  1.7587  3.1635 -0.9293
10739TIP3   OH253707   0.644   6.092   3.092  0.1188 -0.3310  0.2088
10739TIP3    H153708   0.600   6.044   3.022 -1.1593 -1.5838  1.8087
10739TIP3    H253709   0.632   6.184   3.069  0.6326 -0.6999 -1.7243
10740TIP3   OH253710   3.840   2.390  10.758 -0.5931  0.6362 -0.2570
10740TIP3    H153711   3.770   2.438  10.802 -1.1665 -1.1871  0.9294
10740TIP3    H253712   3.880   2.455  10.700 -0.8273  2.7502  1.7777
10741TIP3   OH253713   4.695   3.065  16.234  1.1870 -0.2970  0.1917
10741TIP3    H153714   4.731   3.152  16.253  0.2882  0.1348 -0.0553
10741TIP3    H253715   4.723   3.046  16.145  0.7088  0.0886 -0.0419
10742TIP3   OH253716   3.878   4.551  15.334  0.1128  0.0654 -0.7097
10742TIP3    H153717   3.950   4.543  15.397  0.7919  0.3852 -1.4265
10742TIP3    H253718   3.877   4.643  15.309 -0.3337 -0.0016 -0.9592
10743TIP3   OH253719   2.602   3.128   3.111  0.0976  0.2978 -0.3062
10743TIP3    H153720   2.509   3.148   3.123  0.1439  0.3189  0.0210
10743TIP3    H253721   2.621   3.155   3.021  0.7554  4.1719  0.8037
10744TIP3   OH253722   4.349   3.178  12.840 -0.0284  0.5003 -0.6347
10744TIP3    H153723   4.356   3.147  12.930  1.2485 -0.8131 -1.1328
10744TIP3    H253724   4.258   3.206  12.831 -0.1822  0.6502  1.0481
10745TIP3   OH253725   3.887   6.450   3.809  0.1110 -0.2841  0.2717
10745TIP3    H153726   3.920   6.417   3.892 -0.0814 -1.2437 -0.0228
10745TIP3    H253727   3.799   6.482   3.828  0.0638 -0.5132  0.4339
10746TIP3   OH253728   2.931   2.583  11.587 -0.8343  0.0578  0.1721
10746TIP3    H153729   2.847   2.569  11.544 -0.2034 -1.5265 -0.6321
10746TIP3    H253730   2.994   2.590  11.515 -0.0788 -0.2197  0.7833
10747TIP3   OH253731   2.540   5.224  16.165  0.1571 -0.1796  0.3560
10747TIP3    H153732   2.486   5.151  16.134  2.1680 -1.3061 -0.6894
10747TIP3    H253733   2.523   5.228  16.260  0.1876 -2.1977  0.4893
10748TIP3   OH253734   6.210   0.562  15.230  0.2006  0.0567  0.0893
10748TIP3    H153735   6.161   0.488  15.195 -0.9446  0.0662  1.5763
10748TIP3    H253736   6.293   0.524  15.259  0.8482 -0.0833 -1.8205
10749TIP3   OH253737   0.745   0.687   0.202 -0.1091  0.1804  0.2181
10749TIP3    H153738   0.689   0.631   0.255 -0.5020 -2.6055 -2.8435
10749TIP3    H253739   0.833   0.673   0.236 -0.3207 -1.6364  0.0898
10750TIP3   OH253740   1.903   1.167   2.494  0.7120  0.0310  0.5384
10750TIP3    H153741   1.909   1.262   2.507  1.6940 -0.1666  1.6414
10750TIP3    H253742   1.845   1.137   2.565  1.0102 -0.2848  0.6506
10751TIP3   OH253743   0.714   2.591   4.730  0.0069  0.2427  0.1912
10751TIP3    H153744   0.718   2.524   4.798 -2.3694  0.6098  0.7809
10751TIP3    H253745   0.636   2.643   4.751 -0.5255  0.7004 -2.4892
10752TIP3   OH253746   2.270   0.265  16.162 -0.0999  0.6421 -0.5365
10752TIP3    H153747   2.355   0.307  16.174  0.6875 -0.7610 -1.0209
10752TIP3    H253748   2.231   0.263  16.249  1.4158 -0.8331  0.1627
10753TIP3   OH253749   2.842   6.672  13.170 -0.0797 -0.0867  0.2586
10753TIP3    H153750   2.820   6.656  13.261 -2.8702 -1.6037 -0.5573
10753TIP3    H253751   2.876   6.589  13.138 -1.7684 -0.4361 -0.7224
10754TIP3   OH253752   2.674   6.753   5.369 -0.4865  0.5113 -0.3857
10754TIP3    H153753   2.702   6.831   5.322 -0.9863 -0.4160 -2.3356
10754TIP3    H253754   2.578   6.757   5.368 -0.5310  0.8863  1.3676
10755TIP3   OH253755   3.550   5.311  11.213 -0.9169 -0.1250 -0.8827
10755TIP3    H153756   3.518   5.340  11.298 -0.5399 -1.8924 -0.0861
10755TIP3    H253757   3.479   5.330  11.152 -1.6466  0.1015  0.0319
10756TIP3   OH253758   3.001   1.093  14.250 -0.0990  0.2778  0.5704
10756TIP3    H153759   2.974   1.115  14.161 -1.1265 -0.0270  0.7947
10756TIP3    H253760   3.009   1.178  14.295 -0.1200  0.4006  0.3404
10757TIP3   OH253761   3.620   3.979   2.399  0.1936 -0.2820 -0.3487
10757TIP3    H153762   3.709   3.962   2.429  0.0635 -0.1477  0.1243
10757TIP3    H253763   3.628   4.054   2.340  0.3381  0.0027  0.0289
10758TIP3   OH253764   4.363   2.776   3.407  0.5400 -0.0881  0.0416
10758TIP3    H153765   4.361   2.871   3.395 -0.1123 -0.1398 -0.3072
10758TIP3    H253766   4.456   2.753   3.404  0.6319  0.3564 -1.4514
10759TIP3   OH253767   3.869   2.688   0.463 -0.0672 -0.2902  0.2969
10759TIP3    H153768   3.829   2.632   0.396 -0.4307 -0.7511  0.8834
10759TIP3    H253769   3.898   2.627   0.531  0.8214  0.1199  0.3051
10760TIP3   OH253770   2.077   5.252   5.568 -0.1666  0.3336  0.1151
10760TIP3    H153771   2.105   5.337   5.601  2.3145 -0.5590  0.5635
10760TIP3    H253772   1.982   5.254   5.573 -0.2084  3.2083 -0.2816
10761TIP3   OH253773   4.629   4.781  16.980  0.2510 -0.2517  0.1550
10761TIP3    H153774   4.658   4.835  17.053  0.1568 -0.9899  0.7473
10761TIP3    H253775   4.709   4.762  16.931  0.1479  1.2762 -0.6618
10762TIP3   OH253776   1.073   5.420   0.759  0.2244 -0.0217 -0.9900
10762TIP3    H153777   0.994   5.473   0.773  0.9351  0.7966  0.1417
10762TIP3    H253778   1.076   5.362   0.835  1.9547  1.6236  0.2963
10763TIP3   OH253779   6.643   4.637   3.847  0.4244  0.1207  0.3588
10763TIP3    H153780   6.577   4.692   3.889  0.4452  0.6035 -0.2279
10763TIP3    H253781   6.592   4.567   3.806  0.3267  0.1688  0.3951
10764TIP3   OH253782   2.125   3.140   0.999  0.7186  0.2733 -0.1185
10764TIP3    H153783   2.056   3.206   0.992 -0.4848 -0.9791 -0.5922
10764TIP3    H253784   2.194   3.170   0.940  0.5986  1.5646  0.3786
10765TIP3   OH253785   3.535   6.321  16.872  0.3115  0.6400 -0.4759
10765TIP3    H153786   3.549   6.325  16.967  0.1967 -1.8893 -0.2847
10765TIP3    H253787   3.605   6.375  16.836  0.1365  1.9506  1.0402
10766TIP3   OH253788   1.296   4.085   1.269  0.0320  0.6182 -0.1561
10766TIP3    H153789   1.202   4.074   1.280 -0.1909  1.0386 -1.4619
10766TIP3    H253790   1.305   4.165   1.218  1.1540  1.1021  0.7408
10767TIP3   OH253791   3.264   5.501  11.215  0.3445  0.2019 -0.6857
10767TIP3    H153792   3.190   5.490  11.275  0.0628 -1.0405 -1.2270
10767TIP3    H253793   3.272   5.416  11.171  0.8400  0.9411 -2.0759
10768TIP3   OH253794   1.983   1.395  15.560 -0.2503 -0.1061  0.2001
10768TIP3    H153795   2.052   1.383  15.625 -0.4179 -0.8329  0.2565
10768TIP3    H253796   1.999   1.482  15.522  0.0261  0.1942  0.9930
10769TIP3   OH253797   1.005   3.839  13.300 -0.6269  0.4131  0.4410
10769TIP3    H153798   0.944   3.770  13.274  0.3714 -1.4457  2.6592
10769TIP3    H253799   1.092   3.797  13.295  0.3171  2.3702 -0.7137
10770TIP3   OH253800   3.668   5.533  13.969 -0.1352  0.1174 -0.3314
10770TIP3    H153801   3.619   5.474  13.912 -1.4155 -0.7194  1.5469
10770TIP3    H253802   3.752   5.488  13.983 -1.3502 -1.6991  1.6369
10771TIP3   OH253803   6.559   1.785   2.632  0.2513 -0.5848  0.2382
10771TIP3    H153804   6.533   1.832   2.711  1.4210 -1.8331  1.4121
10771TIP3    H253805   6.652   1.806   2.621 -0.1092  0.3894 -1.4380
10772TIP3   OH253806   0.704   2.211   4.987 -0.1124  0.4806 -0.2056
10772TIP3    H153807   0.721   2.185   5.077  1.4524 -0.2827 -0.6930
10772TIP3    H253808   0.662   2.135   4.947  2.2036 -0.4954 -0.9605
10773TIP3   OH253809   5.177   2.625   2.502  0.0964  0.3862  0.3131
10773TIP3    H153810   5.209   2.709   2.533  0.3957 -0.6393  3.1278
10773TIP3    H253811   5.245   2.593   2.443  1.6513  0.6973  1.8568
10774TIP3   OH253812   6.387   5.208  14.176  0.5120 -0.6222 -0.5062
10774TIP3    H153813   6.325   5.278  14.153  3.5291  2.5105 -0.0491
10774TIP3    H253814   6.364   5.184  14.265 -0.7824 -0.4534 -0.7758
10775TIP3   OH253815   0.967   6.018   3.285  0.2701  0.0455 -0.3314
10775TIP3    H153816   0.954   6.070   3.364  1.9516  3.1460 -1.8799
10775TIP3    H253817   0.899   5.951   3.287  0.6811 -0.5002  4.0116
10776TIP3   OH253818   3.377   4.203  16.899 -0.1037  0.2671 -0.5433
10776TIP3    H153819   3.450   4.141  16.889 -1.5557 -1.3753 -1.3844
10776TIP3    H253820   3.407   4.282  16.855  1.6767  0.1102  0.2672
10777TIP3   OH253821   4.874   4.245   0.114 -0.2176 -0.4398  0.4747
10777TIP3    H153822   4.837   4.169   0.068  1.7240  0.0858 -2.1619
10777TIP3    H253823   4.897   4.211   0.200 -0.0245 -2.6903 -0.3857
10778TIP3   OH253824   1.609   1.184   1.613  0.3434 -0.1905 -0.2315
10778TIP3    H153825   1.691   1.215   1.574 -0.4512 -1.7498 -3.4618
10778TIP3    H253826   1.541   1.233   1.567 -0.6305 -1.0114  0.2997
10779TIP3   OH253827   2.674   5.604  13.243  0.4150 -0.0347  0.2128
10779TIP3    H153828   2.674   5.548  13.320  1.6759  0.3279  0.4935
10779TIP3    H253829   2.595   5.578  13.195  1.9254 -3.5075 -0.7012
10780TIP3   OH253830   6.251   1.135   1.476 -0.1870  0.0888  0.4776
10780TIP3    H153831   6.203   1.095   1.403  2.1266 -1.1936 -0.4390
10780TIP3    H253832   6.242   1.072   1.548 -2.7540  1.5077  1.5434
10781TIP3   OH253833   5.570   1.060  16.195  0.2014  0.3699  0.1947
10781TIP3    H153834   5.633   1.128  16.221 -0.3571 -0.2195  3.5605
10781TIP3    H253835   5.618   0.978  16.207 -0.5800  0.0010  0.8841
10782TIP3   OH253836   6.523   0.016  16.028 -0.2780 -0.6365  0.0029
10782TIP3    H153837   6.587   0.082  16.002 -0.1981 -0.5114  0.5130
10782TIP3    H253838   6.544  -0.060  15.974  0.1056 -0.4931 -0.0535
10783TIP3   OH253839   0.249   4.111   0.102 -0.0966 -0.9753 -0.0754
10783TIP3    H153840   0.307   4.056   0.154  0.4742 -2.0602 -1.7728
10783TIP3    H253841   0.308   4.163   0.047 -0.6848  0.1377  0.3009
10784TIP3   OH253842   6.257   3.622  13.388 -0.0903 -0.1095 -0.2635
10784TIP3    H153843   6.252   3.624  13.483 -1.5236  1.5089 -0.3453
10784TIP3    H253844   6.184   3.676  13.358 -1.2334 -2.5981 -2.3557
10785TIP3   OH253845   3.540   0.800   2.930  0.3303  0.6690  0.2966
10785TIP3    H153846   3.460   0.849   2.953  0.5001  0.8273  0.5538
10785TIP3    H253847   3.587   0.858   2.870  0.7634  1.0319  0.9757
10786TIP3   OH253848   6.671   5.910   5.661  0.0777 -0.3415  0.4450
10786TIP3    H153849   6.717   5.980   5.615 -0.2339  0.7096  1.6681
10786TIP3    H253850   6.732   5.836   5.661  0.4942 -0.0195 -0.6743
10787TIP3   OH253851   2.577   0.956  12.514 -0.5907 -0.1574 -0.0744
10787TIP3    H153852   2.591   0.861  12.505 -0.3747 -0.1184 -0.1547
10787TIP3    H253853   2.664   0.991  12.529 -0.5947  0.0928 -0.6121
10788TIP3   OH253854   1.281   0.302   2.587 -0.8415  0.4326  0.1637
10788TIP3    H153855   1.287   0.396   2.570 -3.2038  0.5349 -0.4413
10788TIP3    H253856   1.325   0.261   2.512 -1.6121  1.0507 -0.6402
10789TIP3   OH253857   4.517   5.097   1.501  0.0445  0.1130  0.4228
10789TIP3    H153858   4.514   5.133   1.412  1.4571 -0.7653 -0.0082
10789TIP3    H253859   4.475   5.012   1.494 -0.3742  0.2893  0.7395
10790TIP3   OH253860   2.699   4.601  11.636  0.1031 -0.7194 -0.5137
10790TIP3    H153861   2.746   4.518  11.632 -0.3443 -1.0556  0.5485
10790TIP3    H253862   2.737   4.654  11.567  1.8617 -1.0629  0.1214
10791TIP3   OH253863   0.263   0.748  12.244  0.2472  0.1819 -0.6429
10791TIP3    H153864   0.187   0.807  12.251  0.5640  0.4375  1.3647
10791TIP3    H253865   0.226   0.666  12.211 -0.5735  0.8294 -1.4085
10792TIP3   OH253866   6.185   2.531  12.944 -0.5105  0.3207  0.0942
10792TIP3    H153867   6.231   2.448  12.954 -1.2373 -0.2519 -1.0864
10792TIP3    H253868   6.115   2.529  13.009 -2.4506 -1.4069 -1.8634
10793TIP3   OH253869   2.880   1.472  11.746  0.2284 -0.3943  0.3822
10793TIP3    H153870   2.914   1.392  11.705 -0.1005 -0.3710  0.0655
10793TIP3    H253871   2.862   1.531  11.673 -0.5680 -0.4355  0.5303
10794TIP3   OH253872   0.214   5.240  17.050 -0.2613  0.8082  0.2669
10794TIP3    H153873   0.229   5.237  17.145  0.8429 -3.3865  0.1539
10794TIP3    H253874   0.119   5.245  17.042 -0.3683  1.5187  1.5296
10795TIP3   OH253875   4.211   1.452   4.167 -0.0668  0.2159 -0.4647
10795TIP3    H153876   4.269   1.507   4.220  0.1092 -0.9952  0.6517
10795TIP3    H253877   4.257   1.369   4.161 -1.1135 -0.3618 -0.6505
10796TIP3   OH253878   1.786   6.713  11.072  0.2269 -0.3428  0.0084
10796TIP3    H153879   1.729   6.652  11.027  1.4035 -2.0372  0.7261
10796TIP3    H253880   1.778   6.795  11.023 -0.8060 -1.2769 -1.4373
10797TIP3   OH253881   5.362   1.729   1.742  0.3412 -0.9905 -0.4675
10797TIP3    H153882   5.277   1.773   1.743  0.6119 -0.4536 -0.6655
10797TIP3    H253883   5.419   1.784   1.796  0.8137 -0.8285 -1.1181
10798TIP3   OH253884   6.453   5.402  12.775  0.1706  0.3327  0.2375
10798TIP3    H153885   6.470   5.481  12.827  0.1285 -0.8958  2.2199
10798TIP3    H253886   6.359   5.387  12.784  0.2850 -0.3104  0.4425
10799TIP3   OH253887   5.820   6.368  14.477 -0.1914  0.0851 -0.5875
10799TIP3    H153888   5.883   6.296  14.476 -0.5970 -0.2633 -0.8165
10799TIP3    H253889   5.781   6.368  14.390 -1.2495 -0.3489 -0.1295
10800TIP3   OH253890   5.635   1.840  11.706 -0.4772 -0.2518 -0.1988
10800TIP3    H153891   5.615   1.758  11.660  0.0827 -0.8097  0.5167
10800TIP3    H253892   5.591   1.831  11.791  0.2973 -0.2017  0.2207
10801TIP3   OH253893   4.131   4.336  12.315 -0.5344 -0.4038 -0.1282
10801TIP3    H153894   4.128   4.269  12.247  0.7376 -1.0945  0.4694
10801TIP3    H253895   4.081   4.299  12.388 -0.2733 -0.4768  0.0127
10802TIP3   OH253896   5.720   2.264   0.150  0.6382  0.8245  0.3024
10802TIP3    H153897   5.706   2.172   0.174  0.5001  1.1154  1.3896
10802TIP3    H253898   5.638   2.290   0.107  0.1087  0.8272  1.2735
10803TIP3   OH253899   4.186   0.998   4.168  0.7225 -0.6032  0.0308
10803TIP3    H153900   4.100   1.034   4.190  0.8596 -0.5044  0.3982
10803TIP3    H253901   4.181   0.906   4.194 -0.3854 -1.5014 -2.8416
10804TIP3   OH253902   3.955   2.418  16.209 -0.0386  0.3796  0.1350
10804TIP3    H153903   3.870   2.462  16.214 -0.9162 -1.2692  0.7533
10804TIP3    H253904   4.009   2.461  16.275 -0.8143  0.6042  0.6272
10805TIP3   OH253905   1.689   5.718  16.811  0.4636 -0.6596 -0.3181
10805TIP3    H153906   1.758   5.709  16.746 -0.3918 -2.1999 -1.0642
10805TIP3    H253907   1.607   5.708  16.762 -0.4700  3.0664  0.1870
10806TIP3   OH253908   5.675   1.902  15.239  0.4294  0.0480  0.5366
10806TIP3    H153909   5.643   1.875  15.325  1.0662 -0.6839  0.5468
10806TIP3    H253910   5.694   1.820  15.193  1.1217  0.4487  0.0913
10807TIP3   OH253911   0.595   1.651   4.270  0.1875  0.3352  0.1484
10807TIP3    H153912   0.553   1.611   4.194 -2.1057  0.5483  1.2390
10807TIP3    H253913   0.660   1.710   4.232 -0.3903 -0.0965 -1.6237
10808TIP3   OH253914   6.132   5.533  17.076  0.3071  0.0705 -0.5750
10808TIP3    H153915   6.112   5.601  17.139  0.4009 -0.2900 -0.1504
10808TIP3    H253916   6.053   5.479  17.072  1.3204 -1.7310  1.5780
10809TIP3   OH253917   1.198   5.538  12.356 -0.2348  0.3064  0.3271
10809TIP3    H153918   1.258   5.552  12.429 -0.8253 -0.0891  0.8965
10809TIP3    H253919   1.233   5.461  12.310  0.6345  1.0820 -0.3354
10810TIP3   OH253920   0.977   5.810  11.003 -0.2197 -0.0327  0.5196
10810TIP3    H153921   0.920   5.777  10.934 -0.8499  0.7861  0.6305
10810TIP3    H253922   0.917   5.840  11.072  0.4058 -1.7063  1.8629
10811TIP3   OH253923   0.404   4.536  14.344 -0.1889 -0.4291 -0.3602
10811TIP3    H153924   0.365   4.487  14.272  0.9747 -1.5307 -0.2812
10811TIP3    H253925   0.371   4.492  14.423  1.0360 -1.2852 -0.2915
10812TIP3   OH253926   6.715   3.353   4.084 -0.3225  0.1101  0.3614
10812TIP3    H153927   6.718   3.344   4.179  0.7229 -0.4762  0.2787
10812TIP3    H253928   6.799   3.320   4.053 -2.1496 -3.7493 -1.1272
10813TIP3   OH253929   5.479   3.215  15.928 -0.2132  0.0221 -0.5750
10813TIP3    H153930   5.497   3.146  15.864 -1.0328 -0.8384  0.1029
10813TIP3    H253931   5.499   3.296  15.882  2.9625 -0.7021 -0.7095
10814TIP3   OH253932   4.805   6.413  16.228 -0.1138  0.0139  0.0817
10814TIP3    H153933   4.809   6.461  16.311 -0.0774  1.7820 -0.8921
10814TIP3    H253934   4.823   6.479  16.162  0.1006 -1.4167 -1.3317
10815TIP3   OH253935   4.302   2.756  14.178 -0.9390  0.1332  0.7857
10815TIP3    H153936   4.330   2.799  14.259 -1.9607  0.1785  1.1269
10815TIP3    H253937   4.383   2.725  14.138  0.0658  3.5573 -0.1990
10816TIP3   OH253938   4.584   3.675   1.861 -0.1909 -0.0826  0.5706
10816TIP3    H153939   4.637   3.735   1.809  0.6447  0.4864  2.0140
10816TIP3    H253940   4.639   3.654   1.937 -0.7546 -2.1047  0.4834
10817TIP3   OH253941   1.441   4.998  14.716 -0.1680  0.4102  0.0828
10817TIP3    H153942   1.423   5.088  14.743 -0.3948  0.6918 -0.9453
10817TIP3    H253943   1.456   5.004  14.622  3.3313 -0.1154  0.4920
10818TIP3   OH253944   0.210   3.321  11.704  0.4120 -0.0199  0.3637
10818TIP3    H153945   0.271   3.294  11.772  2.5176 -1.2429 -1.8305
10818TIP3    H253946   0.190   3.241  11.655 -0.1340  0.9585 -1.1274
10819TIP3   OH253947   5.448   1.023  15.389  0.2848  1.0259  0.5557
10819TIP3    H153948   5.410   1.041  15.475 -0.0907  0.8750  0.4250
10819TIP3    H253949   5.404   0.943  15.360 -0.4137  1.6902 -0.2665
10820TIP3   OH253950   1.422   1.457  10.504 -0.1092  0.4974 -0.1726
10820TIP3    H153951   1.410   1.371  10.465 -2.2200  0.1805  1.0305
10820TIP3    H253952   1.334   1.482  10.535  0.8159  2.2067  1.2565
10821TIP3   OH253953   5.613   6.152  15.532  0.0768  0.5828 -0.3815
10821TIP3    H153954   5.558   6.098  15.475  0.8411 -2.6277  1.6104
10821TIP3    H253955   5.687   6.177  15.478 -1.1376  1.1704 -1.8580
10822TIP3   OH253956   5.118   2.477  13.024 -0.4605 -0.2046  0.3271
10822TIP3    H153957   5.177   2.498  12.952 -1.1863 -0.2755 -0.3040
10822TIP3    H253958   5.175   2.448  13.095  0.4962  2.3179  0.6923
10823TIP3   OH253959   1.434   2.318  12.117  0.7967  0.1753 -0.1902
10823TIP3    H153960   1.405   2.378  12.186  2.6391  0.6708  0.1999
10823TIP3    H253961   1.371   2.333  12.046 -1.2216 -0.4537  1.3747
10824TIP3   OH253962   2.874   1.944  11.493 -0.7478  0.4357  0.2437
10824TIP3    H153963   2.953   1.935  11.545  0.3188 -0.3151 -1.4376
10824TIP3    H253964   2.834   2.026  11.524  0.1917  0.3579  1.7301
10825TIP3   OH253965   1.113   2.029  13.335 -0.4784  0.3341 -0.1460
10825TIP3    H153966   1.120   2.118  13.369  0.9794  0.3738 -0.5042
10825TIP3    H253967   1.021   2.022  13.307 -0.8914  1.3456  0.8754
10826TIP3   OH253968   5.021   5.630   2.450 -0.4222 -0.0845 -0.3439
10826TIP3    H153969   5.032   5.542   2.486 -1.8661 -0.3250 -0.4105
10826TIP3    H253970   4.937   5.627   2.404 -1.4189  1.8147  1.1974
10827TIP3   OH253971   5.577   4.365  13.301 -0.5792 -0.5281  0.1774
10827TIP3    H153972   5.616   4.300  13.360  0.0030  1.3613  2.0114
10827TIP3    H253973   5.530   4.425  13.360  1.0071  2.1441 -1.0785
10828TIP3   OH253974   2.922   4.395   3.556  0.3574 -0.1156 -0.2101
10828TIP3    H153975   2.908   4.435   3.641  0.4006 -0.7738  0.1105
10828TIP3    H253976   3.017   4.382   3.551  0.3946  0.2227 -0.5055
10829TIP3   OH253977   0.530   3.766   0.909 -0.0054 -0.5842  0.0317
10829TIP3    H153978   0.525   3.726   0.996 -0.3816 -0.1168  0.2287
10829TIP3    H253979   0.452   3.736   0.863 -0.3791  0.0407  0.2386
10830TIP3   OH253980   0.221   0.373  15.843  0.2923  0.2890  0.3034
10830TIP3    H153981   0.195   0.437  15.777 -0.5566  0.0090  0.3494
10830TIP3    H253982   0.172   0.293  15.821 -0.4889  0.3663  1.5969
10831TIP3   OH253983   4.247   0.989  17.071 -0.6799 -0.2826 -0.3365
10831TIP3    H153984   4.303   1.049  17.022 -1.5067  0.9884  0.2203
10831TIP3    H253985   4.281   0.902  17.050  1.9635  0.4490  0.5591
10832TIP3   OH253986   4.620   3.583   4.590 -0.1351 -0.0472  0.0827
10832TIP3    H153987   4.667   3.656   4.630 -0.9521  0.4565  0.1374
10832TIP3    H253988   4.616   3.516   4.659  1.4224 -0.5308 -0.2610
10833TIP3   OH253989   0.237   5.914   3.411 -0.2867  0.1096  0.0884
10833TIP3    H153990   0.248   5.830   3.366  0.7592 -0.6017  1.5694
10833TIP3    H253991   0.292   5.975   3.362  3.0373 -1.2465  1.7842
10834TIP3   OH253992   0.702   1.547   6.173 -0.0110  0.2608 -0.1955
10834TIP3    H153993   0.793   1.573   6.184 -0.3272  0.9707  1.0137
10834TIP3    H253994   0.700   1.454   6.192  0.6238  0.0060 -1.3105
10835TIP3   OH253995   0.489   0.549  16.805 -0.1257 -0.0068  0.2703
10835TIP3    H153996   0.423   0.515  16.744  0.2693  1.3977 -1.0094
10835TIP3    H253997   0.511   0.475  16.861 -2.1883 -0.7301  0.2047
10836TIP3   OH253998   2.370   2.462   3.407  0.1169 -0.0024  0.1913
10836TIP3    H153999   2.303   2.530   3.395 -0.3174 -0.5152 -0.3103
10836TIP3    H254000   2.452   2.504   3.381 -0.1921  0.2432 -0.3980
10837TIP3   OH254001   1.411   1.420  11.948 -0.1371  0.0368  0.1266
10837TIP3    H154002   1.330   1.375  11.926  1.2431 -2.8060  0.4481
10837TIP3    H254003   1.404   1.505  11.904 -2.4707 -0.8182 -1.3229
10838TIP3   OH254004   5.313   3.640   5.157 -0.1555  0.4789 -0.0270
10838TIP3    H154005   5.244   3.581   5.190  1.0130 -2.2096 -2.0004
10838TIP3    H254006   5.266   3.717   5.127 -2.0102 -0.1755  1.0009
10839TIP3   OH254007   2.679   3.154  17.091  1.1231  0.0750 -0.1897
10839TIP3    H154008   2.698   3.093  17.020  0.6190 -0.1851 -0.1045
10839TIP3    H254009   2.704   3.107  17.171  1.5078  0.2949 -0.1741
10840TIP3   OH254010   4.845   5.973   5.541  0.2468  0.0604 -0.0778
10840TIP3    H154011   4.893   6.055   5.546 -0.6645  0.5901  0.1391
10840TIP3    H254012   4.909   5.906   5.567  0.9527  0.7083 -0.1232
10841TIP3   OH254013   2.242   2.724   4.790  0.3076  0.2675  0.0663
10841TIP3    H154014   2.159   2.731   4.743 -0.0425  1.0265  0.7767
10841TIP3    H254015   2.243   2.636   4.826  0.1669 -0.0083 -0.5988
10842TIP3   OH254016   5.767   1.958  12.524 -0.3644  0.0797 -0.0795
10842TIP3    H154017   5.679   1.995  12.529 -0.0595  0.8136 -0.0093
10842TIP3    H254018   5.781   1.918  12.610 -0.1145  1.1620  0.3965
10843TIP3   OH254019   0.581   0.189   4.919 -0.3452 -0.1260 -0.4468
10843TIP3    H154020   0.523   0.126   4.963 -1.0042  0.5473 -0.3472
10843TIP3    H254021   0.561   0.179   4.826 -0.8426  0.3245 -0.3892
10844TIP3   OH254022   2.041   4.328  17.093  0.0697  0.4436 -0.2588
10844TIP3    H154023   2.001   4.409  17.061  0.3988  0.3885 -0.8227
10844TIP3    H254024   2.021   4.263  17.026  0.3896  0.2180 -0.1366
10845TIP3   OH254025   5.563   3.480  14.376  0.4116  0.2663 -0.1019
10845TIP3    H154026   5.492   3.535  14.410  2.0239  2.0705  0.5041
10845TIP3    H254027   5.555   3.489  14.281 -0.8200 -0.4657 -0.0938
10846TIP3   OH254028   0.098   1.158  13.688  0.1443  0.2413  0.0506
10846TIP3    H154029   0.192   1.172  13.700  0.0476  1.2455 -0.2180
10846TIP3    H254030   0.070   1.232  13.633 -0.6692 -0.4359 -0.4702
10847TIP3   OH254031   5.918   6.257   5.590 -0.3977 -0.3792 -0.4963
10847TIP3    H154032   5.895   6.200   5.517 -0.0810 -1.4646  0.2339
10847TIP3    H254033   5.900   6.205   5.669  2.0484 -0.3763  0.1723
10848TIP3   OH254034   0.952   1.986   1.199  0.1544  0.5527  0.1786
10848TIP3    H154035   1.023   2.051   1.198  0.2155  0.6028  2.1692
10848TIP3    H254036   0.942   1.964   1.292 -1.2191 -0.8164 -0.2534
10849TIP3   OH254037   3.547   2.400   0.530 -0.3207 -0.3009 -0.1715
10849TIP3    H154038   3.591   2.434   0.452 -1.5152  1.5152 -0.1102
10849TIP3    H254039   3.617   2.388   0.594  0.5302 -0.8456 -1.1785
10850TIP3   OH254040   2.847   2.796   1.292  0.0324  0.4630 -1.0413
10850TIP3    H154041   2.940   2.814   1.308  0.2554 -0.9864 -0.5419
10850TIP3    H254042   2.848   2.721   1.233 -0.8335  1.0534 -1.8250
10851TIP3   OH254043   5.261   4.974  13.328 -0.0947  0.0217  0.1470
10851TIP3    H154044   5.221   5.060  13.317  2.5399  1.3529  0.3700
10851TIP3    H254045   5.288   4.948  13.240 -1.7339 -1.1148 -0.0834
10852TIP3   OH254046   3.659   1.247  12.068 -0.2050  0.1241 -0.3431
10852TIP3    H154047   3.639   1.303  11.993 -0.9068 -1.6143 -1.4959
10852TIP3    H254048   3.749   1.270  12.092 -0.5884  1.9825 -0.5308
10853TIP3   OH254049   5.445   1.487   4.510  0.2869 -0.7877  0.4141
10853TIP3    H154050   5.485   1.462   4.426  0.8151  1.4920 -0.0907
10853TIP3    H254051   5.471   1.418   4.571  0.1039 -2.3710 -1.2193
10854TIP3   OH254052   3.061   0.516  14.129  0.2489 -0.3731 -0.7092
10854TIP3    H154053   3.064   0.477  14.216 -1.5269  0.3567 -0.2851
10854TIP3    H254054   3.152   0.510  14.098  0.6061 -2.1168  0.5015
10855TIP3   OH254055   5.974   6.740  12.255  0.2396  0.7444 -0.3720
10855TIP3    H154056   5.928   6.815  12.216  1.8808  0.4728 -3.1027
10855TIP3    H254057   5.909   6.670  12.255 -0.1568  1.0658 -1.7481
10856TIP3   OH254058   5.555   0.115   5.498 -0.5655 -0.5848  0.3613
10856TIP3    H154059   5.563   0.172   5.421  0.7455 -1.0142  0.1455
10856TIP3    H254060   5.474   0.142   5.539 -0.3754  0.9176 -0.1633
10857TIP3   OH254061   4.097   3.141  14.738 -0.3031 -0.0498  0.1989
10857TIP3    H154062   4.134   3.187  14.814  0.2676  1.0009 -0.6841
10857TIP3    H254063   4.007   3.122  14.763 -0.3876  1.0699  0.8156
10858TIP3   OH254064   4.519   2.527   1.731  0.1634  0.1167  0.3589
10858TIP3    H154065   4.444   2.560   1.683 -0.1909 -1.3779 -0.1598
10858TIP3    H254066   4.589   2.589   1.712 -0.0773 -0.1993 -1.7545
10859TIP3   OH254067   4.181   5.046   0.806 -0.2048  0.2962  0.4316
10859TIP3    H154068   4.196   4.961   0.765 -1.2537 -0.0816  0.8043
10859TIP3    H254069   4.252   5.055   0.870 -0.2169 -0.4060  0.5464
10860TIP3   OH254070   2.704   2.373  15.215  0.2211 -0.1644  0.5570
10860TIP3    H154071   2.635   2.402  15.274 -1.1040  2.1768 -1.9537
10860TIP3    H254072   2.782   2.420  15.244  0.0394 -0.3950  1.4575
10861TIP3   OH254073   1.171   4.058  16.081 -0.2473 -0.5670 -0.1841
10861TIP3    H154074   1.095   4.113  16.061  0.1732  0.2255  0.3861
10861TIP3    H254075   1.178   4.060  16.176  1.7266  1.0758 -0.3078
10862TIP3   OH254076   4.554   6.115   0.525 -0.1435  0.0794  0.0147
10862TIP3    H154077   4.571   6.022   0.540  0.2712  0.3816  1.5551
10862TIP3    H254078   4.565   6.156   0.610 -3.7724  1.0668  0.1591
10863TIP3   OH254079   3.998   4.384   6.633  0.0302 -0.0741 -0.5204
10863TIP3    H154080   4.038   4.451   6.578 -1.5345  1.4367  0.0837
10863TIP3    H254081   4.060   4.372   6.705 -0.1813  1.6395 -0.0099
10864TIP3   OH254082   1.432   0.389   6.102 -0.2137  0.2608  0.0155
10864TIP3    H154083   1.369   0.344   6.158  0.0732  0.5652  0.5876
10864TIP3    H254084   1.499   0.323   6.083  0.2078  0.4385  0.8572
10865TIP3   OH254085   6.771   2.147   1.199 -0.1528  0.0850 -0.6605
10865TIP3    H154086   6.677   2.166   1.192 -0.7352 -0.4763  3.2361
10865TIP3    H254087   6.785   2.076   1.137 -1.5216  2.0748 -3.5192
10866TIP3   OH254088   0.965   0.009   2.027  0.0594 -0.1144 -0.1285
10866TIP3    H154089   0.871   0.005   2.009 -0.1032  2.0757  0.0248
10866TIP3    H254090   0.975   0.082   2.088  2.0501  0.8488 -1.5140
10867TIP3   OH254091   2.243   4.935   2.743 -0.4872  0.3438 -0.1487
10867TIP3    H154092   2.152   4.906   2.751 -0.7949  1.4213  0.5215
10867TIP3    H254093   2.240   5.029   2.762  0.8834  0.2452  0.7099
10868TIP3   OH254094   3.567   6.612  16.104  0.1070 -0.1238  0.1147
10868TIP3    H154095   3.553   6.613  16.199  2.8760 -0.5586  0.5996
10868TIP3    H254096   3.506   6.546  16.072 -0.5407 -0.3129  1.6558
10869TIP3   OH254097   3.343   4.314   1.350  0.2454  0.0231 -0.5008
10869TIP3    H154098   3.409   4.310   1.280  0.7467  2.3694 -0.2417
10869TIP3    H254099   3.263   4.344   1.306  0.4955  1.2608 -0.1481
10870TIP3   OH254100   5.352   0.748   4.036 -0.5413  0.2548  0.0893
10870TIP3    H154101   5.294   0.697   3.980 -1.2399  2.0745 -0.9289
10870TIP3    H254102   5.310   0.748   4.122 -1.1707  0.1581 -0.2182
10871TIP3   OH254103   1.430   0.837   4.756 -0.1866 -0.0085 -0.1816
10871TIP3    H154104   1.471   0.851   4.842  1.8470  0.4682 -1.1690
10871TIP3    H254105   1.487   0.772   4.714  1.2154  2.6248 -2.6265
10872TIP3   OH254106   4.855   0.569   0.596  0.2235  0.0917 -0.2955
10872TIP3    H154107   4.799   0.644   0.579 -0.5637 -0.3399  0.3637
10872TIP3    H254108   4.901   0.590   0.677  0.8890  0.3649 -0.7362
10873TIP3   OH254109   4.310   2.322   1.602  0.0851 -0.4577 -0.0261
10873TIP3    H154110   4.251   2.380   1.650  1.0382  0.3087  0.2719
10873TIP3    H254111   4.395   2.333   1.647  0.7211 -0.6196 -1.1565
10874TIP3   OH254112   4.997   4.262  11.821 -0.4933  0.1096  0.2303
10874TIP3    H154113   4.978   4.348  11.783  3.1678  0.2931 -1.6459
10874TIP3    H254114   4.952   4.200  11.762 -1.2731  0.6320  0.2520
10875TIP3   OH254115   2.054   0.237  13.737 -0.0935 -0.3037  0.2019
10875TIP3    H154116   1.987   0.173  13.761 -0.5324 -0.0239 -0.2461
10875TIP3    H254117   2.101   0.255  13.818 -0.5953 -0.4690  0.5295
10876TIP3   OH254118   1.744   3.071   2.275 -0.5114  0.1556 -0.1529
10876TIP3    H154119   1.725   3.069   2.181 -1.8258 -0.0530  0.1036
10876TIP3    H254120   1.722   2.984   2.306 -0.9653  0.5039  0.5155
10877TIP3   OH254121   2.683   6.603   2.877 -1.0935  0.6986  0.0329
10877TIP3    H154122   2.727   6.586   2.960 -0.5768  0.5177 -0.2705
10877TIP3    H254123   2.665   6.697   2.878 -2.9323  0.3838  1.2160
10878TIP3   OH254124   0.010   4.763  17.092 -0.5211 -0.4794 -0.3525
10878TIP3    H154125  -0.068   4.790  17.043 -1.6539 -3.5154 -0.4846
10878TIP3    H254126   0.070   4.731  17.024 -0.3589 -0.8233 -0.0488
10879TIP3   OH254127   1.938   3.666  14.358 -0.1368  0.3913 -1.0935
10879TIP3    H154128   1.854   3.682  14.400  0.6749  1.3020  0.2915
10879TIP3    H254129   2.001   3.664  14.430  1.1967  1.0294 -2.1720
10880TIP3   OH254130   6.310   1.792  12.332  0.6345  0.5676 -0.2857
10880TIP3    H154131   6.223   1.830  12.329 -0.0741 -0.9183  0.2964
10880TIP3    H254132   6.345   1.805  12.244 -0.0841  1.3454 -0.4697
10881TIP3   OH254133   2.270   3.241  16.399  0.3091 -0.2660  0.1425
10881TIP3    H154134   2.200   3.177  16.413  0.3470 -0.4326 -0.4358
10881TIP3    H254135   2.328   3.201  16.335  1.0953 -0.2485  0.8248
10882TIP3   OH254136   2.139   6.095  13.652 -0.2027 -0.0132  0.3411
10882TIP3    H154137   2.164   6.002  13.658 -1.7540 -0.3787  1.8884
10882TIP3    H254138   2.212   6.142  13.693 -0.3516 -0.7530  1.5077
10883TIP3   OH254139   3.227   3.452   5.128  0.0560  0.3690 -0.8413
10883TIP3    H154140   3.149   3.497   5.093 -0.6415 -2.0744 -2.7128
10883TIP3    H254141   3.192   3.386   5.188  0.6857 -0.5085 -1.4121
10884TIP3   OH254142   4.827   1.738   4.858 -0.1842 -0.1798 -0.1690
10884TIP3    H154143   4.914   1.771   4.834 -0.2082 -0.9508 -1.3836
10884TIP3    H254144   4.823   1.651   4.820 -1.5360 -0.1212 -0.2143
10885TIP3   OH254145   3.552   6.621  12.712 -0.3271 -0.0765 -0.0522
10885TIP3    H154146   3.458   6.609  12.698 -0.2984 -1.2795  0.6210
10885TIP3    H254147   3.557   6.689  12.780 -0.5714  2.4700 -2.4188
10886TIP3   OH254148   2.396   0.826  10.664  0.4624 -0.0208 -0.5444
10886TIP3    H154149   2.399   0.732  10.647  1.3634  0.0004 -0.5455
10886TIP3    H254150   2.370   0.833  10.756 -0.6110 -0.2304 -0.8117
10887TIP3   OH254151   0.517   1.392   2.816 -0.3895 -0.2834 -0.1875
10887TIP3    H154152   0.501   1.303   2.785 -0.1758 -0.2481 -0.4004
10887TIP3    H254153   0.613   1.402   2.813 -0.4718  0.2988 -1.1348
10888TIP3   OH254154   2.341   3.356  15.402  0.3075 -0.0505 -0.3218
10888TIP3    H154155   2.344   3.263  15.426  1.1091  0.1067  0.2182
10888TIP3    H254156   2.344   3.402  15.486 -0.6317  0.4645 -0.5536
10889TIP3   OH254157   4.966   3.805  16.655 -0.5271  0.3145  0.1019
10889TIP3    H154158   4.934   3.716  16.669 -1.1431  0.3132 -1.1737
10889TIP3    H254159   4.897   3.861  16.693  0.0096  0.2710  1.1930
10890TIP3   OH254160   5.220   0.475   3.233  0.4780  0.2624 -0.6293
10890TIP3    H154161   5.146   0.475   3.173 -0.7746  1.6209  0.8402
10890TIP3    H254162   5.266   0.556   3.215  1.1861 -0.2113 -1.0020
10891TIP3   OH254163   5.347   1.342   2.558 -0.8021 -0.2145 -0.0096
10891TIP3    H154164   5.300   1.286   2.619 -0.2731 -0.0966  0.5065
10891TIP3    H254165   5.431   1.298   2.544 -0.5239  0.2606  0.1255
10892TIP3   OH254166   1.547   3.516  12.458  0.1298 -0.4008  0.2766
10892TIP3    H154167   1.504   3.482  12.536 -1.2947 -0.9350 -0.6964
10892TIP3    H254168   1.573   3.605  12.482 -1.5718 -0.0346  0.9094
10893TIP3   OH254169   3.478   3.976   3.165 -0.5142 -0.4030  0.2201
10893TIP3    H154170   3.459   4.035   3.091  2.1145 -0.0327 -0.2435
10893TIP3    H254171   3.457   3.889   3.132 -0.9597 -0.0886 -0.3585
10894TIP3   OH254172   2.191   3.568   3.372 -0.2214  0.0970  0.5062
10894TIP3    H154173   2.152   3.576   3.459 -1.4176  1.6480 -0.1302
10894TIP3    H254174   2.240   3.649   3.360  0.6266 -0.4770  0.0508
10895TIP3   OH254175   1.930   0.185  12.943  0.0202  0.1925 -0.4458
10895TIP3    H154176   2.013   0.221  12.975  0.2636 -0.7116 -0.0394
10895TIP3    H254177   1.955   0.125  12.872 -0.1904 -0.7911  0.2889
10896TIP3   OH254178   5.224   5.404  13.935 -0.3192  0.3109 -0.3159
10896TIP3    H154179   5.299   5.361  13.976 -1.6780 -0.9625  0.9562
10896TIP3    H254180   5.150   5.345  13.953 -1.9643  2.3882  0.0366
10897TIP3   OH254181   5.157   6.781   3.262 -0.2853 -0.0264 -0.6522
10897TIP3    H154182   5.218   6.786   3.188  0.6025 -1.1650 -0.0309
10897TIP3    H254183   5.087   6.724   3.232  1.1629 -2.3158  0.0535
10898TIP3   OH254184   2.172   0.019   5.454 -0.2122 -0.4585 -0.1285
10898TIP3    H154185   2.086   0.058   5.443  0.1603  0.9446  1.4777
10898TIP3    H254186   2.232   0.094   5.455  0.6499 -1.1015  2.0138
10899TIP3   OH254187   6.180   0.048   6.191  0.7032 -0.1606  0.6706
10899TIP3    H154188   6.141  -0.021   6.245 -1.3122  1.2196  1.1164
10899TIP3    H254189   6.205   0.003   6.110  2.3279 -1.9573  2.0637
10900TIP3   OH254190   2.944   2.410   3.471  0.2306  0.1364  0.1677
10900TIP3    H154191   3.021   2.365   3.434 -0.4532  0.5783 -1.9024
10900TIP3    H254192   2.933   2.488   3.417 -1.3914  0.3441  0.7416
10901TIP3   OH254193   2.611   1.886   2.430 -0.0812 -0.5298 -0.4171
10901TIP3    H154194   2.532   1.939   2.419  0.5920  0.6463  0.1240
10901TIP3    H254195   2.617   1.834   2.350 -0.5234  0.5884 -1.2082
10902TIP3   OH254196   6.602   0.085   5.320  0.5409  0.3814  0.4757
10902TIP3    H154197   6.588   0.178   5.342 -0.2691  0.7466 -1.4305
10902TIP3    H254198   6.652   0.087   5.239  0.9401 -0.8839  0.6773
10903TIP3   OH254199   4.867   3.895   6.577 -0.9160 -0.2412  0.0057
10903TIP3    H154200   4.893   3.853   6.495 -1.2160 -3.3464  1.3354
10903TIP3    H254201   4.950   3.910   6.623 -0.7590  1.3585 -0.7448
10904TIP3   OH254202   6.616   0.352  12.930 -0.2771  0.1701  0.3240
10904TIP3    H154203   6.704   0.343  12.894  0.3596  0.5087  1.7145
10904TIP3    H254204   6.564   0.388  12.859  1.0430  1.3423 -0.0884
10905TIP3   OH254205   6.765   5.952   1.955 -0.2745 -0.5118  0.0756
10905TIP3    H154206   6.841   5.962   2.012 -0.1663 -0.9608  0.0161
10905TIP3    H254207   6.740   6.041   1.931 -1.4135 -0.1809  2.2430
10906TIP3   OH254208   1.401   5.039  12.157  0.3498  0.0290 -0.0927
10906TIP3    H154209   1.456   5.038  12.079  1.4875 -2.0230  0.6584
10906TIP3    H254210   1.394   4.947  12.184 -1.0772  0.5366  1.4928
10907TIP3   OH254211   2.351   1.673  16.499  0.1104 -0.0805  0.1091
10907TIP3    H154212   2.359   1.584  16.534 -1.7060  0.5382  2.3369
10907TIP3    H254213   2.440   1.707  16.498  0.7178 -1.5697  0.1124
10908TIP3   OH254214   1.687   5.197   5.865 -0.0584 -0.5514 -0.4615
10908TIP3    H154215   1.770   5.159   5.834  0.5509  0.4202 -0.0824
10908TIP3    H254216   1.708   5.233   5.951 -0.7097  0.2669 -0.6309
10909TIP3   OH254217   1.694   5.925   3.611 -0.2018 -0.2913 -0.3149
10909TIP3    H154218   1.615   5.875   3.632  0.2092 -0.8186 -0.0182
10909TIP3    H254219   1.759   5.897   3.675  0.5417 -0.6194 -1.1863
10910TIP3   OH254220   2.928   4.581  11.982 -0.6491  0.0400  0.4032
10910TIP3    H154221   2.904   4.659  11.931  1.4348  1.4314  1.4222
10910TIP3    H254222   3.014   4.602  12.018 -0.2992 -2.5280  1.2151
10911TIP3   OH254223   1.982   0.952   5.224  0.2708 -0.0582  0.0515
10911TIP3    H154224   1.911   0.887   5.219  0.3892 -0.2012  0.2189
10911TIP3    H254225   1.959   1.006   5.300  0.4244 -0.2022  0.1992
10912TIP3   OH254226   5.232   1.389  13.494 -0.3452  0.3407 -0.1269
10912TIP3    H154227   5.219   1.295  13.506  0.6494  0.1361 -0.5626
10912TIP3    H254228   5.244   1.400  13.400 -0.2320  0.8721 -0.0528
10913TIP3   OH254229   1.625   4.158  16.676 -0.7636 -0.3393  0.0193
10913TIP3    H154230   1.546   4.212  16.662 -0.6544  0.0633  0.8528
10913TIP3    H254231   1.639   4.114  16.593 -0.0173  2.0352 -1.1921
10914TIP3   OH254232   0.231   3.302  16.561 -0.1382  0.1633 -0.1654
10914TIP3    H154233   0.303   3.261  16.608 -1.4687 -0.8180  1.1162
10914TIP3    H254234   0.257   3.393  16.550  2.0745 -0.5549 -1.3915
10915TIP3   OH254235   0.251   6.372   5.557  0.6482  0.0070 -0.1007
10915TIP3    H154236   0.225   6.405   5.643  1.1027 -0.8479  0.3796
10915TIP3    H254237   0.234   6.445   5.497  0.4719  0.6669  0.7304
10916TIP3   OH254238   1.580   0.888   0.681 -0.7839 -0.3715  0.2838
10916TIP3    H154239   1.652   0.926   0.732 -1.4341  0.7194  0.4139
10916TIP3    H254240   1.613   0.803   0.654  0.6024  0.1329  0.2803
10917TIP3   OH254241   2.233   5.690  16.857  0.1797 -0.7137 -0.2417
10917TIP3    H154242   2.263   5.601  16.838 -0.0039 -1.2587  1.7620
10917TIP3    H254243   2.164   5.678  16.923  0.3060  0.9237  0.2312
10918TIP3   OH254244   1.745   5.179   1.499 -0.0008  0.7376 -0.4983
10918TIP3    H154245   1.771   5.099   1.452  0.5694  0.4221  0.3304
10918TIP3    H254246   1.811   5.244   1.474  2.1740 -0.2572  2.1610
10919TIP3   OH254247   2.893   3.593  11.478  0.2011 -0.0048  0.0240
10919TIP3    H154248   2.798   3.599  11.489  0.0031 -0.6563 -1.1426
10919TIP3    H254249   2.928   3.590  11.567 -0.9195 -0.4267  0.4637
10920TIP3   OH254250   1.561   1.326  13.507 -0.4783  0.2775 -0.3897
10920TIP3    H154251   1.482   1.334  13.561 -0.3620 -0.4665 -0.0976
10920TIP3    H254252   1.629   1.371  13.557 -0.3036 -0.6537  0.2443
10921TIP3   OH254253   4.903   0.218   5.895  0.2169 -0.1026  0.0233
10921TIP3    H154254   4.848   0.139   5.894  0.0023  0.0459  0.0841
10921TIP3    H254255   4.890   0.257   5.809 -0.4271  0.3784  0.3254
10922TIP3   OH254256   5.533   1.081  12.152  0.2076  0.2118 -0.7182
10922TIP3    H154257   5.539   0.989  12.180 -0.0201  0.8387  1.6297
10922TIP3    H254258   5.596   1.127  12.209 -1.2235  1.7915 -0.3287
10923TIP3   OH254259   3.625   5.501   3.682 -0.2429 -0.1389  0.2241
10923TIP3    H154260   3.545   5.527   3.636  0.5438  2.2443  0.0678
10923TIP3    H254261   3.640   5.571   3.746  2.8511  0.6689 -1.2087
10924TIP3   OH254262   0.722   3.701   0.514 -0.5116 -0.2654 -0.1874
10924TIP3    H154263   0.717   3.606   0.528 -1.5306 -0.5000 -1.8609
10924TIP3    H254264   0.816   3.720   0.515 -0.3480 -0.8320  2.6347
10925TIP3   OH254265   5.281   1.821   0.876 -0.0771  0.0487  0.1977
10925TIP3    H154266   5.285   1.893   0.813 -0.1404 -1.3229 -1.4691
10925TIP3    H254267   5.360   1.831   0.929  1.9506 -0.6826 -2.4270
10926TIP3   OH254268   4.135   1.344  10.470  0.3173 -0.1287 -0.1193
10926TIP3    H154269   4.041   1.341  10.489  0.4353 -1.6548  0.4424
10926TIP3    H254270   4.176   1.355  10.556  0.6628  0.3376 -0.3410
10927TIP3   OH254271   2.243   6.174   1.116  0.2373  0.9734 -0.2674
10927TIP3    H154272   2.236   6.218   1.031 -0.3235  0.2142 -0.6225
10927TIP3    H254273   2.155   6.139   1.132  0.8926 -0.8860 -0.4747
10928TIP3   OH254274   1.011   4.973   1.920  0.0721  0.0198 -0.1416
10928TIP3    H154275   0.921   4.970   1.953 -0.5710 -1.0207 -1.8517
10928TIP3    H254276   1.056   4.903   1.968 -0.6475 -0.9678 -0.8459
10929TIP3   OH254277   2.104   6.678  14.012 -0.2467 -0.4428  0.3412
10929TIP3    H154278   2.010   6.661  14.012  0.0633 -2.5110  1.4080
10929TIP3    H254279   2.123   6.708  13.923 -1.5687 -2.4609 -0.6976
10930TIP3   OH254280   5.485   2.674   4.323 -0.0885 -0.3101  0.0068
10930TIP3    H154281   5.481   2.769   4.310 -1.5889 -0.6067 -2.2301
10930TIP3    H254282   5.394   2.646   4.317  0.1265 -1.7330  2.4717
10931TIP3   OH254283   3.814   5.221  14.737 -0.3126  0.0738  0.2417
10931TIP3    H154284   3.869   5.144  14.744  0.7024  0.6076 -1.3289
10931TIP3    H254285   3.826   5.267  14.821  3.6018  1.3933 -0.8216
10932TIP3   OH254286   6.164   2.210  13.298 -0.5882  0.2036 -0.9805
10932TIP3    H154287   6.122   2.132  13.261 -0.3104  1.7053 -4.9669
10932TIP3    H254288   6.258   2.195  13.284 -0.4382  0.6721 -0.5042
10933TIP3   OH254289   1.554   5.118   2.529  0.5593 -0.0150 -0.7539
10933TIP3    H154290   1.500   5.097   2.452 -1.6326  0.0452  0.6818
10933TIP3    H254291   1.498   5.174   2.583  1.8051 -0.5245  1.1602
10934TIP3   OH254292   0.927   3.106   3.614 -0.3273 -0.7890  1.0310
10934TIP3    H154293   0.873   3.072   3.685 -2.6899  1.9256  0.7383
10934TIP3    H254294   0.903   3.054   3.538 -2.8980  0.4682  0.8591
10935TIP3   OH254295   6.243   2.398  15.036  0.1088 -0.1364 -0.2226
10935TIP3    H154296   6.311   2.434  14.979 -0.6591  1.9221  0.0744
10935TIP3    H254297   6.178   2.468  15.044 -0.1280 -0.5504  2.6973
10936TIP3   OH254298   1.572   2.510   4.647  0.0741 -0.1203 -0.6909
10936TIP3    H154299   1.635   2.446   4.612  0.5808  0.8459 -1.6091
10936TIP3    H254300   1.557   2.482   4.737  0.3154 -1.5021 -1.0593
10937TIP3   OH254301   6.209   2.551   4.343 -0.0636  0.6714 -0.6432
10937TIP3    H154302   6.156   2.588   4.272 -0.2751  1.3778 -0.1284
10937TIP3    H254303   6.223   2.624   4.403  2.8441  0.9483 -1.5081
10938TIP3   OH254304   5.898   1.507  11.133  0.2662 -0.2780  0.4033
10938TIP3    H154305   5.928   1.557  11.057  0.8764  1.4460  1.7034
10938TIP3    H254306   5.812   1.544  11.153  0.2367 -0.5216  0.7249
10939TIP3   OH254307   4.887   4.142  12.523  0.2289  0.4217 -0.1290
10939TIP3    H154308   4.851   4.226  12.552 -1.5692 -0.3360 -0.0384
10939TIP3    H254309   4.858   4.079  12.590  2.0022 -0.1995  0.0965
10940TIP3   OH254310   5.776   6.818   3.804  0.2386 -0.0514  0.5951
10940TIP3    H154311   5.846   6.854   3.858  1.4077  0.7073 -1.3650
10940TIP3    H254312   5.814   6.742   3.761 -0.9243 -1.1334  1.3869
10941TIP3   OH254313   1.414   6.541   0.521 -0.3293  0.5643 -0.2999
10941TIP3    H154314   1.415   6.633   0.498 -2.4963  0.3154 -1.6193
10941TIP3    H254315   1.390   6.539   0.613 -0.5438  1.3172 -0.3371
10942TIP3   OH254316   0.716   0.935   6.037 -0.2955 -0.0416 -0.7694
10942TIP3    H154317   0.805   0.945   6.072 -0.3408  2.2629 -1.1108
10942TIP3    H254318   0.662   0.991   6.093 -1.3360 -0.5497 -1.2421
10943TIP3   OH254319   5.376   0.026   1.994  0.0067 -0.1454 -0.1426
10943TIP3    H154320   5.291   0.013   2.036  0.8423 -0.1680  1.6361
10943TIP3    H254321   5.431  -0.044   2.029  1.1566  0.7410 -0.1321
10944TIP3   OH254322   0.894   2.646   3.942  0.2411  0.2091  0.4958
10944TIP3    H154323   0.889   2.594   3.862  0.5006 -1.2594  1.3946
10944TIP3    H254324   0.849   2.728   3.921 -1.2489 -0.8492 -0.6129
10945TIP3   OH254325   5.332   6.295  16.069 -0.3681  0.3669  0.1008
10945TIP3    H154326   5.254   6.350  16.073 -1.0849 -0.6934  2.1881
10945TIP3    H254327   5.300   6.207  16.088  1.3584 -0.0294  1.4248
10946TIP3   OH254328   5.773   0.040  13.860  0.0879 -0.2369  0.5315
10946TIP3    H154329   5.767   0.035  13.956  1.4375  2.2721  0.8264
10946TIP3    H254330   5.867   0.040  13.842 -0.0782  1.4334 -0.5712
10947TIP3   OH254331   5.507   0.989   4.796  0.4008 -0.1383 -0.5584
10947TIP3    H154332   5.538   0.898   4.798  4.2746  0.9291 -2.2626
10947TIP3    H254333   5.549   1.030   4.872 -1.3994  0.2809  0.2559
10948TIP3   OH254334   1.288   3.804   4.155  0.2521  0.5163  0.2819
10948TIP3    H154335   1.273   3.710   4.149  2.9999  0.0386 -0.3867
10948TIP3    H254336   1.270   3.837   4.067  0.5932  0.3973  0.1684
10949TIP3   OH254337   2.315   1.333  13.869 -0.2235  0.6742 -0.3773
10949TIP3    H154338   2.326   1.242  13.840  0.4339  0.4745  0.4528
10949TIP3    H254339   2.291   1.381  13.790 -1.3072 -0.3414 -0.6923
10950TIP3   OH254340   2.382   6.526  16.414  0.1309  0.0455  0.5721
10950TIP3    H154341   2.291   6.518  16.440 -0.3067  0.1446 -0.8215
10950TIP3    H254342   2.403   6.442  16.374  0.9718 -0.3323  1.7545
10951TIP3   OH254343   0.590   2.725   3.111  0.5634 -0.0211  0.1451
10951TIP3    H154344   0.503   2.692   3.092  0.2619  0.3128  0.8770
10951TIP3    H254345   0.618   2.677   3.189 -0.5720  2.4746  2.2769
10952TIP3   OH254346   0.831   2.161   3.049 -0.5825 -0.3186 -0.0584
10952TIP3    H154347   0.771   2.158   3.123 -1.0970  0.9770 -0.3932
10952TIP3    H254348   0.896   2.227   3.073 -0.1735 -0.6008 -0.3542
10953TIP3   OH254349   5.880   3.416   3.145  0.3439 -0.0281  0.6339
10953TIP3    H154350   5.958   3.391   3.195  0.1710 -2.1221 -0.0827
10953TIP3    H254351   5.830   3.472   3.206  1.1994 -0.6688  1.9822
10954TIP3   OH254352   6.295   2.022   4.857 -0.2696  0.4385  0.0012
10954TIP3    H154353   6.245   1.957   4.807 -1.5077  0.9484  0.5591
10954TIP3    H254354   6.247   2.104   4.846 -0.2411  0.6909  1.5393
10955TIP3   OH254355   4.146   6.130   1.322  0.4369 -0.1070  0.3919
10955TIP3    H154356   4.198   6.155   1.246  0.8283 -3.5860 -0.6359
10955TIP3    H254357   4.209   6.122   1.394 -0.0224  3.8703  1.4725
10956TIP3   OH254358   2.430   1.811   5.509 -0.3303 -0.2623 -0.1262
10956TIP3    H154359   2.394   1.839   5.594 -0.1007  0.5539 -0.2902
10956TIP3    H254360   2.449   1.893   5.463  2.3433 -0.6354  0.1871
10957TIP3   OH254361   1.395   0.901   2.418  0.1297 -0.0876 -0.4591
10957TIP3    H154362   1.416   0.858   2.501 -0.9910  2.0178  1.0046
10957TIP3    H254363   1.315   0.858   2.388  0.0266 -0.2531  0.0422
10958TIP3   OH254364   5.611   6.247  13.392  0.3269 -0.6600 -0.0993
10958TIP3    H154365   5.655   6.291  13.465 -0.7455 -0.2082  0.3067
10958TIP3    H254366   5.663   6.269  13.315  1.6452 -1.3802  0.5505
10959TIP3   OH254367   5.266   1.169  12.140 -0.1390 -0.1803  0.4051
10959TIP3    H154368   5.251   1.212  12.224 -0.9732  1.4437 -0.5041
10959TIP3    H254369   5.358   1.146  12.140 -0.5657 -2.1589  2.5804
10960TIP3   OH254370   3.622   6.459   4.056 -0.1283 -0.5552  0.2210
10960TIP3    H154371   3.577   6.375   4.062 -2.1407  0.4080 -0.4527
10960TIP3    H254372   3.577   6.505   3.985  0.5700  1.2936  0.9175
10961TIP3   OH254373   1.420   1.732  12.563 -0.4018  1.2164  0.0944
10961TIP3    H154374   1.470   1.690  12.493 -0.5257  0.9209  0.1784
10961TIP3    H254375   1.393   1.816  12.527  0.7265  1.6743  0.2884
10962TIP3   OH254376   1.975   1.580   0.109 -0.1715  0.0584  0.1611
10962TIP3    H154377   2.053   1.540   0.146  0.9650  0.0331 -2.0736
10962TIP3    H254378   1.902   1.528   0.144  0.8430 -0.4212  1.6602
10963TIP3   OH254379   0.891   2.892   5.084  0.1968  0.4261  0.2774
10963TIP3    H154380   0.874   2.859   5.172  0.1375 -0.0141  0.1071
10963TIP3    H254381   0.983   2.920   5.087  1.0246 -1.9608 -0.1949
10964TIP3   OH254382   6.290   1.398  12.639  0.2699 -0.2351  0.0924
10964TIP3    H154383   6.371   1.350  12.625  1.1516  0.7539  1.4716
10964TIP3    H254384   6.297   1.474  12.581  0.9967  0.5569  1.1710
10965TIP3   OH254385   6.229   1.538   4.190 -0.1529  0.0405  0.4748
10965TIP3    H154386   6.175   1.503   4.119  2.1737  1.0350 -1.9792
10965TIP3    H254387   6.184   1.617   4.219  1.0984  2.5440 -3.5499
10966TIP3   OH254388   1.293   6.748   5.515  0.7627  0.4482 -0.3476
10966TIP3    H154389   1.211   6.699   5.524  1.5589 -0.8517  0.2095
10966TIP3    H254390   1.266   6.835   5.487 -0.8059  0.0535 -0.1783
10967TIP3   OH254391   2.015   6.595  11.912 -0.0735  0.3776  0.5159
10967TIP3    H154392   1.960   6.559  11.982 -0.5279 -1.2809 -0.6178
10967TIP3    H254393   1.989   6.546  11.834  2.4374  0.0991 -0.2443
10968TIP3   OH254394   0.649   0.571  17.104 -0.1305 -0.1242  0.2086
10968TIP3    H154395   0.666   0.481  17.132 -0.2772  0.4018  2.1435
10968TIP3    H254396   0.697   0.580  17.021  1.2256 -1.4957  0.7851
10969TIP3   OH254397   2.062   0.345  14.241 -0.2056 -0.2051  0.3471
10969TIP3    H154398   2.113   0.267  14.220 -0.8245  0.0523 -2.4573
10969TIP3    H254399   1.980   0.311  14.277 -1.2045 -1.0654 -2.4670
10970TIP3   OH254400   6.716   5.866   6.188 -0.5487 -0.0644 -0.2058
10970TIP3    H154401   6.726   5.944   6.243 -1.3240 -0.4248  0.4568
10970TIP3    H254402   6.788   5.809   6.215 -2.1166 -1.1415  2.0043
10971TIP3   OH254403   5.639   1.178   1.411  0.4529 -0.1254 -0.9274
10971TIP3    H154404   5.580   1.251   1.391 -0.1707 -0.2236  0.4471
10971TIP3    H254405   5.701   1.214   1.475 -0.0588 -0.8616  0.0084
10972TIP3   OH254406   1.110   6.720  13.506 -0.3124  0.2687  0.2253
10972TIP3    H154407   1.140   6.807  13.534 -1.2826  1.5352 -2.3322
10972TIP3    H254408   1.050   6.738  13.433 -0.4870 -2.5638 -0.4273
10973TIP3   OH254409   2.276   1.513   1.931 -0.1719 -0.0326  0.5342
10973TIP3    H154410   2.287   1.587   1.872  1.5413  0.3508  1.2751
10973TIP3    H254411   2.190   1.527   1.970 -0.5752  0.6559 -0.5531
10974TIP3   OH254412   4.510   0.918  13.456 -0.0427 -0.1285  0.2016
10974TIP3    H154413   4.555   0.985  13.404  1.3368 -0.0147  1.4888
10974TIP3    H254414   4.422   0.952  13.467  0.2124  0.7847 -0.3896
10975TIP3   OH254415   5.464   1.185  13.485 -0.0445 -0.6382  0.9737
10975TIP3    H154416   5.377   1.153  13.462 -0.0051 -0.5128  0.6525
10975TIP3    H254417   5.518   1.165  13.409 -0.1335  0.6564  0.5498
10976TIP3   OH254418   1.790   0.579  14.106  0.3525 -0.5033  0.0690
10976TIP3    H154419   1.858   0.531  14.058  0.1053 -0.3536 -0.4328
10976TIP3    H254420   1.766   0.651  14.048 -0.0563 -0.4060  0.3560
10977TIP3   OH254421   6.172   1.959  15.622  0.2649  0.1662  0.2920
10977TIP3    H154422   6.142   1.912  15.700  1.9002 -1.5841 -0.0637
10977TIP3    H254423   6.093   1.966  15.568 -0.3327 -0.9588  0.9657
10978TIP3   OH254424   3.863   0.794  13.332  1.1914 -0.2763  0.4162
10978TIP3    H154425   3.881   0.868  13.274  1.9428 -1.3214 -0.7308
10978TIP3    H254426   3.771   0.805  13.356  1.5864  1.6630  1.2379
10979TIP3   OH254427   4.058   1.510   0.102 -0.3806 -0.1011 -0.0906
10979TIP3    H154428   3.994   1.581   0.100  1.1453  1.4036  1.2265
10979TIP3    H254429   4.115   1.528   0.027 -0.0949 -0.0185  0.1429
10980TIP3   OH254430   6.729   0.350   1.980  0.1247 -0.8034  0.1643
10980TIP3    H154431   6.753   0.432   1.939 -0.5361 -0.1729  0.9917
10980TIP3    H254432   6.700   0.374   2.068  0.4062 -1.9758  0.6044
10981TIP3   OH254433   5.847   2.867  11.518  0.0059  0.3316 -0.2485
10981TIP3    H154434   5.793   2.882  11.441 -0.7607  1.0203  0.4021
10981TIP3    H254435   5.795   2.901  11.591  0.3757 -0.9887  0.6782
10982TIP3   OH254436   4.614   2.440  12.318  0.1280 -0.2785 -0.1692
10982TIP3    H154437   4.684   2.491  12.279  1.8029 -1.9079  0.5539
10982TIP3    H254438   4.599   2.369  12.256 -0.2233 -0.4621  0.1231
10983TIP3   OH254439   1.133   5.179   3.030  0.1163 -0.9243 -0.1749
10983TIP3    H154440   1.154   5.087   3.012 -4.0024 -2.2546  0.6322
10983TIP3    H254441   1.145   5.188   3.124  1.5284 -0.2536 -0.3974
10984TIP3   OH254442   6.468   3.039   4.638  0.0303 -0.0961  0.0557
10984TIP3    H154443   6.513   3.085   4.567  0.9059  1.2209  1.3883
10984TIP3    H254444   6.402   3.102   4.669  0.6516 -0.0263  1.3304
10985TIP3   OH254445   2.512   3.984  15.905 -0.3059  0.0115 -0.0701
10985TIP3    H154446   2.470   4.004  15.988  0.0564 -0.3591  0.2142
10985TIP3    H254447   2.445   4.000  15.838 -0.6614  0.1169  0.3102
10986TIP3   OH254448   2.892   6.676   1.693 -0.5505  0.0392  0.1436
10986TIP3    H154449   2.929   6.737   1.629 -0.6928  4.6231  3.9067
10986TIP3    H254450   2.965   6.620   1.716  0.5586  0.8233 -1.2620
10987TIP3   OH254451   0.089   4.962  14.485  0.4637 -0.9117  0.0408
10987TIP3    H154452   0.177   4.970  14.523  0.6733  1.4613 -0.7692
10987TIP3    H254453   0.104   4.926  14.398  0.7437  0.1903 -0.3812
10988TIP3   OH254454   4.964   6.620   3.114  0.2791 -0.0797  0.4387
10988TIP3    H154455   4.872   6.643   3.125  0.6299  1.6580  0.0201
10988TIP3    H254456   4.977   6.614   3.019  0.6825  0.0975  0.4794
10989TIP3   OH254457   1.936   1.900  11.828 -0.0209  0.3038 -0.1319
10989TIP3    H154458   1.879   1.976  11.840 -0.6602  0.2623 -2.3884
10989TIP3    H254459   1.993   1.900  11.904 -1.5248  1.6889  1.0657
10990TIP3   OH254460   3.307   1.679   0.885 -0.1389 -0.0681 -0.5255
10990TIP3    H154461   3.256   1.641   0.956  0.8959  0.4890  0.5592
10990TIP3    H254462   3.248   1.678   0.809 -1.2112 -0.8255  0.2904
10991TIP3   OH254463   1.874   6.161   4.835  0.1413 -0.3156  0.1832
10991TIP3    H154464   1.904   6.163   4.745 -0.2128  0.3486  0.0722
10991TIP3    H254465   1.953   6.172   4.888  0.4304 -1.3160 -0.0157
10992TIP3   OH254466   3.932   4.803   1.056 -0.1703  0.1860 -1.7039
10992TIP3    H154467   3.910   4.744   0.984 -1.3446  0.1474 -1.3280
10992TIP3    H254468   4.021   4.777   1.081 -0.7049 -1.5354 -1.4580
10993TIP3   OH254469   3.811   2.777  16.580 -0.0217 -0.0337 -0.0852
10993TIP3    H154470   3.807   2.784  16.485 -1.3433  1.8742  0.0633
10993TIP3    H254471   3.731   2.732  16.605  0.2389 -0.3761  0.1475
10994TIP3   OH254472   0.585   6.096  16.123 -0.0122 -0.0936  0.1896
10994TIP3    H154473   0.646   6.114  16.051 -0.0576  1.6472  0.5452
10994TIP3    H254474   0.525   6.031  16.087  1.7538 -1.5293 -0.3233
10995TIP3   OH254475   4.381   5.725  11.125  0.5537  0.8512 -0.2426
10995TIP3    H154476   4.297   5.765  11.149 -0.8852 -0.5087 -2.6962
10995TIP3    H254477   4.440   5.750  11.197 -1.2265  4.0048  0.3130
10996TIP3   OH254478   2.138   5.294  10.779 -0.1988  0.2298  0.2760
10996TIP3    H154479   2.175   5.207  10.795  0.9179  0.5862 -0.3128
10996TIP3    H254480   2.134   5.334  10.866  1.8729  0.5915  0.2474
10997TIP3   OH254481   4.257   4.244  16.314 -0.3363  0.2392 -0.4240
10997TIP3    H154482   4.198   4.217  16.243 -1.7180 -1.9731  1.4350
10997TIP3    H254483   4.244   4.178  16.382  2.5998  1.0060  1.0328
10998TIP3   OH254484   0.335   1.781   5.562 -0.0712  0.3028  0.0307
10998TIP3    H154485   0.382   1.748   5.639  0.4615  0.3236 -0.2796
10998TIP3    H254486   0.249   1.806   5.596  0.3487  0.8375  0.7412
10999TIP3   OH254487   2.752   0.752   5.977  0.5514  0.1228  0.1045
10999TIP3    H154488   2.662   0.721   5.964 -0.0784  1.1474  1.6264
10999TIP3    H254489   2.774   0.722   6.066  1.2087  1.0202  0.2519
11000TIP3   OH254490   6.416   1.824   4.030  0.0340  0.3589 -0.9607
11000TIP3    H154491   6.421   1.890   4.099 -0.1907 -0.1076 -0.4890
11000TIP3    H254492   6.471   1.752   4.061 -0.1419  0.1076 -1.2233
11001TIP3   OH254493   0.858   4.761   0.671 -0.0405 -0.4863 -0.1088
11001TIP3    H154494   0.842   4.808   0.589  0.2619  0.7433  0.5171
11001TIP3    H254495   0.774   4.720   0.692 -0.4570  0.1862 -0.4239
11002TIP3   OH254496   1.202   3.197   4.179 -0.1360 -0.1012 -0.3657
11002TIP3    H154497   1.213   3.112   4.137  0.0416 -0.6838  0.8196
11002TIP3    H254498   1.236   3.185   4.268  0.4073  1.3616 -0.3437
11003TIP3   OH254499   1.509   6.448   4.269  0.2143 -0.3315  0.0415
11003TIP3    H154500   1.569   6.405   4.208 -1.3057 -2.0478 -0.3367
11003TIP3    H254501   1.560   6.458   4.350  1.6771  0.3161 -0.9206
11004TIP3   OH254502   6.521   3.190  13.295  0.1307 -0.2274 -0.0429
11004TIP3    H154503   6.505   3.096  13.301  1.8797 -0.5479 -0.0676
11004TIP3    H254504   6.513   3.210  13.202  1.1479 -0.6421 -0.2361
11005TIP3   OH254505   1.974   5.572  11.376  0.0970  0.2940 -0.7785
11005TIP3    H154506   1.901   5.527  11.419  0.9295 -0.3261  0.0273
11005TIP3    H254507   2.044   5.507  11.373  0.5698  0.8217 -1.7063
11006TIP3   OH254508   0.345   2.112  12.954  0.1708 -0.3430  0.7880
11006TIP3    H154509   0.310   2.082  13.037  0.0232 -0.0700  0.8265
11006TIP3    H254510   0.411   2.178  12.978 -0.8862  0.8104  0.6672
11007TIP3   OH254511   4.734   1.979  16.777 -0.2908 -0.4100 -0.2955
11007TIP3    H154512   4.680   1.900  16.781 -0.3449 -0.3758 -0.3681
11007TIP3    H254513   4.701   2.034  16.848 -0.9524  0.0022 -0.9080
11008TIP3   OH254514   4.069   1.855  11.702  0.3833  0.0731  0.4457
11008TIP3    H154515   4.030   1.790  11.644 -0.6144  0.4597  0.6613
11008TIP3    H254516   4.000   1.875  11.766 -0.4797  3.5242 -1.3564
11009TIP3   OH254517   6.205   1.590   0.868 -0.0803  0.2931  0.7339
11009TIP3    H154518   6.296   1.560   0.867 -0.6972 -1.6788 -0.8175
11009TIP3    H254519   6.205   1.669   0.814  1.1204  1.9200  2.9170
11010TIP3   OH254520   4.258   6.234  13.269  0.2777  0.4762  0.5687
11010TIP3    H154521   4.174   6.203  13.233  1.3458 -0.6042 -1.1570
11010TIP3    H254522   4.261   6.197  13.357  0.0814 -1.8068 -0.3133
11011TIP3   OH254523   2.573   5.045  10.370  0.1875  0.4799  0.4099
11011TIP3    H154524   2.613   5.128  10.343 -2.1360  1.2037 -1.1315
11011TIP3    H254525   2.481   5.053  10.345  0.0390 -2.9531 -0.7161
11012TIP3   OH254526   4.159   1.030  12.380  0.4550  0.0616  0.8749
11012TIP3    H154527   4.248   1.044  12.412  0.4644  0.3456  0.7194
11012TIP3    H254528   4.109   1.103  12.415  0.6077  0.7595 -0.3376
11013TIP3   OH254529   2.509   0.163  12.844  0.0041  0.3255 -0.0103
11013TIP3    H154530   2.555   0.119  12.773 -0.0284 -0.5146  0.4881
11013TIP3    H254531   2.568   0.158  12.919 -0.1718  0.7769  0.1668
11014TIP3   OH254532   2.451   6.785  15.408  0.1002 -0.3801  0.3802
11014TIP3    H154533   2.538   6.757  15.435  0.8024 -0.0839 -1.4391
11014TIP3    H254534   2.438   6.870  15.449  1.3627  0.3171 -0.6191
11015TIP3   OH254535   0.674   6.303   5.077  0.5543 -0.3257  0.1120
11015TIP3    H154536   0.764   6.320   5.049 -0.0285  0.1773 -1.5430
11015TIP3    H254537   0.624   6.294   4.996 -1.5339  2.7863  0.8522
11016TIP3   OH254538   5.353   3.641  14.493 -0.6267 -0.3200 -0.0287
11016TIP3    H154539   5.289   3.575  14.520  0.1855 -1.4991 -0.8681
11016TIP3    H254540   5.332   3.718  14.546 -3.1646 -0.4271 -0.7487
11017TIP3   OH254541   1.511   4.599   5.203 -0.1834  0.1491  0.3360
11017TIP3    H154542   1.557   4.529   5.155  1.0027  0.4257  1.0478
11017TIP3    H254543   1.455   4.552   5.265 -0.3371 -0.1849 -0.0482
11018TIP3   OH254544   1.301   0.089  16.214  0.3675 -0.0033 -0.7354
11018TIP3    H154545   1.315   0.080  16.120  1.2273 -1.4486 -0.4996
11018TIP3    H254546   1.228   0.030  16.234 -1.3792  2.0303 -0.8166
11019TIP3   OH254547   3.392   6.331  13.047 -0.4222  0.4116 -0.6936
11019TIP3    H154548   3.429   6.409  13.089 -0.0033 -0.3762  0.4577
11019TIP3    H254549   3.440   6.322  12.965  0.9601  0.2407  0.0994
11020TIP3   OH254550   1.386   0.841   5.416  0.0752  0.3694  0.8385
11020TIP3    H154551   1.345   0.824   5.501 -0.2936 -1.1340  0.3924
11020TIP3    H254552   1.475   0.807   5.425 -0.1035 -0.2208  0.5129
11021TIP3   OH254553   5.512   2.921   1.257  0.0844  0.1858 -0.0345
11021TIP3    H154554   5.537   2.979   1.329  0.1871 -0.5211  0.5052
11021TIP3    H254555   5.492   2.981   1.184  0.9455  0.8697  0.2703
11022TIP3   OH254556   1.741   2.942  14.767  0.5379 -0.2367  0.3294
11022TIP3    H154557   1.715   2.863  14.815  0.3371  0.3929  1.2716
11022TIP3    H254558   1.746   3.010  14.833 -2.7414  1.4334 -0.9177
11023TIP3   OH254559   0.124   0.243   3.045  0.7850 -0.3453 -0.5531
11023TIP3    H154560   0.153   0.247   2.954 -0.3344  0.5185 -0.8880
11023TIP3    H254561   0.113   0.334   3.071  0.4126 -0.6011  0.2322
11024TIP3   OH254562   0.904   6.427  11.976 -0.2462 -0.2683  0.0864
11024TIP3    H154563   0.895   6.359  11.908  2.0895 -1.0387  0.4538
11024TIP3    H254564   0.896   6.509  11.928  1.0605 -0.8028 -1.1355
11025TIP3   OH254565   1.912   4.703   2.909  0.3031  0.3374  0.0856
11025TIP3    H154566   1.892   4.687   3.001 -1.9795 -1.7572 -0.6748
11025TIP3    H254567   1.938   4.618   2.875  1.3808  1.1361 -1.2121
11026TIP3   OH254568   1.854   1.563   3.634 -0.0170  0.3675 -0.1497
11026TIP3    H154569   1.917   1.504   3.591 -0.1522 -0.4019  0.6705
11026TIP3    H254570   1.808   1.605   3.562 -0.4945 -1.1685 -0.7856
11027TIP3   OH254571   4.531   3.689   3.544 -0.7165  0.1888  0.0606
11027TIP3    H154572   4.521   3.605   3.498 -0.9493 -1.2344  2.5232
11027TIP3    H254573   4.621   3.687   3.577 -1.3682 -0.1466  1.9414
11028TIP3   OH254574   5.743   5.052   1.040 -0.1683 -0.1494 -0.4043
11028TIP3    H154575   5.754   5.134   0.994 -0.7033  0.0968 -0.1131
11028TIP3    H254576   5.735   5.077   1.132 -0.0902 -0.5474 -0.2854
11029TIP3   OH254577   0.672   6.013  15.151 -0.0361 -0.3583  0.1824
11029TIP3    H154578   0.683   6.049  15.062  1.1752  2.0455  1.2040
11029TIP3    H254579   0.578   6.012  15.165 -0.2174 -0.2825 -0.9509
11030TIP3   OH254580   1.641   0.604  17.255 -0.0430 -0.1077  0.2976
11030TIP3    H154581   1.723   0.568  17.223 -0.0994  0.0394 -0.0121
11030TIP3    H254582   1.576   0.536  17.239  0.2087 -0.6756  1.5555
11031TIP3   OH254583   2.819   3.403   0.394 -0.2177 -0.7237  0.4590
11031TIP3    H154584   2.913   3.409   0.383 -0.5645  0.6908 -3.1750
11031TIP3    H254585   2.794   3.322   0.350 -0.7816 -0.6231  0.5746
11032TIP3   OH254586   5.160   6.605   1.314 -0.4371 -0.2801 -0.1424
11032TIP3    H154587   5.244   6.614   1.270  0.4013  1.1851  1.6618
11032TIP3    H254588   5.131   6.695   1.329 -2.5587 -0.7375 -1.0690
11033TIP3   OH254589   1.990   2.645   5.987  0.3433  0.4592  0.4906
11033TIP3    H154590   2.065   2.587   5.975  1.3954  1.9931 -0.7092
11033TIP3    H254591   1.948   2.613   6.067  1.5767 -1.1592  0.5537
11034TIP3   OH254592   0.160   2.801  13.104 -0.6096 -0.5825 -0.3156
11034TIP3    H154593   0.118   2.810  13.019 -0.9297 -1.9190 -0.3132
11034TIP3    H254594   0.140   2.883  13.149 -0.1608  0.2813 -1.6266
11035TIP3   OH254595   1.161   2.948   4.658 -0.2783  0.1312  0.3900
11035TIP3    H154596   1.251   2.959   4.627  0.2307  0.2777  1.8616
11035TIP3    H254597   1.147   2.853   4.657 -0.0313  0.0944  0.3656
11036TIP3   OH254598   3.304   2.155  14.348 -0.0115 -0.6889  0.6792
11036TIP3    H154599   3.373   2.217  14.369 -0.6053  1.1082 -2.1332
11036TIP3    H254600   3.350   2.080  14.309  0.4492 -0.2242  0.3293
11037TIP3   OH254601   0.225   1.099   0.749  0.0923  0.2345  0.3223
11037TIP3    H154602   0.158   1.052   0.799 -1.5865  1.7882 -0.3501
11037TIP3    H254603   0.252   1.037   0.681  0.1055 -0.7821  1.2304
11038TIP3   OH254604   2.863   1.249  14.865  0.1141  0.0746 -0.3283
11038TIP3    H154605   2.954   1.236  14.838  0.5708  0.0295  1.1240
11038TIP3    H254606   2.813   1.183  14.817  1.2159 -1.5834  0.7250
11039TIP3   OH254607   1.977   1.929   4.130  0.2185 -0.2520 -0.1736
11039TIP3    H154608   2.012   1.998   4.074  0.6300 -0.0586  0.3136
11039TIP3    H254609   1.883   1.928   4.111  0.1243  0.7901  0.1752
11040TIP3   OH254610   0.875   1.924  12.131  0.0818 -0.1760  0.3507
11040TIP3    H154611   0.789   1.925  12.173  0.2030 -1.4757  0.6449
11040TIP3    H254612   0.938   1.936  12.202  0.1526  1.9337  0.0189
11041TIP3   OH254613   2.830   3.201  14.069  0.0427 -0.3180  0.2954
11041TIP3    H154614   2.881   3.199  14.150  0.4362  3.7739  0.3367
11041TIP3    H254615   2.896   3.187  14.000  1.1971  3.2531  0.4497
11042TIP3   OH254616   5.007   3.307   2.282 -0.2089  0.1951 -0.0334
11042TIP3    H154617   5.096   3.294   2.248  0.7198  1.9461  1.4949
11042TIP3    H254618   5.001   3.247   2.357  0.2274  1.0428  0.6993
11043TIP3   OH254619   5.683   0.329  11.051  0.2280  0.6341  0.0691
11043TIP3    H154620   5.628   0.358  10.978  0.0172  0.4861  0.1678
11043TIP3    H254621   5.624   0.276  11.105  0.2945  1.0365  0.5350
11044TIP3   OH254622   1.513   0.567  12.430  0.3736  0.3312  0.4747
11044TIP3    H154623   1.506   0.475  12.456 -1.8442  0.5093  0.6792
11044TIP3    H254624   1.435   0.583  12.377  0.2991  2.3022  1.1175
11045TIP3   OH254625   1.988   1.861  14.119 -0.0510  0.2975  0.1469
11045TIP3    H154626   1.904   1.895  14.088 -0.1515 -0.7627 -0.7911
11045TIP3    H254627   2.009   1.788  14.060  1.9277  1.0364 -0.1586
11046TIP3   OH254628   2.886   2.308  15.468 -0.3543 -0.1233  0.4602
11046TIP3    H154629   2.980   2.290  15.473  0.0177  1.5937  0.4146
11046TIP3    H254630   2.847   2.226  15.437  0.8341 -1.5688  2.5579
11047TIP3   OH254631   1.865   2.650   1.073 -0.5308 -0.4792  0.2349
11047TIP3    H154632   1.770   2.657   1.063 -0.8060 -1.6472  1.6458
11047TIP3    H254633   1.883   2.556   1.064  0.6545 -0.1455 -1.1343
11048TIP3   OH254634   4.201   4.307  17.199  0.5764 -0.2989  0.0246
11048TIP3    H154635   4.168   4.390  17.166 -1.4791 -1.8895 -2.2406
11048TIP3    H254636   4.290   4.301  17.165  0.7025  0.8907  0.1032
11049TIP3   OH254637   3.525   0.179   5.116 -0.1550 -0.1910  0.0913
11049TIP3    H154638   3.457   0.235   5.077 -0.4801 -0.2042  0.6292
11049TIP3    H254639   3.569   0.139   5.041 -2.5295 -2.3540 -0.2614
11050TIP3   OH254640   1.083   4.561   0.680  0.2675 -0.6100  0.3958
11050TIP3    H154641   1.033   4.597   0.606 -0.3704  1.1286  1.6139
11050TIP3    H254642   1.016   4.529   0.741  0.6190  1.0189  1.6926
11051TIP3   OH254643   1.569   5.536   1.740 -0.1144  0.3970  0.9352
11051TIP3    H154644   1.592   5.443   1.745  0.7500  0.5280 -0.1246
11051TIP3    H254645   1.547   5.551   1.649  0.7937  1.4490  0.8615
11052TIP3   OH254646   3.393   6.465   1.239  0.3236  0.2922  0.0677
11052TIP3    H154647   3.368   6.481   1.148  0.6889  0.8713  0.0628
11052TIP3    H254648   3.384   6.550   1.281 -0.5101 -0.1151  0.7420
11053TIP3   OH254649   5.162   6.166  11.925  1.2673  0.2967 -0.1336
11053TIP3    H154650   5.187   6.253  11.894  1.4673 -0.4974 -2.4228
11053TIP3    H254651   5.071   6.177  11.954  0.8891  1.0846 -1.4752
11054TIP3   OH254652   2.642   1.497  12.386  0.1628  0.0044 -0.3021
11054TIP3    H154653   2.571   1.540  12.338  0.4485  1.8117  0.8155
11054TIP3    H254654   2.598   1.436  12.445 -0.8164  2.9913  2.3357
11055TIP3   OH254655   1.167   2.919   3.463 -0.3544 -0.4935  0.1589
11055TIP3    H154656   1.243   2.973   3.441  1.9007 -3.4404  0.0770
11055TIP3    H254657   1.195   2.870   3.540 -2.6060 -0.9676  0.7373
11056TIP3   OH254658   0.533   2.109  15.625  0.3561 -0.6217 -0.2614
11056TIP3    H154659   0.536   2.157  15.707 -1.8896  2.9825 -2.0086
11056TIP3    H254660   0.577   2.167  15.562 -1.4400 -1.3370 -2.3016
11057TIP3   OH254661   3.730   3.968   5.444 -0.0171  0.2653 -0.3551
11057TIP3    H154662   3.770   3.963   5.531  1.1529  0.8912 -0.8315
11057TIP3    H254663   3.803   3.953   5.383 -0.6258  0.8101 -1.2453
11058TIP3   OH254664   5.232   2.687  10.685 -0.4883  0.1532  0.1720
11058TIP3    H154665   5.275   2.700  10.770 -0.9477 -0.2075  0.4669
11058TIP3    H254666   5.138   2.682  10.706 -0.4858 -1.7311 -0.1251
11059TIP3   OH254667   2.452   4.610   6.524 -0.8166  0.0060 -0.5945
11059TIP3    H154668   2.535   4.646   6.557 -1.3051  2.2174 -1.5559
11059TIP3    H254669   2.409   4.575   6.602  0.1242  0.7132  0.2881
11060TIP3   OH254670   2.168   6.713   3.351  0.2475  0.5576 -0.2796
11060TIP3    H154671   2.089   6.760   3.324  0.7868  0.7597 -1.5552
11060TIP3    H254672   2.139   6.623   3.365 -0.5162  0.9590  0.8402
11061TIP3   OH254673   0.359   5.067   4.553 -0.2514  0.7188  0.2189
11061TIP3    H154674   0.423   5.067   4.482  0.0325  1.5223  0.4626
11061TIP3    H254675   0.411   5.085   4.632 -0.4441 -0.8632  0.7606
11062TIP3   OH254676   5.292   4.638   0.827 -0.7816 -0.4970 -0.3354
11062TIP3    H154677   5.308   4.613   0.918 -0.3920 -2.7349 -0.9565
11062TIP3    H254678   5.211   4.688   0.830  0.4606  1.5766  1.5082
11063TIP3   OH254679   1.787   5.204   2.440 -0.6672 -0.0752 -0.2900
11063TIP3    H154680   1.769   5.275   2.502 -1.6024 -0.9452  0.4775
11063TIP3    H254681   1.708   5.150   2.443 -0.5748 -0.3422 -1.9836
11064TIP3   OH254682   5.843   5.082  13.727 -0.1433 -0.5883 -0.1813
11064TIP3    H154683   5.853   4.995  13.689  1.6640 -0.7509  0.5694
11064TIP3    H254684   5.866   5.071  13.819 -2.2251  0.2448  0.5074
11065TIP3   OH254685   5.551   2.970  15.757  0.1102  0.3855  0.2705
11065TIP3    H154686   5.515   2.967  15.668 -3.3878  0.2045  1.4990
11065TIP3    H254687   5.533   2.883  15.793  2.6727  0.0164  0.8158
11066TIP3   OH254688   0.368   6.634  11.053 -0.4913 -0.0069 -0.7706
11066TIP3    H154689   0.287   6.584  11.042 -0.4032 -0.3315 -0.0375
11066TIP3    H254690   0.421   6.611  10.977  0.2967 -2.5004  0.4062
11067TIP3   OH254691   6.536   6.783   4.779 -0.6964 -0.1018  0.3848
11067TIP3    H154692   6.543   6.704   4.724 -0.8197  0.3804 -0.3332
11067TIP3    H254693   6.617   6.831   4.763 -0.9950  0.3336  0.1583
11068TIP3   OH254694   3.932   3.031  12.141 -0.6172 -0.2326 -0.1800
11068TIP3    H154695   3.877   2.971  12.090 -0.7550 -0.5414  0.3180
11068TIP3    H254696   3.870   3.089  12.186 -0.5712 -0.8601  0.7255
11069TIP3   OH254697   1.499   4.969   3.672  0.0056 -0.4259 -0.1130
11069TIP3    H154698   1.553   4.921   3.734  0.6793  0.4999  0.0443
11069TIP3    H254699   1.559   5.033   3.633 -1.2270  1.4386  0.9286
11070TIP3   OH254700   0.350   3.047  13.187  0.0308 -0.3139 -0.2008
11070TIP3    H154701   0.342   3.107  13.114 -2.1560 -0.2811 -0.0023
11070TIP3    H254702   0.298   3.087  13.257 -0.2526 -1.7042  0.4210
11071TIP3   OH254703   5.467   1.958  12.253 -0.3418 -0.0808  0.0851
11071TIP3    H154704   5.508   2.017  12.317 -0.8455  2.8940 -2.1102
11071TIP3    H254705   5.389   1.925  12.297  1.5813 -1.8430  2.5242
11072TIP3   OH254706   4.058   6.450   0.666  0.3645 -0.2500  0.2876
11072TIP3    H154707   4.079   6.413   0.581  0.5143  0.7627 -0.1299
11072TIP3    H254708   3.971   6.489   0.654  0.0944 -0.6817  0.7943
11073TIP3   OH254709   1.905   3.955  12.547  0.2390  0.0182 -0.2659
11073TIP3    H154710   1.824   3.904  12.555 -1.3378  2.3945 -0.1215
11073TIP3    H254711   1.905   4.012  12.624  1.3571  1.0105 -0.9716
11074TIP3   OH254712   4.110   4.886  16.630  0.3536 -0.0514  0.6881
11074TIP3    H154713   4.110   4.968  16.580 -1.1949  1.2541  2.7022
11074TIP3    H254714   4.046   4.831  16.585 -0.1439  0.6484  0.5156
11075TIP3   OH254715   6.713   5.129  13.207 -0.2468  0.6815  0.3159
11075TIP3    H154716   6.670   5.171  13.133 -0.6693 -0.5072 -0.1452
11075TIP3    H254717   6.680   5.039  13.206 -0.1517  0.5971  1.8666
11076TIP3   OH254718   5.696   2.034  17.162  0.4888 -0.2611  0.0956
11076TIP3    H154719   5.787   2.007  17.178  0.3233 -0.2456  1.1200
11076TIP3    H254720   5.647   1.952  17.162  0.2986 -0.1554  1.0245
11077TIP3   OH254721   1.412   3.877  11.026  0.1970  0.4172  0.0628
11077TIP3    H154722   1.483   3.905  10.968 -0.0037  0.3133 -0.2301
11077TIP3    H254723   1.345   3.946  11.017  1.0435  1.5451  1.7922
11078TIP3   OH254724   0.129   6.762  14.765 -0.0354  0.2766  0.0473
11078TIP3    H154725   0.131   6.764  14.669  0.1414  1.0772  0.0562
11078TIP3    H254726   0.165   6.847  14.791 -1.7661  0.8262  0.7986
11079TIP3   OH254727   1.833   5.733   2.060  0.2450  0.8933  0.1395
11079TIP3    H154728   1.899   5.677   2.100 -2.0604 -2.0576  0.2009
11079TIP3    H254729   1.866   5.750   1.972  0.2336 -2.3295 -0.6051
11080TIP3   OH254730   1.554   1.772  11.166 -0.0423 -0.3798 -0.2815
11080TIP3    H154731   1.587   1.741  11.251  1.4598  0.5875 -0.4737
11080TIP3    H254732   1.620   1.744  11.103 -0.5422 -0.0364 -0.9709
11081TIP3   OH254733   1.949   0.348   0.005  0.3537  0.0257  0.8178
11081TIP3    H154734   2.038   0.351  -0.030 -0.0203 -0.1818 -0.2088
11081TIP3    H254735   1.898   0.405  -0.053 -0.5400 -1.3051  0.2344
11082TIP3   OH254736   4.085   5.823  15.232 -0.1298 -0.4312  0.1771
11082TIP3    H154737   4.043   5.749  15.277  1.0538 -0.8937  0.5493
11082TIP3    H254738   4.011   5.877  15.203 -0.9864 -1.1130  0.9837
11083TIP3   OH254739   5.053   5.633   0.921 -0.6769 -0.1314  0.3081
11083TIP3    H154740   5.003   5.711   0.947 -1.9532 -1.0804  0.8600
11083TIP3    H254741   5.124   5.628   0.985 -0.7609  0.4245  0.4499
11084TIP3   OH254742   6.038   2.846   1.139  0.3153 -0.6887 -0.2341
11084TIP3    H154743   5.957   2.841   1.088 -0.3744 -0.9841  0.8643
11084TIP3    H254744   6.107   2.852   1.073 -0.6061 -0.2433 -1.1881
11085TIP3   OH254745   0.952   3.854   2.507  0.0929 -0.1226 -0.0983
11085TIP3    H154746   0.864   3.892   2.498 -0.4129 -1.1858  0.0788
11085TIP3    H254747   0.961   3.798   2.430  0.4037 -0.4203  0.1528
11086TIP3   OH254748   5.908   0.847  14.972  0.1077  0.0805  0.4910
11086TIP3    H154749   5.845   0.918  14.984  2.0709  1.6097  2.6820
11086TIP3    H254750   5.954   0.868  14.891 -0.6152  0.2117  0.1051
11087TIP3   OH254751   1.531   1.117   4.747 -0.2442  0.5608 -0.6475
11087TIP3    H154752   1.525   1.118   4.651 -1.7245  1.2515 -0.5782
11087TIP3    H254753   1.524   1.025   4.770  1.0899  0.2862 -1.2271
11088TIP3   OH254754   6.597   3.770  13.396  0.3169 -0.1865  0.3129
11088TIP3    H154755   6.584   3.773  13.491 -0.9895 -0.1934  0.1535
11088TIP3    H254756   6.689   3.749  13.385  0.0147 -2.4628  1.5895
11089TIP3   OH254757   2.615   5.667  13.813  0.4948  0.1536  0.0030
11089TIP3    H154758   2.595   5.619  13.893  0.1805  1.4095  0.7024
11089TIP3    H254759   2.708   5.653  13.799  0.5335 -0.1442  0.5387
11090TIP3   OH254760   0.526   6.176  13.615 -0.1321  0.4029  0.0680
11090TIP3    H154761   0.574   6.156  13.535  0.0951 -0.3741  0.3969
11090TIP3    H254762   0.562   6.260  13.644 -1.1550  1.3905 -1.3654
11091TIP3   OH254763   2.661   4.388  16.522 -0.0585  0.2506 -0.6488
11091TIP3    H154764   2.714   4.421  16.450 -0.3817 -0.8253 -1.4023
11091TIP3    H254765   2.645   4.296  16.501 -0.9887  0.1671  0.3004
11092TIP3   OH254766   0.092   3.536   1.346  0.5870  0.4764 -0.1225
11092TIP3    H154767   0.003   3.555   1.373  0.4891  1.9230 -1.3152
11092TIP3    H254768   0.100   3.576   1.259  2.6687  1.2429  0.3540
11093TIP3   OH254769   5.646   6.322  16.987  0.5930  0.5948  0.0492
11093TIP3    H154770   5.623   6.232  17.005 -1.1780  1.1453  0.6972
11093TIP3    H254771   5.639   6.330  16.892  0.5913  0.1178  0.0061
11094TIP3   OH254772   3.878   1.674   5.032 -0.2208  0.6925 -0.4333
11094TIP3    H154773   3.936   1.599   5.019 -1.8787 -0.8483  0.6229
11094TIP3    H254774   3.927   1.733   5.089  0.4083 -0.4784  0.2724
11095TIP3   OH254775   5.196   5.742  13.212  0.4548  0.7771  0.1185
11095TIP3    H154776   5.184   5.678  13.282 -1.5532  1.5489  0.5600
11095TIP3    H254777   5.275   5.713  13.166 -0.0562 -1.6803  0.6324
11096TIP3   OH254778   4.585   1.846  13.545 -0.0781  0.0378  0.2629
11096TIP3    H154779   4.597   1.754  13.565  1.2511  0.2557  0.5925
11096TIP3    H254780   4.624   1.858  13.459  0.7932  0.4932  0.7045
11097TIP3   OH254781   6.751   2.739   1.000  0.4141  0.3363 -0.3126
11097TIP3    H154782   6.772   2.803   0.932 -1.3991 -0.7809 -2.0027
11097TIP3    H254783   6.813   2.668   0.985  0.5403  0.4355 -0.2687
11098TIP3   OH254784   1.422   4.395  15.918 -0.2923 -0.1197 -0.3950
11098TIP3    H154785   1.424   4.400  16.013 -0.5574 -0.9491 -0.3361
11098TIP3    H254786   1.468   4.314  15.897  2.0394  1.2842 -1.1254
11099TIP3   OH254787   3.550   1.913   4.182 -0.2393  0.5604  0.1723
11099TIP3    H154788   3.585   1.860   4.111 -0.4486  1.0365 -0.2951
11099TIP3    H254789   3.486   1.971   4.140 -1.1993  0.0715  0.9301
11100TIP3   OH254790   3.796   5.872   1.766  0.1550 -0.5287  0.3137
11100TIP3    H154791   3.756   5.950   1.806  3.5400  0.4977  2.1597
11100TIP3    H254792   3.762   5.799   1.817 -1.4159 -0.0601 -0.0118
11101TIP3   OH254793   3.435   4.706  14.509 -0.0884 -0.3566  0.5520
11101TIP3    H154794   3.485   4.770  14.559 -0.5415 -0.8062  1.6305
11101TIP3    H254795   3.418   4.747  14.425  1.9803 -0.1474  0.2052
11102TIP3   OH254796   6.439   5.784  14.837 -0.3747  0.2525  0.5797
11102TIP3    H154797   6.523   5.831  14.833  0.0440 -0.3878  1.4183
11102TIP3    H254798   6.419   5.779  14.930 -1.2629  0.2328  0.3949
11103TIP3   OH254799   0.898   5.482   5.942 -0.0474  0.3580 -0.3229
11103TIP3    H154800   0.902   5.455   5.850 -3.5247  1.2100 -0.8652
11103TIP3    H254801   0.847   5.414   5.985 -0.7228  1.2591  0.3557
11104TIP3   OH254802   4.504   6.574  10.633  0.3826 -0.0302  0.0129
11104TIP3    H154803   4.498   6.651  10.577  1.2068 -0.4225 -0.6366
11104TIP3    H254804   4.598   6.552  10.633  0.1948 -0.8535  0.4305
11105TIP3   OH254805   1.609   6.113  17.140 -0.0759  0.0607  0.2955
11105TIP3    H154806   1.682   6.052  17.145  0.7045  1.0635  2.8105
11105TIP3    H254807   1.563   6.089  17.059  3.0485 -0.5555 -1.4856
11106TIP3   OH254808   3.328   0.461  14.424 -0.0671  0.0120 -0.5244
11106TIP3    H154809   3.401   0.451  14.485 -0.0873  0.0763 -0.4907
11106TIP3    H254810   3.370   0.474  14.339  0.0503 -3.5714 -1.1939
11107TIP3   OH254811   0.019   0.878   3.437  0.1074 -0.4275  0.0324
11107TIP3    H154812   0.078   0.807   3.463  1.8136  0.9431  0.0999
11107TIP3    H254813   0.039   0.893   3.345  0.9350  0.9802  0.4070
11108TIP3   OH254814   1.116   5.149  16.651 -0.0735  0.0868 -0.5574
11108TIP3    H154815   1.115   5.053  16.652  0.5078  0.0832  0.5393
11108TIP3    H254816   1.208   5.172  16.659 -0.4143  0.7405  2.1962
11109TIP3   OH254817   5.429   2.658   2.642 -0.3468  0.8134 -0.3209
11109TIP3    H154818   5.444   2.569   2.675 -2.7537 -0.0111 -1.1838
11109TIP3    H254819   5.453   2.715   2.715  2.9045 -0.3607 -0.3107
11110TIP3   OH254820   2.653   1.436   4.399 -0.0244  0.4601  0.3358
11110TIP3    H154821   2.589   1.455   4.468 -1.3894 -1.2062 -0.3823
11110TIP3    H254822   2.633   1.346   4.372  0.5967  0.9714 -2.0877
11111TIP3   OH254823   6.749   3.310   5.759 -0.5268 -0.3829 -0.1394
11111TIP3    H154824   6.670   3.337   5.805 -0.3981 -1.2185  0.6022
11111TIP3    H254825   6.753   3.215   5.771 -1.5333 -0.9850 -3.5403
11112TIP3   OH254826   6.378   1.109  10.731  0.1903  0.2891 -0.2073
11112TIP3    H154827   6.307   1.046  10.716 -0.1715  0.6349  0.0281
11112TIP3    H254828   6.452   1.073  10.684  0.0038 -0.3480 -0.0249
11113TIP3   OH254829   0.824   0.566   4.032 -0.0853  1.0199  0.8062
11113TIP3    H154830   0.814   0.651   3.990 -0.1038  0.2208 -0.8985
11113TIP3    H254831   0.739   0.549   4.072 -2.0281 -0.4277 -3.3481
11114TIP3   OH254832   5.378   6.395  14.356 -0.6862  0.0545  0.0604
11114TIP3    H154833   5.415   6.450  14.286 -2.0405  1.4067  0.3456
11114TIP3    H254834   5.298   6.359  14.318 -1.3118  0.6181  0.8153
11115TIP3   OH254835   2.217   3.233  12.464  0.4250  0.0561  0.1504
11115TIP3    H154836   2.169   3.293  12.407  1.7783 -0.0667 -1.1746
11115TIP3    H254837   2.152   3.168  12.489  0.1654 -1.0875 -2.9730
11116TIP3   OH254838   4.002   6.036  11.034 -0.2855  0.6995  0.0574
11116TIP3    H154839   4.046   5.955  11.059 -1.9540 -0.5450 -0.8239
11116TIP3    H254840   4.027   6.050  10.943 -1.2671  0.2538 -0.2970
11117TIP3   OH254841   1.092   0.540  14.268  0.1790  0.5078  0.9274
11117TIP3    H154842   1.123   0.586  14.346  2.9147  0.4638 -0.0331
11117TIP3    H254843   1.077   0.610  14.203  1.3133  0.3078  0.4341
11118TIP3   OH254844   4.949   2.881  11.985  0.7929 -0.2849  0.2171
11118TIP3    H154845   4.873   2.938  11.998 -0.1925 -1.4029 -0.4737
11118TIP3    H254846   4.927   2.827  11.909  1.7631 -1.4588  0.7289
11119TIP3   OH254847   6.302   4.325  12.118 -0.2289  0.2096 -0.4240
11119TIP3    H154848   6.396   4.323  12.100 -0.5118 -0.9053 -1.9880
11119TIP3    H254849   6.297   4.341  12.213  1.4352  3.2994 -0.7094
11120TIP3   OH254850   1.131   5.746   2.013  0.4393  0.1835  0.2730
11120TIP3    H154851   1.061   5.760   1.950 -0.1784  0.1095  0.9250
11120TIP3    H254852   1.203   5.801   1.982  0.0646  0.3331 -0.3531
11121TIP3   OH254853   5.455   6.729   6.327 -0.5108  0.2858  0.2905
11121TIP3    H154854   5.479   6.682   6.248  2.1271  0.5577  0.8348
11121TIP3    H254855   5.399   6.668   6.376 -3.1185  0.5264 -2.1667
11122TIP3   OH254856   6.381   6.773  12.827  0.1478 -0.3608  0.4613
11122TIP3    H154857   6.322   6.836  12.786 -0.3335 -0.8317  0.4240
11122TIP3    H254858   6.343   6.757  12.913  0.7042 -0.0048  0.7783
11123TIP3   OH254859   2.216   5.332  10.516 -0.8236  0.0421  0.2065
11123TIP3    H154860   2.145   5.386  10.481 -1.0368  1.2630  2.3790
11123TIP3    H254861   2.199   5.327  10.610  0.2076 -2.3517  0.3283
11124TIP3   OH254862   3.982   0.208   2.128  0.2245  0.7225 -0.2852
11124TIP3    H154863   4.041   0.133   2.126  1.5502  1.6977  0.8217
11124TIP3    H254864   4.004   0.258   2.050 -1.0897 -0.3027 -1.3652
11125TIP3   OH254865   5.347   0.005  16.163 -0.0502 -0.1054  0.1175
11125TIP3    H154866   5.437   0.014  16.193 -0.7920 -0.3387  2.6496
11125TIP3    H254867   5.307   0.090  16.180 -0.6200 -0.3767  0.1743
11126TIP3   OH254868   2.136   0.627  12.603  0.6745 -0.0098 -0.0477
11126TIP3    H154869   2.069   0.576  12.648 -1.9100  1.7921 -1.5695
11126TIP3    H254870   2.130   0.600  12.512  2.4543 -0.1940 -0.1435
11127TIP3   OH254871   1.975   1.266   0.563 -0.0101 -0.2915 -0.1213
11127TIP3    H154872   1.989   1.213   0.484  0.4290 -0.9788  0.4020
11127TIP3    H254873   1.984   1.356   0.533 -0.5851 -0.5104 -0.9974
11128TIP3   OH254874   2.917   4.963  15.456 -0.3740 -0.4366  0.3444
11128TIP3    H154875   2.865   5.013  15.519  0.0901  0.9511 -0.3320
11128TIP3    H254876   2.894   4.872  15.473 -2.5340  0.0805  0.5224
11129TIP3   OH254877   4.587   1.361  15.483 -0.8223  0.2294  0.0662
11129TIP3    H154878   4.646   1.390  15.413 -0.9423  0.5649  0.1014
11129TIP3    H254879   4.642   1.361  15.561 -0.8581  0.5089  0.0930
11130TIP3   OH254880   5.761   6.402  12.812 -0.5845  0.3727  0.3285
11130TIP3    H154881   5.800   6.488  12.795 -1.2644  0.3782 -1.4430
11130TIP3    H254882   5.795   6.347  12.742  0.2162 -0.9578  1.7129
11131TIP3   OH254883   3.978   3.201   3.079 -0.2229 -0.0649  0.0407
11131TIP3    H154884   3.925   3.215   3.158  0.4361 -0.3310  0.5511
11131TIP3    H254885   3.918   3.163   3.016 -1.0754  1.3756 -0.0364
11132TIP3   OH254886   5.496   5.398  16.149 -0.0095  0.3199  0.2479
11132TIP3    H154887   5.420   5.409  16.207  0.9405  0.8787  1.4221
11132TIP3    H254888   5.475   5.320  16.098 -1.5806  0.7259  0.2130
11133TIP3   OH254889   2.364   4.308  16.720  0.0067 -0.5203 -0.3256
11133TIP3    H154890   2.409   4.254  16.786 -0.3543 -1.1737 -0.6036
11133TIP3    H254891   2.432   4.365  16.685  0.4371 -0.9145 -0.1445
11134TIP3   OH254892   0.752   5.712  11.821 -0.7834 -0.3639 -0.2684
11134TIP3    H154893   0.785   5.801  11.836  1.3142 -0.3358 -3.8111
11134TIP3    H254894   0.684   5.723  11.755  0.2562 -1.3911 -1.5812
11135TIP3   OH254895   0.196   3.498   0.970  0.2165  0.0060 -0.1834
11135TIP3    H154896   0.161   3.573   1.017  0.4915 -0.0221  0.0715
11135TIP3    H254897   0.268   3.466   1.025  0.6129  0.0345 -0.6719
11136TIP3   OH254898   6.003   3.956  14.922  0.3558 -0.0483  0.5452
11136TIP3    H154899   5.983   3.939  15.015  0.2895  0.0582  0.5507
11136TIP3    H254900   6.058   4.034  14.923  0.0864  0.1459  0.4749
11137TIP3   OH254901   3.999   1.351   1.726 -0.1075 -0.3024  0.1398
11137TIP3    H154902   3.973   1.327   1.815 -0.3321 -0.4762  0.0289
11137TIP3    H254903   3.951   1.431   1.708  0.7735  0.3382  0.5735
11138TIP3   OH254904   4.996   5.560  16.923 -0.4507  0.2294  0.3357
11138TIP3    H154905   5.034   5.647  16.917  0.8180 -0.3206 -0.0092
11138TIP3    H254906   4.975   5.549  17.016 -1.5758  1.2660  0.2209
11139TIP3   OH254907   1.473   4.754   0.420 -0.1884  0.2747 -0.1017
11139TIP3    H154908   1.483   4.738   0.514  1.0281 -3.8876 -0.7206
11139TIP3    H254909   1.378   4.764   0.408 -0.2138  4.2826  1.7672
11140TIP3   OH254910   6.793   0.055  10.691 -0.3063 -0.1670 -0.1379
11140TIP3    H154911   6.760  -0.003  10.761 -0.1843 -0.7123 -0.5267
11140TIP3    H254912   6.740   0.135  10.700  0.6212  0.3246  1.4581
11141TIP3   OH254913   4.280   2.533  11.208 -0.2231 -0.0485  0.3822
11141TIP3    H154914   4.223   2.512  11.134 -0.0799  0.8980 -0.0205
11141TIP3    H254915   4.220   2.549  11.280 -0.5482  1.4866 -0.1770
11142TIP3   OH254916   1.976   0.172   3.329  0.0602  0.1446  0.2964
11142TIP3    H154917   2.010   0.206   3.246 -0.0355  0.8210  0.5319
11142TIP3    H254918   1.925   0.244   3.366  0.4563 -0.0102  1.1518
11143TIP3   OH254919   6.316   4.070   4.868  0.6250 -0.2943  0.4012
11143TIP3    H154920   6.293   4.009   4.797  1.6527  1.0858 -1.1797
11143TIP3    H254921   6.403   4.042   4.897  1.4266  0.8311 -0.8431
11144TIP3   OH254922   2.221   1.802  13.714 -0.0735 -0.0107 -0.2400
11144TIP3    H154923   2.264   1.834  13.793 -1.5468  0.2957  0.4747
11144TIP3    H254924   2.279   1.733  13.681  0.4794 -0.2635  1.2017
11145TIP3   OH254925   4.881   2.488   6.035  0.0656 -0.1276  0.5805
11145TIP3    H154926   4.920   2.435   5.965 -1.6976  0.8102 -1.2451
11145TIP3    H254927   4.836   2.425   6.091 -0.1162 -0.7705 -0.2690
11146TIP3   OH254928   3.548   5.444   3.241  0.3882 -0.0869 -0.2853
11146TIP3    H154929   3.503   5.528   3.237  1.0535  0.3491  0.8027
11146TIP3    H254930   3.618   5.451   3.176 -0.1409 -0.1766 -0.8745
11147TIP3   OH254931   2.390   3.300   4.480 -0.1604 -0.1300  0.1601
11147TIP3    H154932   2.463   3.362   4.489  0.7243 -0.9231 -1.1971
11147TIP3    H254933   2.338   3.335   4.408  0.2793 -0.8692 -0.5363
11148TIP3   OH254934   2.453   0.540   0.227 -0.0801 -0.0851 -0.0449
11148TIP3    H154935   2.372   0.523   0.180  0.8311 -2.3657 -0.9184
11148TIP3    H254936   2.470   0.461   0.278  0.7101  1.0313  1.5413
11149TIP3   OH254937   2.962   6.582  14.935 -1.0625  0.0463  1.2778
11149TIP3    H154938   2.886   6.527  14.952 -0.8004 -0.8708 -0.2904
11149TIP3    H254939   2.939   6.628  14.854  0.5653 -1.3040 -0.0173
11150TIP3   OH254940   5.739   1.525  13.655 -0.7885  0.3872 -0.3141
11150TIP3    H154941   5.789   1.500  13.733  0.7263  2.8702 -0.4087
11150TIP3    H254942   5.698   1.443  13.627 -0.3052 -0.8697  2.2786
11151TIP3   OH254943   2.909   1.923   1.261  0.2137 -0.2548  0.3791
11151TIP3    H154944   2.962   1.892   1.188 -0.6465 -0.7745 -0.0396
11151TIP3    H254945   2.901   2.018   1.248 -3.0610 -0.7053 -2.4182
11152TIP3   OH254946   4.776   3.889   0.712  0.0478  0.3032 -0.0688
11152TIP3    H154947   4.710   3.910   0.646  0.7068  0.1434 -0.8055
11152TIP3    H254948   4.735   3.825   0.769  0.2532 -1.4297 -1.7722
11153TIP3   OH254949   6.311   5.062  12.294  0.1362 -1.1511 -0.7573
11153TIP3    H154950   6.315   5.156  12.277 -0.0237 -1.0288 -0.1628
11153TIP3    H254951   6.301   5.056  12.389  0.6435 -1.7796 -0.7387
11154TIP3   OH254952   1.822   2.942   3.234  0.8732  0.0805 -0.6977
11154TIP3    H154953   1.853   3.021   3.191 -1.8653  1.4259 -0.4664
11154TIP3    H254954   1.826   2.963   3.328  1.3224 -0.5438 -0.5763
11155TIP3   OH254955   1.454   6.401  13.918  0.2156 -0.2748 -0.0118
11155TIP3    H154956   1.459   6.372  14.009  1.3613  0.6823  0.2570
11155TIP3    H254957   1.370   6.368  13.887  0.5166 -2.0312  0.8923
11156TIP3   OH254958   2.045   5.534  13.985 -0.2089 -0.2702  0.1398
11156TIP3    H154959   1.983   5.507  14.052 -1.0772  1.3883  0.0456
11156TIP3    H254960   2.131   5.515  14.022 -0.7016 -2.6837  0.2437
11157TIP3   OH254961   5.616   4.263   2.587  0.8438  0.1509 -0.3465
11157TIP3    H154962   5.710   4.279   2.584  0.6784  1.1584 -0.4430
11157TIP3    H254963   5.601   4.193   2.523  1.6582 -0.7829  0.4505
11158TIP3   OH254964   1.232   4.477   0.999 -0.4278 -0.6091 -0.7328
11158TIP3    H154965   1.139   4.481   1.023 -0.8706 -0.8440 -2.2816
11158TIP3    H254966   1.243   4.551   0.939  0.5645 -0.1901 -0.0541
11159TIP3   OH254967   5.890   3.813   1.522 -0.0334 -0.0560 -0.4941
11159TIP3    H154968   5.896   3.838   1.430  0.3976  0.5769 -0.3012
11159TIP3    H254969   5.981   3.804   1.551 -0.1556 -1.5727 -0.4637
11160TIP3   OH254970   0.716   6.704  15.352 -0.7117 -0.3028 -0.0899
11160TIP3    H154971   0.691   6.620  15.389  0.0209 -0.0714  0.9848
11160TIP3    H254972   0.810   6.711  15.369 -0.7207  0.6250 -0.3625
11161TIP3   OH254973   0.424   1.613   2.407 -0.1430 -0.1350  0.5269
11161TIP3    H154974   0.441   1.707   2.404 -1.5441  0.1875  1.4332
11161TIP3    H254975   0.505   1.574   2.439  0.7666  0.6548 -0.7592
11162TIP3   OH254976   0.768   0.246   2.465 -0.5352  0.0615 -0.0031
11162TIP3    H154977   0.725   0.218   2.545  0.7950  1.5884  1.3424
11162TIP3    H254978   0.777   0.167   2.412 -1.0396 -1.0770  1.5599
11163TIP3   OH254979   6.397   1.639  10.684 -0.3723 -0.1486 -0.1043
11163TIP3    H154980   6.303   1.636  10.704 -0.3179  0.1112  0.2056
11163TIP3    H254981   6.432   1.558  10.721 -0.2527  0.3816  0.9878
11164TIP3   OH254982   4.624   5.769   1.289 -0.1685 -0.1360 -0.4998
11164TIP3    H154983   4.646   5.783   1.381 -0.8410  0.1942 -0.3868
11164TIP3    H254984   4.562   5.839   1.268 -0.7066 -0.7435 -0.9564
11165TIP3   OH254985   6.535   0.940  12.946 -0.8775  0.0102 -0.6268
11165TIP3    H154986   6.620   0.900  12.929 -0.2876  1.1844 -0.5729
11165TIP3    H254987   6.481   0.917  12.871  0.3373  1.4857 -2.0114
11166TIP3   OH254988   4.582   1.030   3.421 -0.3439  0.0527  0.4195
11166TIP3    H154989   4.497   1.005   3.385  0.5468 -1.8919 -0.4754
11166TIP3    H254990   4.638   1.043   3.345  0.2696  1.0015  1.0035
11167TIP3   OH254991   5.860   4.373  15.444 -0.4651 -0.1341  0.1115
11167TIP3    H154992   5.933   4.396  15.502  0.0639  0.7625 -0.8540
11167TIP3    H254993   5.782   4.390  15.496  0.0064 -0.9292  1.1079
11168TIP3   OH254994   2.566   1.490   2.678  0.3796 -0.4274  0.0373
11168TIP3    H154995   2.577   1.503   2.584  2.4472 -2.5217 -0.0860
11168TIP3    H254996   2.484   1.443   2.687 -2.2856  3.6398 -0.2071
11169TIP3   OH254997   4.111   5.403   0.090  0.1965 -0.0074  0.2237
11169TIP3    H154998   4.168   5.345   0.141 -1.3488 -1.0026  0.8947
11169TIP3    H254999   4.147   5.400   0.001  0.8705 -1.0512  0.5217
11170TIP3   OH255000   4.511   5.481   1.316 -0.0998 -0.4487  0.1862
11170TIP3    H155001   4.579   5.483   1.384  0.5237 -2.3622 -0.3221
11170TIP3    H255002   4.485   5.573   1.306  1.3687  0.1549  1.4295
11171TIP3   OH255003   3.234   6.027   3.750  0.4157  0.1534 -0.2986
11171TIP3    H155004   3.247   5.932   3.753  0.5847  0.0639 -2.5393
11171TIP3    H255005   3.303   6.061   3.808 -0.7304 -1.1036  1.9464
11172TIP3   OH255006   1.307   5.866  13.115  0.1261 -0.3257  0.5350
11172TIP3    H155007   1.345   5.862  13.203  0.3948  1.2552  0.5319
11172TIP3    H255008   1.230   5.923  13.126 -2.1312 -3.1156  0.4659
11173TIP3   OH255009   5.644   2.623  11.732 -0.1189  0.0627  0.1235
11173TIP3    H155010   5.550   2.617  11.746 -0.0227  0.4814  0.9985
11173TIP3    H255011   5.670   2.533  11.709 -0.3132 -0.7262  2.6779
11174TIP3   OH255012   4.783   4.839  14.400  0.5460  0.3885 -0.2972
11174TIP3    H155013   4.699   4.857  14.443  0.5555  1.0494 -0.5410
11174TIP3    H255014   4.836   4.797  14.467  0.2096  0.4762  0.0251
11175TIP3   OH255015   4.269   4.571  13.093 -0.0685  0.1226 -0.4047
11175TIP3    H155016   4.185   4.527  13.075 -0.2738  0.2601  0.1983
11175TIP3    H255017   4.254   4.662  13.067  0.3195 -0.1240 -1.5424
11176TIP3   OH255018   0.950   4.944   2.277 -0.1986 -0.0990  0.1638
11176TIP3    H155019   0.984   4.883   2.341 -1.3893  0.1886  1.1107
11176TIP3    H255020   0.922   4.889   2.203 -1.3869 -0.7556  1.0580
11177TIP3   OH255021   0.845   1.120   5.375  0.5011 -0.3366 -0.3001
11177TIP3    H155022   0.863   1.172   5.454 -0.1272  1.3514 -1.2164
11177TIP3    H255023   0.759   1.149   5.346  1.0761 -0.2690 -2.0845
11178TIP3   OH255024   0.935   6.820  16.105 -0.5795  0.5477  0.0677
11178TIP3    H155025   0.947   6.791  16.196  3.7978  0.4052 -0.3598
11178TIP3    H255026   0.966   6.747  16.052 -0.8539  1.5111 -1.4842
11179TIP3   OH255027   2.731   5.807   2.445 -0.1075  0.4707 -0.5301
11179TIP3    H155028   2.751   5.896   2.416  0.1468  0.3744 -0.6565
11179TIP3    H255029   2.741   5.810   2.540  0.0456  0.5418 -0.5479
11180TIP3   OH255030   6.450   5.191  14.928  0.2679  0.1990 -0.6346
11180TIP3    H155031   6.387   5.240  14.982  0.9273  0.5622 -0.1781
11180TIP3    H255032   6.396   5.134  14.874 -0.4504  0.4226 -0.1673
11181TIP3   OH255033   5.448   6.380  11.724 -0.5805  0.0590 -0.8691
11181TIP3    H155034   5.415   6.409  11.809  0.3161 -1.7072  0.1383
11181TIP3    H255035   5.404   6.436  11.660 -1.8696  0.9032  0.7013
11182TIP3   OH255036   2.458   1.912  11.286  0.1604 -0.3729 -0.3082
11182TIP3    H155037   2.548   1.945  11.277  0.1361 -0.4070 -0.7357
11182TIP3    H255038   2.457   1.865  11.369 -0.2850  2.2142  1.2693
11183TIP3   OH255039   4.195   3.824   4.825 -0.1730 -0.0470  0.2993
11183TIP3    H155040   4.257   3.874   4.773 -0.2710 -0.0197  0.2076
11183TIP3    H255041   4.233   3.736   4.830 -0.3414 -0.1457 -0.1259
11184TIP3   OH255042   4.089   5.464   0.895 -0.1447 -0.2839 -0.0666
11184TIP3    H155043   4.015   5.523   0.913 -1.1655 -1.2354 -1.0285
11184TIP3    H255044   4.165   5.509   0.934 -1.3588  0.2709  1.8191
11185TIP3   OH255045   2.952   0.912   6.140 -0.4488 -0.7370 -0.0971
11185TIP3    H155046   2.958   0.955   6.055 -0.6784  0.4830  0.4830
11185TIP3    H255047   2.860   0.917   6.164 -0.5087 -1.7012 -0.0792
11186TIP3   OH255048   4.240   0.303   0.145  0.3470  0.2830  0.3511
11186TIP3    H155049   4.204   0.370   0.087  0.6276  0.4336  0.3497
11186TIP3    H255050   4.322   0.341   0.178  0.9132 -0.3626 -0.2596
11187TIP3   OH255051   6.728   4.676  16.612 -0.1868 -0.7549 -0.5036
11187TIP3    H155052   6.666   4.689  16.540  0.1161 -0.0843 -0.6504
11187TIP3    H255053   6.759   4.764  16.633 -0.7605 -0.8704  0.8991
11188TIP3   OH255054   2.725   4.146  16.874 -0.4234 -0.0934 -0.1601
11188TIP3    H155055   2.762   4.230  16.848  1.1787 -0.4441  0.8754
11188TIP3    H255056   2.791   4.082  16.849 -0.1070 -0.7129  2.0340
11189TIP3   OH255057   4.290   2.192   2.574  0.4823  0.0015  0.4363
11189TIP3    H155058   4.266   2.194   2.667  0.0097  1.1236  0.3080
11189TIP3    H255059   4.383   2.214   2.573  0.4562  0.1234  0.6390
11190TIP3   OH255060   1.448   3.266   7.023  0.1779 -0.3632 -0.3811
11190TIP3    H155061   1.353   3.258   7.031 -0.0066  2.4637  2.0319
11190TIP3    H255062   1.463   3.283   6.930 -1.5844 -1.4300 -0.9112
11191TIP3   OH255063   3.449   5.554   1.567 -0.0320  0.0059  0.1323
11191TIP3    H155064   3.390   5.578   1.639  0.3888 -1.5711  1.0422
11191TIP3    H255065   3.461   5.635   1.518 -0.3255  1.1329  1.8485
11192TIP3   OH255066   5.988   3.194   2.654 -0.3780  0.4062 -0.1730
11192TIP3    H155067   6.065   3.152   2.614  0.2176  0.5341  0.8144
11192TIP3    H255068   6.018   3.220   2.741 -0.9493  2.2462 -0.4933
11193TIP3   OH255069   1.853   5.942   6.716 -0.9019  0.2247  0.3339
11193TIP3    H155070   1.838   5.869   6.776  1.0482  0.3567  1.0618
11193TIP3    H255071   1.768   5.957   6.674 -1.1713 -3.0476 -0.5315
11194TIP3   OH255072   3.205   4.484  16.447  0.1057 -0.2207 -0.5212
11194TIP3    H155073   3.126   4.444  16.483 -0.1676  0.4757 -0.3110
11194TIP3    H255074   3.182   4.506  16.357  0.0917 -0.1060 -0.4894
11195TIP3   OH255075   0.567   2.872  15.204 -0.0070  0.2156 -0.0529
11195TIP3    H155076   0.628   2.829  15.264  0.7236  0.9612 -0.2401
11195TIP3    H255077   0.480   2.844  15.234  0.4343 -1.4581 -0.2453
11196TIP3   OH255078   0.835   4.594  12.874 -0.3856 -0.0201 -0.9420
11196TIP3    H155079   0.863   4.509  12.908 -0.5605  0.7940  1.3689
11196TIP3    H255080   0.784   4.572  12.795 -0.9898 -2.0985 -0.0475
11197TIP3   OH255081   1.830   2.578   0.051  0.5504 -0.1367  0.3387
11197TIP3    H155082   1.852   2.657   0.002  0.8711  0.0279  0.7469
11197TIP3    H255083   1.872   2.590   0.136  2.7416 -1.8247 -0.3957
11198TIP3   OH255084   5.282   1.737  13.232  0.1145  0.2096 -0.2385
11198TIP3    H155085   5.252   1.647  13.246 -0.6010  0.5657  0.5641
11198TIP3    H255086   5.272   1.750  13.137  0.0215 -0.4788 -0.3306
11199TIP3   OH255087   2.035   2.258  12.507 -0.0531  0.4359 -0.4930
11199TIP3    H155088   2.053   2.166  12.486 -2.0177  0.1402 -1.0464
11199TIP3    H255089   2.122   2.296  12.519  0.8311 -1.3996 -0.5921
11200TIP3   OH255090   3.276   4.431  11.775  0.5341  0.1228 -0.4020
11200TIP3    H155091   3.370   4.413  11.770  0.7794  1.2761 -0.1423
11200TIP3    H255092   3.265   4.514  11.728 -0.3718 -0.0596 -0.5151
11201TIP3   OH255093   4.862   2.457  17.268  0.2396 -0.6377 -0.0805
11201TIP3    H155094   4.894   2.425  17.184  0.6062 -0.8821  0.1438
11201TIP3    H255095   4.849   2.378  17.320  0.8192 -0.4464  0.3664
11202TIP3   OH255096   5.034   2.529   4.632  0.4609 -0.4746 -0.3087
11202TIP3    H155097   4.948   2.564   4.611 -0.0026 -1.6282 -0.4270
11202TIP3    H255098   5.036   2.523   4.727  0.1682 -0.9955 -0.3297
11203TIP3   OH255099   3.642   0.422  12.914 -0.6809 -0.7452 -0.0270
11203TIP3    H155100   3.636   0.417  13.010  0.0549 -1.2149  0.0023
11203TIP3    H255101   3.666   0.513  12.897 -0.9508 -0.6252  0.2306
11204TIP3   OH255102   2.878   6.728   1.142  0.4933 -0.1880  0.4307
11204TIP3    H155103   2.925   6.803   1.105 -1.4333  2.7387  3.4273
11204TIP3    H255104   2.921   6.712   1.226  0.7665 -2.5087 -0.0596
11205TIP3   OH255105   2.533   1.764   5.841  0.2152 -0.0787 -0.2142
11205TIP3    H155106   2.605   1.707   5.869  0.2349 -0.7427 -1.5091
11205TIP3    H255107   2.465   1.752   5.907  0.6990 -0.6723  0.1831
11206TIP3   OH255108   3.039   2.411   2.384 -0.7753 -0.2696 -0.4403
11206TIP3    H155109   3.111   2.405   2.447 -1.3451 -1.8118  0.1313
11206TIP3    H255110   3.002   2.498   2.398  0.9436  0.5396 -0.7352
11207TIP3   OH255111   0.201   6.004   3.097  0.0955  0.2853 -0.1389
11207TIP3    H155112   0.242   6.075   3.148 -0.6542  1.1313 -0.6951
11207TIP3    H255113   0.107   6.017   3.110 -0.0450 -0.6097 -0.2593
11208TIP3   OH255114   2.288   1.768   0.887 -0.0389  0.1734 -0.5681
11208TIP3    H155115   2.337   1.779   0.968 -1.1978  0.0488  0.1613
11208TIP3    H255116   2.316   1.683   0.854  0.1636  0.0574 -0.1070
11209TIP3   OH255117   1.658   2.748  14.911 -0.2171  0.0075  0.1187
11209TIP3    H155118   1.637   2.745  15.005 -0.5345  1.5107  0.1240
11209TIP3    H255119   1.600   2.683  14.872 -0.9284  0.1842  0.8397
11210TIP3   OH255120   5.619   2.406   3.980 -0.3270 -0.7566  0.9188
11210TIP3    H155121   5.652   2.480   4.032  1.8547 -1.7099  1.0141
11210TIP3    H255122   5.577   2.349   4.045 -0.1127 -0.5989  1.2023
11211TIP3   OH255123   1.409   3.826   2.422  0.1860  0.7259  0.6894
11211TIP3    H155124   1.355   3.770   2.479 -0.4638 -0.5965 -1.1244
11211TIP3    H255125   1.498   3.812   2.454  0.0483 -1.4023  0.3259
11212TIP3   OH255126   2.939   3.834   3.845 -0.2470 -0.3218 -0.2922
11212TIP3    H155127   2.998   3.902   3.879 -0.8832 -0.3910  1.0247
11212TIP3    H255128   2.875   3.821   3.915 -2.1998  0.1646 -1.8752
11213TIP3   OH255129   6.218   1.886   4.407 -0.4913  0.3419  0.1237
11213TIP3    H155130   6.279   1.891   4.332  0.5030 -1.7341  0.6977
11213TIP3    H255131   6.134   1.863   4.367  0.0682 -0.9301 -0.4055
11214TIP3   OH255132   6.656   0.787   1.328  0.1834 -0.0217  0.3152
11214TIP3    H155133   6.688   0.699   1.309 -1.3965 -0.8236  1.0616
11214TIP3    H255134   6.579   0.797   1.271  1.1059  1.4398 -0.7403
11215TIP3   OH255135   6.733   6.098  11.384 -0.1328  0.7206  0.3709
11215TIP3    H155136   6.694   6.183  11.404  0.3439  0.8559  0.7420
11215TIP3    H255137   6.742   6.055  11.469 -0.1101  0.4110  0.2148
11216TIP3   OH255138   2.816   1.418   6.309 -0.0252  0.4251  0.2466
11216TIP3    H155139   2.908   1.444   6.311  0.9175 -2.5772  0.1032
11216TIP3    H255140   2.805   1.362   6.386 -2.1265  1.6691  0.9577
11217TIP3   OH255141   5.767   1.274  11.671 -0.4180 -0.4725  0.6513
11217TIP3    H155142   5.723   1.196  11.706  0.9616 -0.8377  1.6374
11217TIP3    H255143   5.854   1.244  11.646 -0.7555  0.1747 -1.5653
11218TIP3   OH255144   1.800   1.028  16.235  0.0986  0.1677  0.3619
11218TIP3    H155145   1.815   1.077  16.155  4.0898 -0.0666  0.7762
11218TIP3    H255146   1.844   1.078  16.303 -0.2080 -1.3716  1.7725
11219TIP3   OH255147   4.814   0.605   5.477  0.1442 -0.2737  0.6134
11219TIP3    H155148   4.877   0.545   5.517 -1.0881 -0.1951  2.8397
11219TIP3    H255149   4.729   0.578   5.512 -1.2266 -0.6691 -2.6262
11220TIP3   OH255150   3.801   5.183  16.274 -0.2553  0.7201  0.3590
11220TIP3    H155151   3.752   5.124  16.216  0.8449  0.1455 -0.0316
11220TIP3    H255152   3.735   5.239  16.314 -1.1731  0.2507 -0.4626
11221TIP3   OH255153   1.555   1.097  15.865  0.5868  0.4903  0.4332
11221TIP3    H155154   1.649   1.112  15.868  0.6994 -0.1468  0.3221
11221TIP3    H255155   1.528   1.129  15.779  0.7582  0.3746  0.3352
11222TIP3   OH255156   0.320   4.622   0.318  0.6120  0.3555 -0.1640
11222TIP3    H155157   0.234   4.612   0.358  0.9254  0.2639  0.5161
11222TIP3    H255158   0.312   4.583   0.231 -0.5255  1.9739 -0.8305
11223TIP3   OH255159   3.477   5.805  16.531 -0.1176 -0.0169 -0.1940
11223TIP3    H155160   3.464   5.718  16.493 -0.4259 -0.1794  0.2771
11223TIP3    H255161   3.391   5.829  16.565  0.4463 -0.4744  1.6416
11224TIP3   OH255162   0.710   5.761  14.656  0.1097 -0.1039  0.2415
11224TIP3    H155163   0.740   5.670  14.665 -0.8148 -0.6653 -1.7650
11224TIP3    H255164   0.790   5.812  14.645  0.5489 -1.0063 -0.9317
11225TIP3   OH255165   2.225   1.547   1.182 -0.2512 -0.1306 -0.0875
11225TIP3    H155166   2.282   1.517   1.253  0.5697 -3.4046 -1.8781
11225TIP3    H255167   2.193   1.632   1.210  2.6195  0.2102  2.6762
11226TIP3   OH255168   0.270   4.363   5.622  0.7640 -0.2869 -0.2110
11226TIP3    H155169   0.232   4.278   5.643  0.2576  0.2422  1.0663
11226TIP3    H255170   0.289   4.403   5.706 -1.6996  2.0683 -0.6433
11227TIP3   OH255171   5.496   3.461  13.316  0.2050  0.5034 -0.5899
11227TIP3    H155172   5.494   3.400  13.242  0.7023 -0.6883  0.3362
11227TIP3    H255173   5.573   3.516  13.300  0.6013 -0.0797 -0.7226
11228TIP3   OH255174   2.398   2.652  12.291  0.3045  0.4397 -0.6147
11228TIP3    H155175   2.460   2.585  12.320  2.7770  1.6743 -2.6147
11228TIP3    H255176   2.374   2.699  12.370  0.8429 -0.9596  0.4133
11229TIP3   OH255177   4.597   3.985  17.012  0.2145 -0.1661 -0.4305
11229TIP3    H155178   4.644   4.068  17.006 -2.1219  1.2296 -0.4775
11229TIP3    H255179   4.652   3.923  16.965  1.2827  1.7068 -1.7835
11230TIP3   OH255180   1.159   3.810   3.031  0.5280  0.5311 -0.0993
11230TIP3    H155181   1.119   3.724   3.017  1.4669  0.3276 -1.8014
11230TIP3    H255182   1.156   3.823   3.126  1.8370 -2.1357  0.3991
11231TIP3   OH255183   6.730   6.782  15.089  0.0894 -0.1491  0.8626
11231TIP3    H155184   6.721   6.745  15.177  1.1674 -2.9960 -0.1296
11231TIP3    H255185   6.822   6.807  15.082 -0.2768  1.3382  0.9403
11232TIP3   OH255186   0.616   4.542  16.397  0.1274  0.3314  0.5024
11232TIP3    H155187   0.548   4.476  16.413 -0.3171  0.9670  1.3559
11232TIP3    H255188   0.637   4.575  16.484  2.2925 -0.5737  0.3718
11233TIP3   OH255189   4.336   6.668   5.441  0.5635 -0.1622 -0.3500
11233TIP3    H155190   4.321   6.723   5.365 -1.2913  0.1816  0.2127
11233TIP3    H255191   4.360   6.582   5.405  0.2339  0.1412 -1.3080
11234TIP3   OH255192   6.491   5.560  14.673  0.1761 -0.3901 -0.1970
11234TIP3    H155193   6.450   5.629  14.725 -0.6521 -0.7320 -0.3849
11234TIP3    H255194   6.535   5.505  14.738 -2.1934 -1.7404  0.3884
11235TIP3   OH255195   6.489   6.343  13.375 -0.1205 -0.0894 -0.2141
11235TIP3    H155196   6.567   6.331  13.322  0.2727  0.2015  0.2945
11235TIP3    H255197   6.511   6.306  13.461  0.0200  1.3720  0.4191
11236TIP3   OH255198   3.622   4.540  13.555  0.4131 -0.0692 -0.8258
11236TIP3    H155199   3.648   4.533  13.463 -0.5950 -1.1845 -1.0513
11236TIP3    H255200   3.534   4.503  13.558  0.9524 -1.3676  0.8156
11237TIP3   OH255201   0.261   6.182  16.383 -0.5166  0.1180  0.5964
11237TIP3    H155202   0.173   6.200  16.351  0.3420  1.6082 -1.1047
11237TIP3    H255203   0.306   6.266  16.377  0.4424 -0.0893  3.5428
11238TIP3   OH255204   0.546   2.729   1.594 -0.2390 -0.3713  0.5547
11238TIP3    H155205   0.566   2.647   1.638 -0.4486 -1.2205 -0.8824
11238TIP3    H255206   0.593   2.725   1.511 -0.3435  0.9143  0.4049
11239TIP3   OH255207   6.757   4.303   3.597 -0.0241 -0.1845  0.7344
11239TIP3    H155208   6.692   4.233   3.587 -0.2501  0.0558  0.5162
11239TIP3    H255209   6.708   4.383   3.581  0.5944 -0.0663 -0.6924
11240TIP3   OH255210   3.017   4.917  11.620 -0.0139  0.3160  0.1028
11240TIP3    H155211   3.071   4.868  11.558 -0.6831  0.3032 -0.4812
11240TIP3    H255212   3.063   4.908  11.704 -1.0230 -2.8263  0.4433
11241TIP3   OH255213   5.721   4.469   6.299 -0.2061 -0.0722  0.3195
11241TIP3    H155214   5.790   4.530   6.274  0.3479 -0.8752 -0.1311
11241TIP3    H255215   5.643   4.524   6.306  0.5890  0.9647  1.5021
11242TIP3   OH255216   2.194   0.130  14.845 -0.2030  0.4387  0.2010
11242TIP3    H155217   2.191   0.225  14.839  0.7652  0.6029  1.7340
11242TIP3    H255218   2.122   0.107  14.903  1.6060  0.6060  2.6660
11243TIP3   OH255219   2.195   0.526  13.951 -0.0954  0.0201  0.9365
11243TIP3    H155220   2.228   0.438  13.964  2.4791  0.8671  0.7836
11243TIP3    H255221   2.180   0.560  14.039 -0.8891 -0.4922  1.0012
11244TIP3   OH255222   3.604   4.933   4.120 -0.2970  0.3455  0.2443
11244TIP3    H155223   3.632   4.847   4.151 -0.3578  0.3797  0.3956
11244TIP3    H255224   3.670   4.994   4.153 -0.1897  0.3416  0.0361
11245TIP3   OH255225   5.858   3.167  16.841 -0.0110  0.6116 -0.0725
11245TIP3    H155226   5.840   3.191  16.931  0.4908  0.2768  0.1216
11245TIP3    H255227   5.839   3.073  16.836  0.5168  0.5035 -0.1623
11246TIP3   OH255228   4.067   2.820   1.366  0.0781 -0.5919 -0.4340
11246TIP3    H155229   4.022   2.821   1.281  0.3384  1.1028 -0.5998
11246TIP3    H255230   3.998   2.841   1.430  0.4635  1.4867 -0.6321
11247TIP3   OH255231   4.125   2.540  11.441 -0.5349  0.1967 -0.0890
11247TIP3    H155232   4.118   2.449  11.470  1.6207  0.4062  1.3916
11247TIP3    H255233   4.113   2.591  11.522  0.1287  1.1086 -0.5505
11248TIP3   OH255234   4.919   0.257  15.230 -0.3466  0.2135  0.0707
11248TIP3    H155235   4.946   0.195  15.298 -0.8755  2.4776  2.5141
11248TIP3    H255236   4.824   0.246  15.224 -0.1505 -0.9854 -1.4491
11249TIP3   OH255237   2.650   1.658  12.773 -0.0987 -0.1391 -0.7216
11249TIP3    H155238   2.654   1.563  12.758  2.6249  0.0282 -1.6397
11249TIP3    H255239   2.586   1.690  12.710 -2.0216 -1.4312  0.4480
11250TIP3   OH255240   0.979   0.452   4.240 -0.0126  0.2923 -0.1436
11250TIP3    H155241   0.899   0.427   4.286 -0.0273 -1.5991 -1.0628
11250TIP3    H255242   0.949   0.474   4.152  0.1270  2.9342  0.3964
11251TIP3   OH255243   0.450   1.885   2.654  0.4163  0.6840 -0.0585
11251TIP3    H155244   0.508   1.821   2.694  1.1555  1.6242  0.4284
11251TIP3    H255245   0.463   1.875   2.560  0.1528 -0.2021 -0.0069
11252TIP3   OH255246   3.310   2.284  11.129  0.1369 -0.1649  0.1590
11252TIP3    H155247   3.309   2.189  11.144  1.4313 -0.4180 -1.1063
11252TIP3    H255248   3.387   2.298  11.074 -0.1247  1.6180  0.2001
11253TIP3   OH255249   2.679   1.401  12.682 -0.0113 -0.0146 -0.2919
11253TIP3    H155250   2.655   1.315  12.715 -1.3265 -0.2640 -1.7573
11253TIP3    H255251   2.733   1.383  12.605 -0.8270  0.4280 -0.9899
11254TIP3   OH255252   6.544   6.054   2.499  0.1395 -0.1662 -0.3478
11254TIP3    H155253   6.550   6.147   2.477  2.1340 -0.3976 -0.9962
11254TIP3    H255254   6.451   6.038   2.510 -0.2020  2.0618  0.4906
11255TIP3   OH255255   0.959   6.238  11.777  0.8393  0.1264  0.1594
11255TIP3    H155256   0.912   6.283  11.707  0.3470 -2.0372 -0.9620
11255TIP3    H255257   1.052   6.252  11.755  0.6944 -0.5403 -0.9652
11256TIP3   OH255258   2.767   2.722   1.660  0.8353  0.1991  0.1378
11256TIP3    H155259   2.761   2.661   1.586  1.6955  1.1329 -0.7274
11256TIP3    H255260   2.838   2.687   1.714  0.7219 -0.0587  0.1221
11257TIP3   OH255261   1.827   6.286  12.570 -0.5634  0.7292  0.6557
11257TIP3    H155262   1.743   6.332  12.572 -0.9117  0.3085 -1.5202
11257TIP3    H255263   1.876   6.329  12.501 -0.1195 -0.8357 -0.0528
11258TIP3   OH255264   1.508   5.816   2.069  0.0825  0.4253 -0.6619
11258TIP3    H155265   1.600   5.809   2.041  0.9807  0.6698  1.9637
11258TIP3    H255266   1.470   5.731   2.048  1.4862 -0.4127  0.0479
11259TIP3   OH255267   3.219   3.958   1.857 -0.5498  0.5381 -0.3183
11259TIP3    H155268   3.176   3.935   1.774  1.8834 -0.1113 -1.4827
11259TIP3    H255269   3.306   3.990   1.831 -0.4043  2.1990  1.8885
11260TIP3   OH255270   4.468   4.154  13.771  0.4919  0.0339  0.2424
11260TIP3    H155271   4.421   4.097  13.709  0.1352  0.5174  0.0630
11260TIP3    H255272   4.414   4.232  13.777  1.5635  0.8516 -0.4202
11261TIP3   OH255273   3.916   5.125   2.311  0.2706 -0.4682 -0.0307
11261TIP3    H155274   3.971   5.187   2.262 -0.9440  1.3608  0.8192
11261TIP3    H255275   3.944   5.136   2.402 -1.5401  0.6172  0.4369
11262TIP3   OH255276   4.755   6.318  10.983 -0.0099  0.1340  0.0113
11262TIP3    H155277   4.799   6.252  11.036 -0.5700  0.4967  0.9693
11262TIP3    H255278   4.723   6.271  10.906 -0.5751 -0.7586  0.7752
11263TIP3   OH255279   6.691   4.885   3.245 -0.4575 -0.2917  0.3981
11263TIP3    H155280   6.766   4.827   3.234  0.0750  0.2608  1.0402
11263TIP3    H255281   6.693   4.910   3.337 -0.8813  0.4741  0.2071
11264TIP3   OH255282   4.394   2.581   1.355  0.1387  0.0099  0.7027
11264TIP3    H155283   4.371   2.499   1.312  2.3177  0.1330 -0.9013
11264TIP3    H255284   4.375   2.648   1.289  2.2906  0.3366  0.3446
11265TIP3   OH255285   2.484   5.141   4.595 -0.1477  0.0238 -0.4469
11265TIP3    H155286   2.505   5.168   4.685 -0.1916  0.0058 -0.4314
11265TIP3    H255287   2.530   5.058   4.584 -1.9666 -1.1512  0.3353
11266TIP3   OH255288   5.384   5.459   2.955 -0.0520 -0.9339 -0.2655
11266TIP3    H155289   5.327   5.415   3.019  0.2807 -2.4116 -0.9532
11266TIP3    H255290   5.470   5.461   2.997 -0.3636  0.4567  0.3811
11267TIP3   OH255291   3.268   6.676  10.159  0.2324 -0.1953 -0.3503
11267TIP3    H155292   3.317   6.758  10.152  0.1045  0.0449  1.1911
11267TIP3    H255293   3.267   6.657  10.253  0.6336 -2.1953 -0.7050
11268TIP3   OH255294   5.856   0.797   2.200  0.2520 -0.2765  0.6759
11268TIP3    H155295   5.872   0.766   2.111  1.7432 -0.4553  0.9908
11268TIP3    H255296   5.942   0.800   2.241 -0.3482  0.3179  1.9575
11269TIP3   OH255297   6.623   5.695  14.479 -0.0018  0.0310 -0.3384
11269TIP3    H155298   6.573   5.729  14.404 -0.1580  3.4499  1.1179
11269TIP3    H255299   6.557   5.653  14.534 -0.1423 -1.1295 -1.3602
11270TIP3   OH255300   1.116   0.581  15.684 -0.0488  1.1435  0.3219
11270TIP3    H155301   1.118   0.485  15.691  0.7634  0.8584 -2.3582
11270TIP3    H255302   1.196   0.610  15.727 -0.5075  0.6684  1.5178
11271TIP3   OH255303   0.554   6.499   3.125 -0.2441  0.1191 -0.4272
11271TIP3    H155304   0.604   6.469   3.201 -1.2270  1.1761  0.6777
11271TIP3    H255305   0.555   6.425   3.065 -1.1949 -1.5537  1.4860
11272TIP3   OH255306   4.500   5.668  16.747  0.4906 -0.0857  0.6836
11272TIP3    H155307   4.462   5.616  16.817 -0.6285  0.3849  0.4461
11272TIP3    H255308   4.493   5.613  16.669  0.2017  0.0293  0.6245
11273TIP3   OH255309   2.528   2.565  17.162 -0.0458  0.0324  0.1626
11273TIP3    H155310   2.622   2.569  17.178  0.4082 -1.6818 -1.7216
11273TIP3    H255311   2.492   2.639  17.212  2.0563 -0.2667  2.3108
11274TIP3   OH255312   3.864   4.862  15.214  0.9110  0.1297 -0.1615
11274TIP3    H155313   3.842   4.901  15.298  0.9549 -0.4105  0.1081
11274TIP3    H255314   3.780   4.847  15.172  0.8190 -0.6530  0.2788
11275TIP3   OH255315   1.745   1.035   4.983 -0.3417 -0.6008 -0.7505
11275TIP3    H155316   1.704   1.075   4.906 -0.4439  0.7233 -0.0450
11275TIP3    H255317   1.820   1.091   5.002 -0.2580 -0.9693  0.0357
11276TIP3   OH255318   4.805   1.398  14.099 -0.3905  0.0439 -0.3838
11276TIP3    H155319   4.724   1.378  14.145 -0.5827  0.9497 -0.2943
11276TIP3    H255320   4.852   1.315  14.094 -0.6339 -0.1879  0.9144
11277TIP3   OH255321   4.905   2.591  13.402  0.3022  0.4488 -0.9052
11277TIP3    H155322   4.883   2.601  13.309  0.6212 -1.4308 -1.2047
11277TIP3    H255323   4.991   2.550  13.402  1.3288  2.4602  0.2708
11278TIP3   OH255324   2.794   2.792  13.905  0.0769 -0.3037  0.3229
11278TIP3    H155325   2.879   2.820  13.873  0.4621 -2.8384 -1.1780
11278TIP3    H255326   2.732   2.856  13.870  1.2570  1.1288  0.7816
11279TIP3   OH255327   5.519   2.453   0.432 -0.1466 -0.3452 -0.1301
11279TIP3    H155328   5.577   2.498   0.371 -0.7967  0.6072 -0.0633
11279TIP3    H255329   5.431   2.477   0.404 -0.4626  1.6115  2.2486
11280TIP3   OH255330   5.108   5.693  16.269  0.5553 -0.7765  0.0825
11280TIP3    H155331   5.109   5.733  16.182 -0.6442 -1.8948 -0.4843
11280TIP3    H255332   5.155   5.610  16.258  1.5646 -0.3295  0.8445
11281TIP3   OH255333   4.581   1.588  11.539  0.3098 -0.4484  0.5509
11281TIP3    H155334   4.500   1.638  11.535 -0.3175 -1.5260 -1.7325
11281TIP3    H255335   4.650   1.654  11.545 -0.6030  0.6000 -0.2670
11282TIP3   OH255336   6.538   5.900  11.824 -0.0440 -0.0333  0.0129
11282TIP3    H155337   6.444   5.919  11.819  0.3530  1.9922 -1.4290
11282TIP3    H255338   6.548   5.816  11.779 -1.0638  0.2401 -0.7681
11283TIP3   OH255339   4.803   4.167  12.083  0.1472 -0.6010 -0.3843
11283TIP3    H155340   4.859   4.245  12.082 -0.3051 -0.2828 -0.9845
11283TIP3    H255341   4.717   4.199  12.108  0.0957 -1.0045 -0.0363
11284TIP3   OH255342   0.318   0.064   2.054  0.0408 -0.0123 -0.0986
11284TIP3    H155343   0.226   0.063   2.027  0.2831  0.8535 -1.0467
11284TIP3    H255344   0.334  -0.024   2.087 -0.9101 -0.4312 -0.6947
11285TIP3   OH255345   3.891   0.435   0.140  0.1802 -0.1213 -1.0060
11285TIP3    H155346   3.849   0.432   0.054 -1.5758 -1.1947 -0.1718
11285TIP3    H255347   3.942   0.516   0.139  1.1378 -0.6733 -3.4422
11286TIP3   OH255348   3.699   5.429   0.840  0.1767 -0.0626  0.2248
11286TIP3    H155349   3.681   5.439   0.934 -0.5199 -1.3825  0.2649
11286TIP3    H255350   3.739   5.511   0.814 -1.8626  1.3203  1.1643
11287TIP3   OH255351   4.688   1.287   5.316 -0.1135  0.8869 -0.0086
11287TIP3    H155352   4.615   1.264   5.373  0.1209  0.9541  0.3142
11287TIP3    H255353   4.646   1.307   5.231 -0.3811 -0.0455 -0.1039
11288TIP3   OH255354   0.628   1.539  14.047  0.4891  0.2807 -0.0527
11288TIP3    H155355   0.692   1.517  13.980 -0.4858 -2.0814 -0.3216
11288TIP3    H255356   0.663   1.617  14.091  2.0478  0.7745 -2.0685
11289TIP3   OH255357   4.929   2.141  11.717 -0.1756 -0.5543  0.3112
11289TIP3    H155358   4.876   2.216  11.742 -1.9709 -1.1048 -1.6026
11289TIP3    H255359   4.914   2.077  11.787  0.8535  0.5634  1.6112
11290TIP3   OH255360   3.171   0.380  11.439  0.6792 -0.7184 -0.1057
11290TIP3    H155361   3.174   0.363  11.533 -0.3946 -0.0546  0.0619
11290TIP3    H255362   3.235   0.319  11.401  0.7545 -1.3378  0.9935
11291TIP3   OH255363   0.302   0.156  12.217 -0.0988 -0.3319 -0.3083
11291TIP3    H155364   0.243   0.120  12.151 -1.3325  0.4682  0.3050
11291TIP3    H255365   0.272   0.116  12.299 -1.5501  2.0430  0.3993
11292TIP3   OH255366   4.249   2.032  15.248 -0.5890  0.1733  0.3338
11292TIP3    H155367   4.248   2.114  15.298 -0.9522  0.8479 -0.7491
11292TIP3    H255368   4.159   2.023  15.217 -0.1627  0.2645 -0.9754
11293TIP3   OH255369   4.471   3.196  16.683  0.4668 -0.2800 -0.2754
11293TIP3    H155370   4.449   3.206  16.776  1.2228 -0.4881 -0.0672
11293TIP3    H255371   4.428   3.115  16.657  0.6597 -0.4780  0.0196
11294TIP3   OH255372   0.002   2.844   1.974  0.0535 -0.2618 -0.0210
11294TIP3    H155373   0.050   2.856   2.056  0.2440 -0.3910 -0.1116
11294TIP3    H255374  -0.000   2.749   1.962  0.7526 -0.2121 -0.5867
11295TIP3   OH255375   3.078   5.416  10.306 -0.6040 -0.3672 -0.1020
11295TIP3    H155376   3.071   5.322  10.322 -0.7526 -0.4463 -0.5941
11295TIP3    H255377   3.149   5.424  10.242 -1.6499 -0.3078 -1.3015
11296TIP3   OH255378   4.552   2.197   0.261 -0.3250  0.3958 -0.0038
11296TIP3    H155379   4.624   2.143   0.294 -0.1602  1.4025  1.3854
11296TIP3    H255380   4.565   2.282   0.303 -0.8600  1.3857 -1.7469
11297TIP3   OH255381   0.203   5.222  13.469  0.0559  0.4886 -0.2041
11297TIP3    H155382   0.142   5.159  13.432  1.5134 -1.1133 -0.0114
11297TIP3    H255383   0.182   5.222  13.563  1.0934 -0.9992  0.0652
11298TIP3   OH255384   1.882   6.468   4.849 -0.3009  0.3377  0.3870
11298TIP3    H155385   1.943   6.474   4.923 -0.4412  0.1116  0.5202
11298TIP3    H255386   1.854   6.376   4.848  0.6474  0.0209 -0.6970
11299TIP3   OH255387   1.220   3.568   0.420 -0.4211  0.4561  0.1776
11299TIP3    H155388   1.235   3.652   0.377 -0.0099  0.5684  0.5348
11299TIP3    H255389   1.300   3.552   0.470 -0.5253 -0.1166  0.1621
11300TIP3   OH255390   0.063   1.134  17.150  0.0994 -0.0228 -0.3164
11300TIP3    H155391   0.083   1.041  17.147  3.3075  0.5597 -2.0374
11300TIP3    H255392   0.039   1.156  17.060  0.8529  1.0352 -0.2790
11301TIP3   OH255393   4.331   0.727   6.330  0.3494  0.3474 -0.2479
11301TIP3    H155394   4.292   0.720   6.243 -0.7435  0.4331  0.2229
11301TIP3    H255395   4.331   0.820   6.349 -2.4972  0.1697  1.1616
11302TIP3   OH255396   0.025   0.780   5.003  0.8477 -0.3928  0.3941
11302TIP3    H155397   0.077   0.856   4.975 -0.6509  0.4516 -0.2034
11302TIP3    H255398   0.049   0.711   4.942  1.0628  0.0600 -0.0424
11303TIP3   OH255399   6.355   3.363  15.514 -0.4056  0.0589  0.0003
11303TIP3    H155400   6.301   3.424  15.564 -1.4589 -2.1743  1.7683
11303TIP3    H255401   6.311   3.357  15.429 -2.0607 -0.4366  0.8323
11304TIP3   OH255402   3.929   2.416  16.726 -0.1313  0.0759  0.6686
11304TIP3    H155403   3.889   2.428  16.812  0.2140  1.1977  0.6828
11304TIP3    H255404   3.914   2.323  16.706 -0.3144 -0.1761  1.8782
11305TIP3   OH255405   2.188   1.168  14.483 -0.1924  0.7249 -0.0260
11305TIP3    H155406   2.134   1.209  14.415  2.2238  1.7886 -1.4349
11305TIP3    H255407   2.258   1.231  14.500 -0.4861  0.3534  3.2888
11306TIP3   OH255408   0.016   1.231   2.220  0.5476  0.2782  0.1588
11306TIP3    H155409   0.096   1.241   2.169  1.3016  1.1525  1.4612
11306TIP3    H255410  -0.036   1.308   2.200  0.5037  0.2389  0.1209
11307TIP3   OH255411   3.042   6.182  16.802  0.1000  0.5027  0.0365
11307TIP3    H155412   3.120   6.235  16.788  0.0797  1.1627  2.0676
11307TIP3    H255413   3.064   6.097  16.764  0.7973  1.4069 -1.7138
11308TIP3   OH255414   4.460   4.019   0.371 -0.4200  0.2989 -0.1213
11308TIP3    H155415   4.396   4.033   0.302  1.0176  1.4196 -1.2855
11308TIP3    H255416   4.481   4.107   0.403  1.1746  0.0337 -0.3735
11309TIP3   OH255417   5.680   0.587   2.264  0.3196 -0.5002  0.0958
11309TIP3    H155418   5.715   0.531   2.195  2.9382 -0.5775  1.3620
11309TIP3    H255419   5.733   0.666   2.260  1.6659 -1.1342  2.9420
11310TIP3   OH255420   2.452   1.456  13.351  0.2940  0.2970  0.3392
11310TIP3    H155421   2.396   1.460  13.429 -1.5544  1.7599 -0.9729
11310TIP3    H255422   2.418   1.383  13.301 -0.4000  1.1121 -0.4047
11311TIP3   OH255423   5.945   1.073   1.433  0.3156  0.3696 -0.1840
11311TIP3    H155424   5.980   1.045   1.518 -0.8518 -0.1782  0.1384
11311TIP3    H255425   5.934   1.168   1.442  1.0662  0.4501 -0.0583
11312TIP3   OH255426   1.074   1.555   1.975  0.1572 -0.6299 -0.0090
11312TIP3    H155427   1.070   1.648   1.951  0.4086 -0.3148  1.0967
11312TIP3    H255428   0.983   1.526   1.972  0.2414 -0.8160 -2.0205
11313TIP3   OH255429   5.495   3.637   2.012 -0.1169  0.8447  0.4245
11313TIP3    H155430   5.578   3.645   2.059 -0.4334  1.5804  0.8885
11313TIP3    H255431   5.463   3.550   2.034  0.9428  0.2058 -0.4718
11314TIP3   OH255432   3.210   3.701   5.587  0.7791 -0.5142  0.5139
11314TIP3    H155433   3.131   3.645   5.586 -0.3462  1.0231  0.1127
11314TIP3    H255434   3.250   3.687   5.502 -0.8530  1.0873 -0.5817
11315TIP3   OH255435   3.376   6.469  10.830  0.1388 -0.0273 -0.0498
11315TIP3    H155436   3.315   6.397  10.816 -0.0155  0.2965 -1.1382
11315TIP3    H255437   3.433   6.467  10.754  0.5096  0.6354  0.2024
11316TIP3   OH255438   0.373   1.703  16.776 -0.7792  0.3379 -0.0380
11316TIP3    H155439   0.318   1.647  16.831 -1.9526  0.9925 -0.5219
11316TIP3    H255440   0.386   1.782  16.828  0.2106 -0.0388  0.3121
11317TIP3   OH255441   4.988   5.839  12.941 -0.4480 -0.3750 -0.1348
11317TIP3    H155442   5.084   5.838  12.933 -0.3250 -2.1684  0.9263
11317TIP3    H255443   4.972   5.821  13.033 -1.8038 -2.3225 -0.6963
11318TIP3   OH255444   4.448   1.553   1.808 -0.1199 -0.2302 -0.0421
11318TIP3    H155445   4.357   1.532   1.830 -0.4815  1.4063  0.1097
11318TIP3    H255446   4.462   1.641   1.842  1.2229 -0.0617 -0.9534
11319TIP3   OH255447   0.621   0.586   0.453  0.7324  0.5249  0.0594
11319TIP3    H155448   0.539   0.626   0.422 -0.7431 -3.0288 -1.2340
11319TIP3    H255449   0.606   0.571   0.546  0.1227  0.4555 -0.0435
11320TIP3   OH255450   3.229   3.624   0.235 -0.1908 -0.1378 -0.1954
11320TIP3    H155451   3.190   3.542   0.206  1.7561 -1.1465 -0.0629
11320TIP3    H255452   3.155   3.673   0.272 -1.5242 -1.4851 -0.9451
11321TIP3   OH255453   1.628   1.960  16.208 -0.2440  0.4804 -0.4208
11321TIP3    H155454   1.591   2.023  16.270  0.3527  0.3183  0.1149
11321TIP3    H255455   1.625   1.876  16.254  0.6304  0.4380 -0.4182
11322TIP3   OH255456   3.058   5.898   2.530 -0.1339  0.2049 -0.2356
11322TIP3    H155457   3.123   5.953   2.574 -0.6649  2.1652 -1.7450
11322TIP3    H255458   3.023   5.842   2.600  1.3942  0.8401  1.1119
11323TIP3   OH255459   1.122   0.148   3.251 -0.3466  0.0204 -0.5346
11323TIP3    H155460   1.063   0.185   3.185  2.1372  1.8147 -1.9005
11323TIP3    H255461   1.142   0.060   3.220  1.3917  1.0948 -2.7290
11324TIP3   OH255462   6.281   5.290   4.946  0.4629 -0.6000  0.3306
11324TIP3    H155463   6.284   5.203   4.986  0.2567 -0.6696  0.1897
11324TIP3    H255464   6.322   5.347   5.012  0.3303 -0.7531  0.5479
11325TIP3   OH255465   3.009   0.159  12.755 -0.1800  0.4692 -0.6086
11325TIP3    H155466   2.944   0.100  12.792  3.1676 -2.9656  0.4335
11325TIP3    H255467   3.006   0.142  12.661  1.2389 -2.1925 -0.2655
11326TIP3   OH255468   5.404   5.106   2.951 -0.4226 -0.3776 -0.3603
11326TIP3    H155469   5.480   5.148   2.911  1.8410 -3.3291  0.4924
11326TIP3    H255470   5.398   5.145   3.038  0.2028 -0.2073 -0.3926
11327TIP3   OH255471   6.324   4.996   4.920  0.3803 -0.1086  0.5302
11327TIP3    H155472   6.371   4.951   4.850  2.0981  0.1524  1.4517
11327TIP3    H255473   6.318   4.931   4.990  0.6115  0.3152  0.9424
11328TIP3   OH255474   2.410   6.172  13.684 -0.0949  0.1320 -0.0274
11328TIP3    H155475   2.431   6.228  13.758  0.6597 -1.3852  0.9500
11328TIP3    H255476   2.460   6.092  13.699 -3.0373 -1.8791  0.0352
11329TIP3   OH255477   0.637   0.021   0.763 -0.6565 -0.3414  0.3567
11329TIP3    H155478   0.559  -0.026   0.734  0.0413 -0.6816 -1.0368
11329TIP3    H255479   0.697  -0.048   0.793 -0.5396 -0.1467  0.5765
11330TIP3   OH255480   1.324   6.088  15.125  0.2087  0.2242 -0.0638
11330TIP3    H155481   1.396   6.057  15.180 -0.4922 -0.7557  0.3319
11330TIP3    H255482   1.304   6.176  15.158 -1.0019 -0.7974  2.1203
11331TIP3   OH255483   2.651   5.262   1.917 -0.1297 -0.4320  0.5247
11331TIP3    H155484   2.622   5.340   1.965 -0.6698 -0.4441  0.2273
11331TIP3    H255485   2.574   5.235   1.867  0.2649 -0.7478  0.0840
11332TIP3   OH255486   1.316   4.135   4.070 -0.7962  0.5756  0.1630
11332TIP3    H155487   1.247   4.201   4.062 -0.4681  1.3325  2.8286
11332TIP3    H255488   1.313   4.107   4.161  0.2573 -1.8365 -0.4655
11333TIP3   OH255489   5.097   1.169  15.066  0.1797  0.2972  0.0239
11333TIP3    H155490   5.168   1.156  15.003  0.6054 -2.0319  0.8641
11333TIP3    H255491   5.072   1.080  15.092 -4.7844  0.7779 -2.0092
11334TIP3   OH255492   4.691   1.260   2.082 -0.4317  0.1327  0.3180
11334TIP3    H155493   4.607   1.306   2.083 -1.0480 -0.2936 -4.7168
11334TIP3    H255494   4.667   1.168   2.070  0.7035  0.0020 -1.0964
11335TIP3   OH255495   6.336   3.692   3.008  0.0336 -0.2383 -0.2289
11335TIP3    H155496   6.364   3.737   2.928  2.1160 -1.2060 -0.1018
11335TIP3    H255497   6.336   3.760   3.075  0.0510  0.2010 -0.6656
11336TIP3   OH255498   2.853   5.551  15.547 -0.1811 -0.2661 -0.4567
11336TIP3    H155499   2.838   5.460  15.523  0.9571 -0.7571  0.5464
11336TIP3    H255500   2.901   5.588  15.474  0.6421 -0.9001 -0.2543
11337TIP3   OH255501   2.896   3.672   0.481 -0.1019  0.4876  0.9697
11337TIP3    H155502   2.857   3.609   0.421  2.0444  0.4853 -0.5160
11337TIP3    H255503   2.900   3.754   0.431 -1.2563  1.4013  2.2816
11338TIP3   OH255504   5.809   2.903  10.938 -0.3118 -0.4824 -0.1262
11338TIP3    H155505   5.739   2.949  10.892  0.5146 -0.7591 -1.7121
11338TIP3    H255506   5.885   2.910  10.881  0.7969 -0.7511  1.2649
11339TIP3   OH255507   4.473   1.425   2.060  0.0589 -0.1240  0.1128
11339TIP3    H155508   4.549   1.479   2.083 -0.9867  1.0859  0.8362
11339TIP3    H255509   4.453   1.450   1.969  1.7728 -2.0177 -0.8785
11340TIP3   OH255510   1.912   0.413   2.913 -0.0490  0.4349 -0.0293
11340TIP3    H155511   1.962   0.348   2.963  0.2029  0.2432 -0.5212
11340TIP3    H255512   1.921   0.493   2.963  1.3538  0.5744 -0.4536
11341TIP3   OH255513   2.962   2.155  14.661 -0.8551 -0.3035 -0.0568
11341TIP3    H155514   2.896   2.139  14.729 -1.2241 -1.9033 -0.7472
11341TIP3    H255515   2.911   2.187  14.586 -0.7893 -0.9765 -0.3976
11342TIP3   OH255516   3.348   0.957   1.165  0.4197 -0.2730 -0.1427
11342TIP3    H155517   3.358   0.863   1.179 -0.6425 -0.5834 -1.3203
11342TIP3    H255518   3.254   0.971   1.161  0.4311  1.2261  2.2576
11343TIP3   OH255519   1.312   1.456  12.923  0.4780 -0.5444  0.8015
11343TIP3    H155520   1.361   1.398  12.864 -1.1285 -0.5682 -0.5848
11343TIP3    H255521   1.318   1.413  13.009  3.1111 -0.3673  0.7974
11344TIP3   OH255522   6.258   0.324   3.783  0.2848  0.3774  0.3972
11344TIP3    H155523   6.248   0.418   3.766  1.0125  0.5292  0.7573
11344TIP3    H255524   6.257   0.316   3.878  0.3536  0.0321  0.3712
11345TIP3   OH255525   6.356   5.978  15.577  0.0839 -0.4176  0.1762
11345TIP3    H155526   6.312   5.949  15.497  1.8824 -0.9001 -0.6955
11345TIP3    H255527   6.359   5.899  15.632  1.9498 -1.0872 -0.7866
11346TIP3   OH255528   5.470   6.352  15.061  0.1814  0.0221  1.2255
11346TIP3    H155529   5.412   6.353  15.137  0.3168  2.6074  1.3675
11346TIP3    H255530   5.552   6.388  15.093  0.3703  0.7728 -0.0474
11347TIP3   OH255531   5.844   0.722  12.974  0.0560  0.1830  0.2155
11347TIP3    H155532   5.839   0.817  12.973 -2.4070  0.1125 -0.9437
11347TIP3    H255533   5.774   0.694  13.032 -0.4750 -0.9284 -0.8965
11348TIP3   OH255534   1.823   5.235  13.003  0.1237  0.1747 -0.4292
11348TIP3    H155535   1.768   5.166  13.040  0.1956  1.2371  1.8497
11348TIP3    H255536   1.845   5.204  12.915  1.2526 -3.3255  0.9262
11349TIP3   OH255537   6.165   2.702   4.567 -0.4957 -0.2268  0.1871
11349TIP3    H155538   6.174   2.798   4.568 -0.3291 -0.2173 -1.0060
11349TIP3    H255539   6.225   2.672   4.635  2.5548  0.3235 -2.0504
11350TIP3   OH255540   1.838   0.971  16.935 -0.0191 -0.4409  0.1172
11350TIP3    H155541   1.822   1.055  16.892 -2.4331 -0.9551 -0.1237
11350TIP3    H255542   1.751   0.942  16.965  0.9511 -2.1709  1.4886
11351TIP3   OH255543   6.415   0.234  11.763  0.2671 -0.2475 -0.2009
11351TIP3    H155544   6.461   0.151  11.776 -0.3794 -0.5311  0.3453
11351TIP3    H255545   6.359   0.219  11.687 -0.4327 -0.5897  0.3622
11352TIP3   OH255546   3.826   4.177   1.901  0.0276  0.0639 -0.3013
11352TIP3    H155547   3.919   4.187   1.919 -0.1254  0.4776  0.2810
11352TIP3    H255548   3.785   4.255   1.938 -0.3861  0.6231 -1.8925
11353TIP3   OH255549   5.491   1.644  13.729  0.6204  0.1949  0.2196
11353TIP3    H155550   5.582   1.618  13.719  0.6720  0.5374 -0.2707
11353TIP3    H255551   5.463   1.665  13.640 -0.2143 -0.8180  0.2285
11354TIP3   OH255552   1.639   0.372   2.845  0.1596 -0.1649 -0.2008
11354TIP3    H155553   1.720   0.421   2.832 -0.1452  0.4180  0.0420
11354TIP3    H255554   1.659   0.308   2.913  1.0242 -1.4794 -1.6338
11355TIP3   OH255555   3.130   3.249   0.261 -0.6487 -0.0877  1.0542
11355TIP3    H155556   3.152   3.312   0.329  2.3905  0.5883 -0.3552
11355TIP3    H255557   3.094   3.301   0.190 -0.8564 -0.3407  0.9716
11356TIP3   OH255558   4.798   5.595  14.071  0.0632 -0.4844  0.2387
11356TIP3    H155559   4.893   5.597  14.061  0.1620 -2.4114  0.3687
11356TIP3    H255560   4.770   5.521  14.016 -1.1581 -1.0261  1.5273
11357TIP3   OH255561   1.149   6.222  14.786  0.1402 -0.3773  0.2222
11357TIP3    H155562   1.113   6.310  14.788 -1.2629 -0.8121 -2.0227
11357TIP3    H255563   1.197   6.218  14.703  1.8964 -1.1414  1.2210
11358TIP3   OH255564   5.936   5.857  15.459 -0.3386 -0.3623  0.0481
11358TIP3    H155565   5.905   5.910  15.533  0.0682 -0.6422  0.4210
11358TIP3    H255566   5.975   5.780  15.499 -1.8725 -1.4793 -0.5213
11359TIP3   OH255567   3.113   1.821  16.236 -0.2784 -0.1230 -0.4293
11359TIP3    H155568   3.161   1.741  16.214  0.8456  0.1706  0.8531
11359TIP3    H255569   3.099   1.864  16.152  1.1767 -0.5252 -0.9120
11360TIP3   OH255570   0.918   1.626  11.851 -0.4533  0.7272  0.0651
11360TIP3    H155571   0.920   1.676  11.769 -2.8686  0.1424 -0.4384
11360TIP3    H255572   0.958   1.684  11.916 -0.7996  2.2437 -1.0219
11361TIP3   OH255573   6.755   2.515   2.192 -0.1902 -0.3933 -0.0366
11361TIP3    H155574   6.779   2.528   2.100 -0.8927 -0.7659 -0.2786
11361TIP3    H255575   6.834   2.541   2.240  0.1434 -0.0613 -0.7308
11362TIP3   OH255576   2.114   5.445  11.879  0.1721 -0.0634  0.3425
11362TIP3    H155577   2.091   5.482  11.794  0.3011 -1.0155 -0.1291
11362TIP3    H255578   2.055   5.488  11.942 -1.3092 -0.7528 -0.5058
11363TIP3   OH255579   6.177   3.957   4.622  0.1120  0.1215  0.3143
11363TIP3    H155580   6.114   3.937   4.691  2.0271  2.7757  3.1149
11363TIP3    H255581   6.234   3.880   4.620 -1.2909 -0.9493  0.0060
11364TIP3   OH255582   6.149   2.100  17.089 -1.0377  0.1254  0.1343
11364TIP3    H155583   6.201   2.046  17.029 -0.6418 -1.7308  2.0183
11364TIP3    H255584   6.174   2.190  17.068  0.7047 -0.5635 -1.0155
11365TIP3   OH255585   2.112   0.016  15.503  1.0987  0.0754  0.0049
11365TIP3    H155586   2.166   0.017  15.582  1.2782 -1.9642 -0.0352
11365TIP3    H255587   2.128  -0.070  15.464  0.4659  0.7716 -1.8896
11366TIP3   OH255588   4.791   1.502  13.627 -0.3911  0.3061 -0.1909
11366TIP3    H155589   4.793   1.413  13.590 -0.2639 -0.0413  0.6364
11366TIP3    H255590   4.768   1.489  13.719 -1.6405  1.2369 -0.3484
11367TIP3   OH255591   1.644   2.365   0.813  0.6159 -0.3638  0.2133
11367TIP3    H155592   1.647   2.452   0.774  2.4439 -0.1456  0.7647
11367TIP3    H255593   1.649   2.304   0.739 -0.3510 -0.0270 -0.1485
11368TIP3   OH255594   6.312   2.933  17.061  0.5714 -0.4495  0.1796
11368TIP3    H155595   6.265   2.877  16.999  1.0317 -1.6132  0.8375
11368TIP3    H255596   6.404   2.926  17.035  0.8078 -1.1884  1.1449
11369TIP3   OH255597   5.487   3.027  12.237 -0.0827  0.0065 -0.4709
11369TIP3    H155598   5.417   2.965  12.260  1.2557 -1.0256  1.0478
11369TIP3    H255599   5.541   2.980  12.173 -0.1471  0.3690 -0.7952
11370TIP3   OH255600   2.631   4.915   4.548  0.3862 -0.4922 -0.5469
11370TIP3    H155601   2.726   4.902   4.554  0.0666 -2.3976  1.5596
11370TIP3    H255602   2.599   4.836   4.504 -0.3163 -0.2888 -0.4037
11371TIP3   OH255603   2.890   5.808  10.178 -0.1533 -0.4630  0.0965
11371TIP3    H155604   2.824   5.843  10.237  0.4827  0.5186  0.2454
11371TIP3    H255605   2.907   5.879  10.116  2.4327  0.2369  1.4520
11372TIP3   OH255606   0.863   6.127   1.580  0.0774  0.6231 -0.5525
11372TIP3    H155607   0.954   6.144   1.607  0.1360  0.1894 -0.4770
11372TIP3    H255608   0.840   6.045   1.624 -1.3021  2.1307  1.7555
11373TIP3   OH255609   3.580   3.757   0.571  0.9849 -0.7916  0.1293
11373TIP3    H155610   3.520   3.826   0.598  0.9642 -1.5805  2.2569
11373TIP3    H255611   3.664   3.801   0.560  0.2048  0.2537 -2.4985
11374TIP3   OH255612   1.666   4.805   0.241 -0.1250 -0.6311 -0.4911
11374TIP3    H155613   1.600   4.776   0.304 -0.6149 -0.2540 -0.8305
11374TIP3    H255614   1.663   4.900   0.246  3.2644 -0.4506  2.5333
11375TIP3   OH255615   2.517   4.797  12.474 -0.0659 -0.2090 -0.6643
11375TIP3    H155616   2.487   4.809  12.565 -0.1989  0.7233 -0.8213
11375TIP3    H255617   2.440   4.815  12.421 -0.3372 -2.0259 -0.9410
11376TIP3   OH255618   0.455   0.862  15.450  0.2699  0.2830  0.1112
11376TIP3    H155619   0.511   0.791  15.481 -0.1059 -0.2094 -0.3236
11376TIP3    H255620   0.374   0.819  15.423 -0.1665  0.9452  0.3496
11377TIP3   OH255621   3.357   0.991  14.476 -0.3482  0.4270  0.0520
11377TIP3    H155622   3.400   1.048  14.541  0.5257 -0.5719  0.3787
11377TIP3    H255623   3.264   1.001  14.495 -0.1459  0.7324  0.9799
11378TIP3   OH255624   0.769   2.280  15.124 -0.0643  0.4584  0.7091
11378TIP3    H155625   0.741   2.217  15.190 -0.6797  0.1095  0.1237
11378TIP3    H255626   0.741   2.365  15.159 -0.6902  0.2432  0.7434
11379TIP3   OH255627   0.098   0.261  17.091 -0.1160  0.4650  0.3310
11379TIP3    H155628   0.084   0.325  17.162 -0.3381 -0.2177  0.9119
11379TIP3    H255629   0.116   0.179  17.136  2.1903  0.5017 -0.3938
11380TIP3   OH255630   6.562   6.348   5.723 -0.0436 -0.5341 -0.1979
11380TIP3    H155631   6.470   6.376   5.720 -0.2033 -0.9354  0.6036
11380TIP3    H255632   6.609   6.417   5.677 -0.9859 -1.4429 -2.7224
11381TIP3   OH255633   1.049   0.286  12.658 -0.5098 -0.8429 -0.6700
11381TIP3    H155634   1.073   0.294  12.565  1.2574 -2.0389 -0.3726
11381TIP3    H255635   1.041   0.192  12.673 -1.9539 -0.6230  0.1549
11382TIP3   OH255636   4.806   0.902  16.162 -0.1422 -0.0753  0.0461
11382TIP3    H155637   4.773   0.865  16.244 -0.2171 -0.4183 -0.1333
11382TIP3    H255638   4.775   0.992  16.162  0.0202 -0.0170  0.4818
11383TIP3   OH255639   3.627   1.535   5.106 -0.0005  0.1255 -0.1924
11383TIP3    H155640   3.622   1.440   5.100 -0.5223 -0.0191  1.7360
11383TIP3    H255641   3.720   1.555   5.093  0.0736 -0.6086 -0.8511
11384TIP3   OH255642   0.490   5.334  15.394 -0.9678  0.5180  0.3634
11384TIP3    H155643   0.542   5.414  15.383  0.7233 -0.3662  1.5151
11384TIP3    H255644   0.441   5.348  15.475 -0.5460  0.3249  0.6527
11385TIP3   OH255645   2.492   6.742  14.285  0.3732 -0.2880 -0.6013
11385TIP3    H155646   2.502   6.789  14.367 -2.2541  1.4117 -1.1386
11385TIP3    H255647   2.581   6.738  14.248  1.1360  1.6683  0.8592
11386TIP3   OH255648   4.334   3.011  15.052  0.3740 -0.2724 -0.6808
11386TIP3    H155649   4.309   2.936  14.997 -0.3236 -1.3766  1.0537
11386TIP3    H255650   4.373   2.971  15.130 -0.2410  1.1570  0.3940
11387TIP3   OH255651   5.220   0.728   5.603  0.3034 -0.1623 -0.4121
11387TIP3    H155652   5.224   0.718   5.508 -0.5340 -1.2910 -0.3540
11387TIP3    H255653   5.223   0.638   5.636 -0.9831  0.1227  0.5503
11388TIP3   OH255654   2.622   1.287   0.201 -0.0178  0.1692 -0.1236
11388TIP3    H155655   2.652   1.288   0.110  0.7002 -0.5531  0.0922
11388TIP3    H255656   2.603   1.379   0.221  1.8656  0.6541 -0.3648
11389TIP3   OH255657   1.192   0.334  15.780  0.0341 -0.1428 -0.0821
11389TIP3    H155658   1.154   0.373  15.859 -1.3574 -0.1901 -0.7064
11389TIP3    H255659   1.266   0.282  15.812 -0.4916 -0.1306  1.1846
11390TIP3   OH255660   3.693   1.009   0.064 -0.2913 -0.6704  0.2393
11390TIP3    H155661   3.756   0.954   0.017  1.4839  0.8590  0.7430
11390TIP3    H255662   3.746   1.073   0.111 -2.0743 -0.9477  2.8783
11391TIP3   OH255663   4.277   5.230   3.178 -0.3934  0.2804  0.7857
11391TIP3    H155664   4.369   5.208   3.161 -0.4969 -1.1588  1.9560
11391TIP3    H255665   4.279   5.323   3.201  0.7571  0.2911  0.7028
11392TIP3   OH255666   4.571   6.203  13.300 -0.4845  0.2741 -0.1763
11392TIP3    H155667   4.666   6.205  13.309 -0.6602  0.9920  1.9991
11392TIP3    H255668   4.547   6.295  13.285 -0.9193  0.2911  0.5883
11393TIP3   OH255669   1.062   4.264   4.141 -0.2260  0.4218  0.2024
11393TIP3    H155670   1.017   4.180   4.141  0.6654 -0.0743 -0.2840
11393TIP3    H255671   1.017   4.316   4.075 -0.7013  0.2835  0.4139
11394TIP3   OH255672   5.085   6.205  10.896  0.2488  0.1710  0.1856
11394TIP3    H155673   5.029   6.248  10.832 -0.6488 -0.5797  0.4499
11394TIP3    H255674   5.032   6.202  10.976 -0.4714 -2.9734 -0.2728
11395TIP3   OH255675   3.493   0.052   1.074  0.0632  0.2923 -0.3002
11395TIP3    H155676   3.558   0.071   1.007 -0.9476 -0.6025 -1.5685
11395TIP3    H255677   3.415   0.025   1.026 -1.1767  1.0355  1.1905
11396TIP3   OH255678   6.800   4.714  13.043  0.6682 -0.6093 -0.2692
11396TIP3    H155679   6.781   4.621  13.025  0.3674 -0.5686 -0.1682
11396TIP3    H255680   6.887   4.727  13.007  0.8311 -1.0062 -0.0293
11397TIP3   OH255681   2.017   5.139   2.329 -0.5955  0.2143 -0.8200
11397TIP3    H155682   2.023   5.153   2.235  1.9862  3.8891 -0.3274
11397TIP3    H255683   1.940   5.188   2.356 -0.7332  0.0377 -0.8915
11398TIP3   OH255684   5.678   4.401   0.729  0.6626  0.3423 -0.0211
11398TIP3    H155685   5.650   4.312   0.707 -3.0895  1.2104  0.4258
11398TIP3    H255686   5.667   4.407   0.824  0.6746  1.3158 -0.0680
11399TIP3   OH255687   4.366   3.803  11.568 -0.2545  0.4543 -0.2337
11399TIP3    H155688   4.438   3.849  11.525 -0.5273  0.9644 -0.1508
11399TIP3    H255689   4.327   3.868  11.627 -0.4294  0.0173  0.1461
11400TIP3   OH255690   5.597   4.834  11.318  0.4637 -1.1449  0.3891
11400TIP3    H155691   5.605   4.773  11.244 -1.1743 -0.3539 -0.4856
11400TIP3    H255692   5.610   4.921  11.278  1.6131 -0.8061  1.4207
11401TIP3   OH255693   1.898   6.418   0.408 -0.0721  0.1791  0.2672
11401TIP3    H155694   1.925   6.494   0.356  0.8246  0.4334  1.0770
11401TIP3    H255695   1.831   6.452   0.467  0.3321  0.3497  0.6323
11402TIP3   OH255696   0.043   5.125   3.048 -0.3773  0.0135  0.0058
11402TIP3    H155697  -0.014   5.129   3.125 -0.5967 -0.5875 -0.1247
11402TIP3    H255698   0.079   5.036   3.049 -0.9787 -0.2563 -1.0203
11403TIP3   OH255699   4.172   6.603  12.146  0.2556  0.2242  0.7632
11403TIP3    H155700   4.186   6.651  12.227  0.1393 -1.1068  1.6028
11403TIP3    H255701   4.103   6.540  12.166  2.2160 -2.1711  0.5971
11404TIP3   OH255702   0.531   0.656  15.884 -0.4692  0.2368  0.7355
11404TIP3    H155703   0.509   0.563  15.895 -0.6022  0.3811  1.7996
11404TIP3    H255704   0.462   0.690  15.827  0.2838 -0.5705 -0.7349
11405TIP3   OH255705   4.486   1.833   1.953 -0.4106  0.2207  0.7012
11405TIP3    H155706   4.559   1.813   2.011 -0.7724  0.4173  1.2268
11405TIP3    H255707   4.491   1.928   1.939 -0.5441  0.2298  0.7118
11406TIP3   OH255708   4.385   1.886  17.130 -0.4536  0.7344 -0.6085
11406TIP3    H155709   4.424   1.798  17.134 -1.0835  0.4895  0.8123
11406TIP3    H255710   4.453   1.944  17.165  0.2589  0.9598 -2.2696
11407TIP3   OH255711   1.676   2.822  16.767  0.0142 -0.0420 -0.6710
11407TIP3    H155712   1.739   2.849  16.834  1.3269 -0.9023 -1.5181
11407TIP3    H255713   1.683   2.888  16.698  0.3586 -0.3942 -0.9813
11408TIP3   OH255714   4.152   5.897   2.358 -0.0877 -0.2530 -0.6447
11408TIP3    H155715   4.160   5.821   2.417 -1.1143  0.7846  0.8999
11408TIP3    H255716   4.070   5.938   2.383  0.0698  0.9390 -1.9945
11409TIP3   OH255717   2.000   1.459  13.343  0.7895 -0.1366 -0.4637
11409TIP3    H155718   2.080   1.410  13.327  1.5891  0.3928  1.6123
11409TIP3    H255719   1.968   1.482  13.256  3.4557  0.5543 -1.3397
11410TIP3   OH255720   3.294   0.817  12.672 -0.2751 -0.0522  0.0416
11410TIP3    H155721   3.226   0.750  12.681 -1.4853  0.9730 -0.9094
11410TIP3    H255722   3.352   0.803  12.746  0.0244 -2.6789 -0.5886
11411TIP3   OH255723   6.557   0.614   4.417 -0.2375 -0.1240 -0.4045
11411TIP3    H155724   6.534   0.634   4.508 -0.2310  0.4434 -0.5231
11411TIP3    H255725   6.638   0.563   4.424 -1.1452 -1.5746 -0.0188
11412TIP3   OH255726   3.533   5.250   3.432  0.5272 -0.1374 -0.0917
11412TIP3    H155727   3.558   5.331   3.389 -0.2325 -0.1180 -0.5187
11412TIP3    H255728   3.539   5.183   3.364 -1.3122 -0.0013 -0.4575
11413TIP3   OH255729   6.109   2.268   1.879 -0.2486 -0.0942 -0.3923
11413TIP3    H155730   6.014   2.279   1.868 -0.3310 -0.5048 -0.0903
11413TIP3    H255731   6.128   2.182   1.841 -0.3247 -0.9369  1.3809
11414TIP3   OH255732   1.236   4.987   5.658 -0.5041 -0.3922  0.4121
11414TIP3    H155733   1.173   4.981   5.586 -0.3992 -2.3936  0.4362
11414TIP3    H255734   1.320   4.964   5.619 -0.4861 -1.7583  1.2022
11415TIP3   OH255735   4.207   4.331  14.999  0.5918  0.0131  0.1156
11415TIP3    H155736   4.248   4.244  14.998  1.4129  0.3714  1.2089
11415TIP3    H255737   4.117   4.315  14.971  1.1925 -0.9275 -1.3958
11416TIP3   OH255738   5.180   1.645  13.614  0.2782 -0.0365  0.0294
11416TIP3    H155739   5.194   1.551  13.612 -3.7390 -0.7818 -0.9952
11416TIP3    H255740   5.138   1.662  13.699  1.4620  0.9890  0.4513
11417TIP3   OH255741   4.038   6.781  16.447 -0.2290  0.3001 -0.1580
11417TIP3    H155742   4.012   6.819  16.363 -0.3823  2.7383  0.9090
11417TIP3    H255743   4.119   6.734  16.428 -1.1545 -0.6763 -1.9722
11418TIP3   OH255744   1.346   2.659  14.419  1.1815  0.4796  0.2642
11418TIP3    H155745   1.418   2.615  14.373  0.0347 -2.6233  1.1957
11418TIP3    H255746   1.381   2.745  14.441  4.0525 -0.3303 -0.6458
11419TIP3   OH255747   4.371   4.363   3.240 -0.1917 -0.0685  0.4516
11419TIP3    H155748   4.457   4.368   3.281  1.1355 -2.0234 -1.8411
11419TIP3    H255749   4.362   4.445   3.192  1.9987 -1.1729 -2.0384
11420TIP3   OH255750   2.205   0.894   0.680  0.6639 -0.6904  0.2809
11420TIP3    H155751   2.278   0.863   0.627  0.1500 -0.2153 -0.7359
11420TIP3    H255752   2.220   0.988   0.688  0.5429 -0.7036  0.6739
11421TIP3   OH255753   4.327   2.003  14.905 -0.0611  0.4675  0.0138
11421TIP3    H155754   4.247   2.001  14.853 -0.5954 -2.1714  0.7866
11421TIP3    H255755   4.396   1.973  14.846 -0.3974 -1.0698  0.3637
11422TIP3   OH255756   5.780   3.585   6.167  0.4495  0.2336 -0.1186
11422TIP3    H155757   5.771   3.539   6.251  0.1260  1.6272  0.6472
11422TIP3    H255758   5.875   3.598   6.158  0.3955  2.7844  1.6532
11423TIP3   OH255759   2.945   6.012  14.790  0.0913 -0.1831 -0.7355
11423TIP3    H155760   3.010   6.069  14.749  0.0048  1.1279  0.8288
11423TIP3    H255761   2.991   5.974  14.865 -0.0250 -1.8003 -1.4493
11424TIP3   OH255762   0.946   0.175   6.542 -0.2704 -0.0612  0.4772
11424TIP3    H155763   0.952   0.267   6.568  0.4327  0.4220 -1.2437
11424TIP3    H255764   0.977   0.126   6.619 -0.6748  1.1234  1.4234
11425TIP3   OH255765   5.322   6.208  12.454 -0.7195  0.1243 -0.6404
11425TIP3    H155766   5.374   6.143  12.501  1.8449  1.7034 -1.1022
11425TIP3    H255767   5.317   6.283  12.514 -2.1361  0.1864 -0.7895
11426TIP3   OH255768   4.987   0.694   3.162 -0.0331  0.7206  0.8774
11426TIP3    H155769   5.036   0.654   3.089 -0.0796  0.4645  0.9866
11426TIP3    H255770   4.904   0.647   3.163 -0.9535  2.2180 -0.3343
11427TIP3   OH255771   5.469   6.621   1.706 -0.4977 -0.2253  0.2660
11427TIP3    H155772   5.540   6.632   1.643 -2.0045 -0.4882 -1.5619
11427TIP3    H255773   5.436   6.709   1.721 -1.7701 -0.4033 -1.3285
11428TIP3   OH255774   1.448   6.276   2.695 -0.5243 -0.5601  0.1748
11428TIP3    H155775   1.511   6.207   2.676  1.6901  1.4129 -0.1037
11428TIP3    H255776   1.409   6.251   2.779  0.2852 -2.0720  0.1251
11429TIP3   OH255777   5.116   1.603  12.624 -0.2826  0.1801  0.6753
11429TIP3    H155778   5.097   1.610  12.530 -0.8719  0.9455  0.8424
11429TIP3    H255779   5.197   1.552  12.628  0.3962  1.1315 -0.3038
11430TIP3   OH255780   0.313   4.885   5.610 -0.3893 -0.0479  0.4673
11430TIP3    H155781   0.400   4.858   5.638 -0.9122  0.0950  2.4014
11430TIP3    H255782   0.324   4.975   5.579 -0.1474  0.7571  2.7120
11431TIP3   OH255783   4.266   3.741  16.634 -0.4062 -0.2836 -0.7497
11431TIP3    H155784   4.186   3.774  16.674 -0.7181 -2.0719  0.2209
11431TIP3    H255785   4.235   3.675  16.571  0.2564 -0.2633 -1.0993
11432TIP3   OH255786   4.823   4.521   3.938 -0.4880  0.6311  0.0046
11432TIP3    H155787   4.780   4.506   4.022 -2.1237  0.4660 -0.8167
11432TIP3    H255788   4.911   4.551   3.961 -0.8115  0.3633  1.7579
11433TIP3   OH255789   1.975   6.242  14.878 -0.0216  0.0344 -0.7341
11433TIP3    H155790   1.995   6.276  14.965  0.3700  0.8612 -1.1358
11433TIP3    H255791   1.906   6.300  14.844  0.5618  0.3763 -1.3732
11434TIP3   OH255792   6.160   3.059   3.052 -0.0099 -0.3748 -0.4520
11434TIP3    H155793   6.233   3.113   3.022  0.6739 -1.5229 -0.8829
11434TIP3    H255794   6.165   3.064   3.148 -0.4790  0.9856 -0.4656
11435TIP3   OH255795   4.854   2.663  15.698  0.1324 -0.1823 -0.2661
11435TIP3    H155796   4.873   2.573  15.672 -1.9441 -0.1927 -1.9802
11435TIP3    H255797   4.865   2.714  15.617 -2.5129  0.4436 -0.3093
11436TIP3   OH255798   3.672   2.061  14.494  0.1312 -0.4527  0.1915
11436TIP3    H155799   3.588   2.048  14.538 -0.3283  1.3751 -0.0463
11436TIP3    H255800   3.710   1.973  14.486 -1.7849 -1.3174  0.2127
11437TIP3   OH255801   0.222   5.590  12.240 -0.1103  0.0510 -0.1051
11437TIP3    H155802   0.238   5.630  12.325 -1.4845 -0.8166  0.5828
11437TIP3    H255803   0.134   5.619  12.215 -0.4079 -1.0590 -0.4221
11438TIP3   OH255804   3.826   1.471  11.647  0.0526 -0.3742  0.8608
11438TIP3    H155805   3.759   1.538  11.658  0.4601  0.4743 -1.2642
11438TIP3    H255806   3.906   1.511  11.681  0.2628  0.1984 -0.2585
11439TIP3   OH255807   2.823   5.485  14.657  0.0922  0.1934  0.3129
11439TIP3    H155808   2.870   5.507  14.737 -1.7143  2.0396  0.9401
11439TIP3    H255809   2.781   5.401  14.676 -1.0548  1.0428  1.6861
11440TIP3   OH255810   4.117   2.924  15.254 -0.5574  0.4564 -0.3844
11440TIP3    H155811   4.102   3.011  15.290 -0.7155 -0.7167  2.7308
11440TIP3    H255812   4.210   2.908  15.267 -0.6694 -0.0908 -0.2205
11441TIP3   OH255813   4.778   5.662  16.024 -0.5944 -0.2227 -0.2617
11441TIP3    H155814   4.828   5.652  15.943 -0.8506  0.8595 -0.5743
11441TIP3    H255815   4.794   5.581  16.072  1.0308 -0.1235 -0.5759
11442TIP3   OH255816   3.966   5.586   3.807  0.0173  0.3687 -0.1147
11442TIP3    H155817   3.955   5.492   3.795  1.5082  0.2896 -1.0582
11442TIP3    H255818   4.060   5.600   3.808 -0.1754  1.8955 -0.3149
11443TIP3   OH255819   1.834   4.260  13.943 -0.6657  0.3619  0.4773
11443TIP3    H155820   1.912   4.225  13.987 -0.7204 -1.6281 -0.8984
11443TIP3    H255821   1.870   4.315  13.873 -0.5058  0.2919  0.5026
11444TIP3   OH255822   2.615   5.532   2.618  0.8023  0.2957 -0.2255
11444TIP3    H155823   2.566   5.459   2.655  1.2617  0.0005 -0.1961
11444TIP3    H255824   2.706   5.502   2.617  0.9038  0.6022 -0.8533
11445TIP3   OH255825   0.436   6.407  16.390  0.2192  0.2022 -0.0271
11445TIP3    H155826   0.531   6.402  16.400  0.2688  0.3554 -0.4087
11445TIP3    H255827   0.412   6.493  16.424  0.1653  0.0003  0.4513
11446TIP3   OH255828   3.281   5.671   2.542  0.0148 -0.1692  0.4509
11446TIP3    H155829   3.228   5.603   2.584  0.9354  0.5287  2.9138
11446TIP3    H255830   3.219   5.741   2.523 -0.4354 -0.4977  0.6806
11447TIP3   OH255831   6.588   1.429   0.151 -0.6544 -0.8695  0.0713
11447TIP3    H155832   6.574   1.512   0.197 -0.9721  0.4108 -2.2013
11447TIP3    H255833   6.620   1.455   0.065 -0.6795 -3.1438 -0.6755
11448TIP3   OH255834   3.353   1.033  11.966  0.2788 -0.2179 -0.2765
11448TIP3    H155835   3.258   1.032  11.981  0.1029 -2.4211 -1.1255
11448TIP3    H255836   3.390   1.049  12.053 -0.8701 -1.0889  0.4087
11449TIP3   OH255837   2.820   3.453   0.861 -0.1111  0.3459  0.6971
11449TIP3    H155838   2.756   3.383   0.874 -0.7609  0.9548  0.8095
11449TIP3    H255839   2.902   3.407   0.843 -0.9529 -0.4641 -1.3903
11450TIP3   OH255840   5.912   0.433   5.676 -0.0388  0.4929 -0.4199
11450TIP3    H155841   5.853   0.393   5.740 -0.5443  0.1357 -1.0884
11450TIP3    H255842   5.853   0.475   5.613  0.4354  0.5435 -0.8390
11451TIP3   OH255843   5.124   2.965   2.242 -0.4824 -0.0495  0.2199
11451TIP3    H155844   5.087   3.012   2.168  0.4257 -0.0542 -0.2584
11451TIP3    H255845   5.197   2.915   2.204  0.8432  0.9658  1.3073
11452TIP3   OH255846   1.456   4.519  15.500 -0.2057 -0.3251 -0.8160
11452TIP3    H155847   1.485   4.452  15.438 -1.0822 -0.6754 -0.8720
11452TIP3    H255848   1.454   4.600  15.449 -1.3818 -0.6946 -1.4147
11453TIP3   OH255849   3.199   6.125  12.257  0.3165 -0.0478  0.0094
11453TIP3    H155850   3.273   6.069  12.233  1.6097  1.3389  0.5911
11453TIP3    H255851   3.179   6.101  12.347 -0.0064 -0.4838 -0.1760
11454TIP3   OH255852   2.245   2.911   1.833 -1.4407 -0.5926  0.1582
11454TIP3    H155853   2.297   2.832   1.820 -0.0347  0.0711  1.5359
11454TIP3    H255854   2.284   2.954   1.908 -2.9243  0.8314  0.1702
11455TIP3   OH255855   1.414   3.811  12.766 -0.1865 -0.6901  0.3658
11455TIP3    H155856   1.386   3.740  12.825 -0.1638 -0.0193  1.1981
11455TIP3    H255857   1.499   3.782  12.733 -1.1049 -2.0213 -0.9668
11456TIP3   OH255858   5.635   0.230  15.351  0.3060  0.2929  0.0377
11456TIP3    H155859   5.638   0.278  15.434 -1.4881  0.7044 -0.0727
11456TIP3    H255860   5.631   0.138  15.376 -1.8388  0.4629  0.5471
11457TIP3   OH255861   5.517   2.965  16.814  0.0956 -0.0657  0.0291
11457TIP3    H155862   5.564   2.901  16.869  1.3307 -0.9723 -1.9745
11457TIP3    H255863   5.425   2.944  16.827  0.3904 -0.8790  1.0003
11458TIP3   OH255864   2.125   4.520   1.750 -0.2017 -0.0431 -0.4148
11458TIP3    H155865   2.057   4.569   1.798  0.5676  0.0851  0.5772
11458TIP3    H255866   2.178   4.480   1.819  1.1481  0.4228 -1.1582
11459TIP3   OH255867   6.507   5.919   3.188  0.4261  0.2543  0.1535
11459TIP3    H155868   6.512   5.823   3.186  0.6526  0.2790 -1.0100
11459TIP3    H255869   6.495   5.940   3.281  0.5516 -0.8893  0.4466
11460TIP3   OH255870   4.151   3.894   5.091  0.5758  0.3350 -0.6296
11460TIP3    H155871   4.229   3.950   5.087  0.8661  0.0575  0.8270
11460TIP3    H255872   4.140   3.863   5.001  1.7424  0.9143 -0.9970
11461TIP3   OH255873   6.547   3.110   5.257 -0.5252 -0.3299  0.1485
11461TIP3    H155874   6.569   3.107   5.164  2.5580 -0.3942  0.7683
11461TIP3    H255875   6.527   3.019   5.279 -2.3429 -0.1532 -0.6159
11462TIP3   OH255876   4.752   5.347  13.239  0.0434 -0.2859 -0.3176
11462TIP3    H155877   4.673   5.292  13.236 -1.5110  1.7697  0.3633
11462TIP3    H255878   4.776   5.348  13.332 -0.0726  0.3402 -0.2938
11463TIP3   OH255879   6.577   6.675   1.391 -0.0069  0.0279  0.1167
11463TIP3    H155880   6.500   6.730   1.379  0.8636  0.7559 -2.8149
11463TIP3    H255881   6.543   6.586   1.388 -0.7531  0.3336 -1.2207
11464TIP3   OH255882   1.756   5.680   2.333 -0.0852  0.0175 -0.4759
11464TIP3    H155883   1.796   5.594   2.349 -1.9161 -0.8638 -0.3497
11464TIP3    H255884   1.767   5.695   2.239  1.9231  0.5698 -0.1906
11465TIP3   OH255885   6.123   5.748  12.901 -0.1558 -0.1647  0.6167
11465TIP3    H155886   6.162   5.704  12.825 -1.3569 -1.0949  0.5149
11465TIP3    H255887   6.187   5.734  12.971  2.3576  3.0995 -0.7629
11466TIP3   OH255888   5.977   3.252  15.722  0.1991 -0.2112  0.2344
11466TIP3    H155889   5.884   3.235  15.739  0.4900 -1.5149  0.6255
11466TIP3    H255890   6.005   3.306  15.795  0.0070 -0.7754  0.7360
11467TIP3   OH255891   6.397   5.107  15.275  0.4758  0.1780 -0.1955
11467TIP3    H155892   6.416   5.119  15.368 -0.3798 -0.5352  0.0858
11467TIP3    H255893   6.329   5.172  15.256 -0.2905 -0.5478  0.0100
11468TIP3   OH255894   1.106   2.616  16.362  0.0537  0.7315 -0.2497
11468TIP3    H155895   1.164   2.685  16.330  0.0458  0.6841 -0.3642
11468TIP3    H255896   1.031   2.617  16.302 -0.3637  1.2208  0.2693
11469TIP3   OH255897   3.293   5.909  15.551 -0.2759 -0.7604 -0.1286
11469TIP3    H155898   3.350   5.909  15.628  1.3307 -0.1299 -1.2678
11469TIP3    H255899   3.261   5.999  15.544  0.8597 -0.4051 -1.0651
11470TIP3   OH255900   3.283   2.446  15.895 -0.1189  0.3659 -0.0253
11470TIP3    H155901   3.273   2.370  15.838 -0.1578 -0.2948  0.8366
11470TIP3    H255902   3.378   2.455  15.905 -0.1314 -0.1578  0.6240
11471TIP3   OH255903   1.803   5.294  17.136  0.3071 -0.0704  0.2816
11471TIP3    H155904   1.791   5.335  17.050  0.4172 -3.8667 -1.7408
11471TIP3    H255905   1.886   5.246  17.128  0.9323  0.3835  2.9910
11472TIP3   OH255906   3.446   4.021  17.223  0.2351 -0.1386  0.0946
11472TIP3    H155907   3.512   4.074  17.268 -0.6393  0.2760  0.9235
11472TIP3    H255908   3.422   3.954  17.287  0.2307 -0.6019 -0.3929
11473TIP3   OH255909   4.838   2.747   0.866 -0.6852  0.3719  0.1491
11473TIP3    H155910   4.818   2.662   0.904  0.5688 -0.6971 -1.4435
11473TIP3    H255911   4.820   2.810   0.936 -0.7867 -1.2697  1.6647
11474TIP3   OH255912   0.894   3.430  12.609 -0.0778 -0.4499  0.1735
11474TIP3    H155913   0.985   3.453  12.590 -0.5789  0.5061 -1.2119
11474TIP3    H255914   0.880   3.347  12.563 -0.2289 -0.0268 -0.5407
11475TIP3   OH255915   0.968   0.760  14.040 -0.2504 -0.0333  0.0443
11475TIP3    H155916   0.997   0.850  14.026  1.5960 -0.7733 -1.4873
11475TIP3    H255917   0.936   0.732  13.954  2.1192 -1.7208 -0.4013
11476TIP3   OH255918   4.445   6.471  15.026  0.5351  0.4494  0.0039
11476TIP3    H155919   4.512   6.403  15.017 -0.0876 -0.0940 -0.6798
11476TIP3    H255920   4.362   6.423  15.027  0.1447  1.1039  0.9085
11477TIP3   OH255921   4.215   0.187   4.361  0.0943  0.3513 -0.3534
11477TIP3    H155922   4.136   0.178   4.308  2.0200 -3.1310 -3.0396
11477TIP3    H255923   4.264   0.258   4.318  1.4041 -2.0949 -3.3075
11478TIP3   OH255924   4.652   1.293  17.045 -0.1571  0.3982 -1.3480
11478TIP3    H155925   4.558   1.292  17.032 -0.7782 -2.2168  2.0334
11478TIP3    H255926   4.665   1.333  17.130  1.5870 -0.8991 -0.9274
11479TIP3   OH255927   0.647   2.005  12.697 -0.6619 -0.3353 -0.3444
11479TIP3    H155928   0.651   1.910  12.693 -1.1534 -0.3343 -1.0852
11479TIP3    H255929   0.722   2.035  12.646 -0.4756 -0.3234 -0.0653
11480TIP3   OH255930   1.357   4.499  14.959  0.2097  0.4982 -0.2887
11480TIP3    H155931   1.349   4.492  14.864  0.6217  0.6202 -0.3327
11480TIP3    H255932   1.363   4.593  14.977 -2.7347  0.7217  0.1052
11481TIP3   OH255933   5.058   4.653   3.968  0.6091 -0.9727  0.0069
11481TIP3    H155934   5.103   4.731   4.001 -0.8099  0.0557 -0.4214
11481TIP3    H255935   5.070   4.588   4.037  1.5357 -0.2960  0.5225
11482TIP3   OH255936   3.507   5.694  12.372 -0.0609 -0.2949  0.5302
11482TIP3    H155937   3.411   5.696  12.369 -0.0916 -1.9297 -1.8242
11482TIP3    H255938   3.533   5.786  12.379 -1.7561  0.1241  2.3522
11483TIP3   OH255939   4.408   4.465  15.112 -0.0109  0.5020  0.4193
11483TIP3    H155940   4.345   4.425  15.052 -0.0581 -0.0531  0.8339
11483TIP3    H255941   4.453   4.531  15.059 -1.2670  1.2447  0.2444
11484TIP3   OH255942   4.666   1.062   0.570 -0.1988 -0.2227  0.6452
11484TIP3    H155943   4.584   1.039   0.527 -0.5116  1.4298  0.2728
11484TIP3    H255944   4.709   1.122   0.509  1.3995 -1.2235  0.7421
11485TIP3   OH255945   1.630   4.188   2.732 -0.0857  0.1176 -0.1887
11485TIP3    H155946   1.649   4.147   2.648 -0.8383  1.2203 -0.9175
11485TIP3    H255947   1.696   4.258   2.740  0.4696 -0.4663  0.5119
11486TIP3   OH255948   2.072   4.517   1.483 -0.1190 -0.0432  0.4849
11486TIP3    H155949   2.106   4.519   1.572  1.0202  0.0471  0.0608
11486TIP3    H255950   2.145   4.483   1.430 -0.0063  1.9305 -0.7332
11487TIP3   OH255951   1.306   6.503  15.503  0.6716  0.4681 -0.5256
11487TIP3    H155952   1.391   6.506  15.547  0.3915  0.7109  0.0150
11487TIP3    H255953   1.249   6.458  15.566  0.3059  0.6620 -0.7181
11488TIP3   OH255954   3.652   3.671  11.904  0.2460  1.1365 -0.4302
11488TIP3    H155955   3.696   3.615  11.840  2.7138  1.7975  0.5624
11488TIP3    H255956   3.564   3.635  11.911  1.3219 -1.8514 -0.7808
11489TIP3   OH255957   0.269   2.591  14.982 -0.7655  0.3831  0.1819
11489TIP3    H155958   0.319   2.513  15.003 -0.3408  1.1392  2.1133
11489TIP3    H255959   0.334   2.661  14.976 -1.1595  0.6686 -1.3676
11490TIP3   OH255960   6.153   3.943   0.979  0.5135 -0.5349  0.3744
11490TIP3    H155961   6.187   3.942   0.889  1.0423 -0.0224  0.5615
11490TIP3    H255962   6.069   3.987   0.972  2.2630  3.2507  0.6546
11491TIP3   OH255963   6.633   1.646  13.201  0.2790  0.2841 -0.5011
11491TIP3    H155964   6.670   1.685  13.122 -0.9364  0.7251 -0.8701
11491TIP3    H255965   6.678   1.562  13.210  2.3043  1.3321 -0.1924
11492TIP3   OH255966   5.976   1.143   3.024 -0.0518 -0.3951  0.4880
11492TIP3    H155967   5.923   1.096   3.088  0.3323 -0.1931  0.9617
11492TIP3    H255968   6.019   1.212   3.075  1.7681 -1.4158  0.4156
11493TIP3   OH255969   4.021   6.481   3.263 -0.4144  0.5071  0.5704
11493TIP3    H155970   4.011   6.388   3.282 -0.6408  0.7885  1.9941
11493TIP3    H255971   3.932   6.516   3.265 -0.2931  0.8254  0.5221
11494TIP3   OH255972   3.216   1.548   5.161 -1.0208 -0.1909 -0.3099
11494TIP3    H155973   3.294   1.593   5.127 -0.4672  0.7065  1.9522
11494TIP3    H255974   3.155   1.619   5.179 -0.7968 -0.4498  1.6910
11495TIP3   OH255975   5.987   0.552  16.984  0.6373 -0.0845 -0.2551
11495TIP3    H155976   5.977   0.468  16.938  0.7179 -0.2552  0.0391
11495TIP3    H255977   6.070   0.544  17.030  0.7231  0.2210 -0.3537
11496TIP3   OH255978   4.819   1.946  14.450  0.0757 -0.2444 -0.1915
11496TIP3    H155979   4.849   2.037  14.448  0.6422 -0.4299 -0.8308
11496TIP3    H255980   4.819   1.919  14.358 -3.3838  0.1260 -0.4369
11497TIP3   OH255981   1.061   3.803   1.071 -0.6086 -0.4104  0.1469
11497TIP3    H155982   1.005   3.797   0.993 -1.0266  1.3045  0.2759
11497TIP3    H255983   1.056   3.716   1.111 -1.6002 -0.8721 -0.9258
11498TIP3   OH255984   0.136   2.581  10.591 -0.3475  0.2332 -0.1369
11498TIP3    H155985   0.113   2.534  10.510  0.2965 -0.8629  0.2976
11498TIP3    H255986   0.218   2.625  10.570  0.9165 -1.6938  0.4946
11499TIP3   OH255987   4.541   0.188   3.757 -0.1886  0.4906 -0.7965
11499TIP3    H155988   4.623   0.143   3.734 -1.6713 -1.8957 -1.8484
11499TIP3    H255989   4.542   0.194   3.852 -0.0086 -2.1397 -0.5675
11500TIP3   OH255990   3.875   1.639  12.551  0.2427 -0.1606 -0.7283
11500TIP3    H155991   3.814   1.645  12.478  1.2938 -0.7730 -1.6820
11500TIP3    H255992   3.956   1.679  12.519  0.8408 -0.7901 -0.0517
11501TIP3   OH255993   1.098   1.933   5.230  0.0598 -0.0344  0.2110
11501TIP3    H155994   1.130   1.882   5.156 -1.3288  0.0500 -0.4810
11501TIP3    H255995   1.051   2.006   5.191 -1.6095 -0.5625  1.1327
11502TIP3   OH255996   2.042   3.074  16.339  0.4988 -0.4201  0.1804
11502TIP3    H155997   2.024   3.025  16.259  0.4210  2.0907 -1.4409
11502TIP3    H255998   1.959   3.071  16.387  0.6172 -2.1677  0.3645
11503TIP3   OH255999   1.258   4.548  13.400 -0.4205  0.0735  0.0545
11503TIP3    H156000   1.181   4.531  13.344 -1.1595 -0.0432  1.0818
11503TIP3    H256001   1.331   4.549  13.339 -1.1582 -0.4492 -0.8802
11504TIP3   OH256002   3.783   0.762  13.896 -0.6152  0.4079  0.6594
11504TIP3    H156003   3.713   0.818  13.863  0.0254  0.1525 -1.2551
11504TIP3    H256004   3.855   0.774  13.834  0.3968 -0.7245  1.5517
11505TIP3   OH256005   4.001   1.826   2.776  0.4220  0.2163  0.0037
11505TIP3    H156006   4.032   1.815   2.686 -1.3572  0.9117 -0.7423
11505TIP3    H256007   3.955   1.744   2.796  0.2440  0.3239  0.0358
11506TIP3   OH256008   0.039   3.310  15.764  0.4538  0.3106  0.2303
11506TIP3    H156009   0.066   3.388  15.717 -0.3687 -0.2258 -1.1832
11506TIP3    H256010   0.021   3.245  15.696 -1.8675 -0.1590  1.1866
11507TIP3   OH256011   2.766   2.271  12.841  0.6170 -0.0786 -0.0369
11507TIP3    H156012   2.778   2.194  12.786 -0.7620 -2.2709  2.5027
11507TIP3    H256013   2.787   2.241  12.930  0.2991  2.5485  1.0160
11508TIP3   OH256014   4.284   0.442  14.640  0.1799 -0.5643  0.0883
11508TIP3    H156015   4.338   0.508  14.598  0.9627 -2.3534 -1.8998
11508TIP3    H256016   4.285   0.465  14.733  1.6746  1.2951 -0.3338
11509TIP3   OH256017   4.928   5.774  13.205 -0.0748  0.5461  0.6498
11509TIP3    H156018   5.005   5.719  13.191  0.1390  1.3082 -1.5529
11509TIP3    H256019   4.855   5.713  13.211  0.2383 -0.0532 -1.1172
11510TIP3   OH256020   6.670   4.844   2.187 -0.1906  0.2721  1.2831
11510TIP3    H156021   6.703   4.763   2.148  0.7808  1.2424 -0.0060
11510TIP3    H256022   6.744   4.879   2.238 -0.0733  1.0843  0.5912
11511TIP3   OH256023   3.282   2.735   4.634  0.2440 -0.1192 -0.2241
11511TIP3    H156024   3.245   2.702   4.716  0.6850  0.5665  0.2637
11511TIP3    H256025   3.263   2.667   4.570  1.1412 -1.3257  0.7444
11512TIP3   OH256026   5.154   1.279  16.358 -0.4797  0.3118 -0.6035
11512TIP3    H156027   5.154   1.239  16.445  1.3689  2.2169  0.3501
11512TIP3    H256028   5.119   1.367  16.372  2.3842  1.6545 -1.1669
11513TIP3   OH256029   3.918   5.899   0.430 -0.9873 -0.0456 -0.1120
11513TIP3    H156030   3.979   5.911   0.358 -0.0412  1.4832  0.8597
11513TIP3    H256031   3.865   5.979   0.430  0.8029  1.3085  2.4036
11514TIP3   OH256032   4.162   4.768  12.567 -0.1098  0.1260  0.2769
11514TIP3    H156033   4.216   4.833  12.612  1.3214  0.1655 -1.3733
11514TIP3    H256034   4.082   4.815  12.544  1.5298  1.9265 -2.3082
11515TIP3   OH256035   5.848   0.434  12.887 -0.5734  0.0660 -0.3006
11515TIP3    H156036   5.855   0.388  12.971  4.0661 -1.3524 -1.2044
11515TIP3    H256037   5.844   0.526  12.911  1.8177 -0.2154  1.6381
11516TIP3   OH256038   0.639   5.654  12.977 -0.4424 -0.2722  0.2907
11516TIP3    H156039   0.564   5.615  13.023 -0.4138  0.1516  0.6991
11516TIP3    H256040   0.642   5.607  12.893 -0.2282 -1.3676  0.8901
11517TIP3   OH256041   4.361   0.805   4.096 -0.5634  0.3606  0.3326
11517TIP3    H156042   4.335   0.897   4.088 -0.8730  0.1738 -1.1117
11517TIP3    H256043   4.419   0.790   4.022 -1.5015 -0.9174 -0.1907
11518TIP3   OH256044   0.985   5.493  16.079 -0.6462 -0.5604 -0.0114
11518TIP3    H156045   0.976   5.583  16.048 -0.4407 -0.9056 -1.1131
11518TIP3    H256046   0.962   5.439  16.004  0.5787 -1.4245  0.1982
11519TIP3   OH256047   1.139   1.479  15.993  0.2554  0.4260  0.4641
11519TIP3    H156048   1.180   1.416  16.052  0.9481  1.3496  0.9965
11519TIP3    H256049   1.152   1.564  16.036  0.8274  1.1331 -1.0240
11520TIP3   OH256050   2.580   5.003  16.887  0.7399  0.3292  0.5530
11520TIP3    H156051   2.644   4.975  16.822 -1.2069 -1.5552 -0.6849
11520TIP3    H256052   2.576   4.931  16.950 -1.3976 -0.4426 -0.3896
11521TIP3   OH256053   5.571   3.381   3.962 -0.3467  0.4505  0.6276
11521TIP3    H156054   5.581   3.463   4.010  0.8412 -0.0183  1.2193
11521TIP3    H256055   5.655   3.369   3.917 -0.9698  0.2066 -0.5203
11522TIP3   OH256056   5.802   6.382  16.091  0.1637 -0.4203 -0.0151
11522TIP3    H156057   5.779   6.474  16.097 -1.4575 -0.7308 -0.8972
11522TIP3    H256058   5.880   6.379  16.036  0.3559  0.4307  0.2062
11523TIP3   OH256059   4.489   0.744   0.832  0.0639  0.2265  0.3184
11523TIP3    H156060   4.570   0.790   0.853 -0.3785  1.4978 -0.6537
11523TIP3    H256061   4.500   0.714   0.742 -1.1141  1.7861 -0.3904
11524TIP3   OH256062   6.086   4.024  13.100  0.0967  0.2305 -0.2359
11524TIP3    H156063   6.083   4.036  13.005 -0.5540  1.5381 -0.0708
11524TIP3    H256064   6.155   4.084  13.129 -0.8821  1.1381  0.2776
11525TIP3   OH256065   3.471   3.112   5.714  0.2805  0.0892 -0.3315
11525TIP3    H156066   3.402   3.050   5.692  0.3128 -0.5741  1.3266
11525TIP3    H256067   3.444   3.194   5.673 -1.3741 -0.2127  0.1033
11526TIP3   OH256068   4.205   3.761  12.788 -0.1164  0.1189  0.3020
11526TIP3    H156069   4.174   3.675  12.759  0.8375 -0.2195  0.2464
11526TIP3    H256070   4.135   3.821  12.765  0.6014 -0.1066 -2.8135
11527TIP3   OH256071   4.901   2.320  13.034  0.3557  0.5133  0.3680
11527TIP3    H156072   4.903   2.294  12.942  1.5584  0.1568  0.4725
11527TIP3    H256073   4.980   2.372  13.045  0.4709  0.1526  1.3122
11528TIP3   OH256074   0.632   6.461   0.801  0.1920 -0.1842  0.4614
11528TIP3    H156075   0.703   6.502   0.850 -0.1730  1.6513 -0.4725
11528TIP3    H256076   0.642   6.494   0.712 -0.5705 -1.5854 -0.1811
11529TIP3   OH256077   6.817   3.507  11.682  0.5339  0.4176 -0.2228
11529TIP3    H156078   6.894   3.449  11.675  0.4917  0.3701 -0.2897
11529TIP3    H256079   6.854   3.595  11.692  0.5938  0.4228 -0.4965
11530TIP3   OH256080   1.680   6.578   1.010  0.3746 -0.4880 -0.2539
11530TIP3    H156081   1.666   6.490   1.046  0.4301  0.1064  1.3052
11530TIP3    H256082   1.743   6.619   1.069 -1.7670  1.5761  0.7634
11531TIP3   OH256083   0.709   5.546  16.094 -0.0197 -0.3312  0.2505
11531TIP3    H156084   0.704   5.572  16.187 -1.2018  0.9755 -0.1389
11531TIP3    H256085   0.655   5.467  16.089  2.1313 -1.9574  1.1153
11532TIP3   OH256086   1.144   4.460  11.365  0.3952  0.2650 -0.3563
11532TIP3    H156087   1.100   4.430  11.285 -1.0493  4.2789 -1.3320
11532TIP3    H256088   1.084   4.526  11.401  1.2077 -1.0520  3.9139
11533TIP3   OH256089   5.742   1.726   1.685 -0.0669 -0.0046 -0.3974
11533TIP3    H156090   5.827   1.720   1.729 -1.1894 -1.3050  1.8122
11533TIP3    H256091   5.721   1.635   1.662 -1.4853  0.0703  0.4933
11534TIP3   OH256092   5.499   5.750   2.243  0.6163 -0.7836 -0.0158
11534TIP3    H156093   5.475   5.671   2.195 -1.3988 -1.0798  1.3766
11534TIP3    H256094   5.528   5.811   2.176  0.0299 -1.9286 -1.3545
11535TIP3   OH256095   1.028   6.266  17.119  0.3682  0.2838  0.2658
11535TIP3    H156096   1.059   6.180  17.089  0.5678  0.0878  1.0104
11535TIP3    H256097   0.933   6.262  17.108  0.4246  0.1798 -0.2261
11536TIP3   OH256098   1.203   3.727   3.876 -0.1142  0.0083 -0.0723
11536TIP3    H156099   1.133   3.792   3.865 -0.0237  0.0560 -0.3761
11536TIP3    H256100   1.259   3.739   3.799 -0.0929 -0.4242 -0.1246
11537TIP3   OH256101   6.115   6.438  13.050  0.1961  0.5926  0.1822
11537TIP3    H156102   6.033   6.487  13.060  0.8738  1.9540 -0.6742
11537TIP3    H256103   6.150   6.432  13.139  0.2884  2.0177  0.2563
11538TIP3   OH256104   5.123   2.384   5.206 -0.0463 -0.3690  0.0403
11538TIP3    H156105   5.047   2.326   5.204 -0.1724 -0.2604 -3.1680
11538TIP3    H256106   5.194   2.329   5.240 -0.7742 -1.6227 -0.3859
11539TIP3   OH256107   5.658   6.073  13.914 -0.5362 -0.4343  0.9860
11539TIP3    H156108   5.636   5.980  13.903  0.4298 -0.4650 -1.0203
11539TIP3    H256109   5.576   6.119  13.896 -0.7109 -0.8382  0.7446
11540TIP3   OH256110   4.025   2.437   4.032  0.0459 -0.3967  0.1613
11540TIP3    H156111   4.092   2.446   4.099 -0.1417 -2.1405  0.6181
11540TIP3    H256112   3.947   2.479   4.070 -0.0305 -1.2825  1.0042
11541TIP3   OH256113   6.464   1.221  12.564  0.2117 -0.4162 -0.7718
11541TIP3    H156114   6.557   1.200  12.564  0.2214 -0.3706 -0.8755
11541TIP3    H256115   6.430   1.181  12.484  0.3676  0.5676 -1.3506
11542TIP3   OH256116   5.571   3.942  14.244  0.2531 -0.3243  0.0271
11542TIP3    H156117   5.540   3.953  14.334 -1.1183 -2.7564 -0.0910
11542TIP3    H256118   5.663   3.915  14.254  1.4403  3.3004  0.4716
11543TIP3   OH256119   2.046   2.390  15.002  0.1030 -0.7694 -0.5214
11543TIP3    H156120   2.090   2.462  14.957  1.1326 -0.0979  1.4383
11543TIP3    H256121   2.114   2.324  15.016 -0.3974 -1.3261 -0.6578
11544TIP3   OH256122   1.187   2.600   4.033 -0.0902  0.0671 -0.1797
11544TIP3    H156123   1.218   2.566   3.950  1.1333  0.9044 -0.0920
11544TIP3    H256124   1.094   2.619   4.018  0.2848  0.9231 -1.5990
11545TIP3   OH256125   5.543   2.155   3.107 -0.3198  0.6433 -0.1377
11545TIP3    H156126   5.518   2.122   3.193  1.2183  1.1121  0.5397
11545TIP3    H256127   5.523   2.084   3.047  1.5700 -1.0266  1.0669
11546TIP3   OH256128   0.948   1.427  14.766  0.0715 -0.1364  0.3364
11546TIP3    H156129   0.934   1.518  14.739 -1.9305 -0.9090 -1.5246
11546TIP3    H256130   1.011   1.433  14.838 -0.1098  2.7144  0.3820
11547TIP3   OH256131   4.301   5.270  15.462  0.1171  0.4893 -0.0991
11547TIP3    H156132   4.242   5.298  15.532  0.2284 -0.1784  0.2680
11547TIP3    H256133   4.367   5.339  15.458 -0.7277  1.3076 -0.5933
11548TIP3   OH256134   3.757   6.621   3.621  0.2978  0.7395 -0.0275
11548TIP3    H156135   3.773   6.529   3.596  0.0951  1.1111 -1.6239
11548TIP3    H256136   3.681   6.617   3.678 -0.8749  0.0588 -1.5741
11549TIP3   OH256137   5.191   1.182   2.159  0.4887 -0.2102 -0.2869
11549TIP3    H156138   5.123   1.129   2.117  1.1837 -0.9966 -0.4404
11549TIP3    H256139   5.223   1.128   2.231  2.2577 -0.6755 -1.3676
11550TIP3   OH256140   4.904   4.574  11.519 -0.0824  0.8139 -0.3430
11550TIP3    H156141   4.821   4.622  11.526 -0.6668 -0.1400 -0.5022
11550TIP3    H256142   4.920   4.541  11.607 -0.3114  0.2985 -0.4915
11551TIP3   OH256143   6.630   4.979   2.739 -0.6053  0.4454  0.0022
11551TIP3    H156144   6.585   4.980   2.655 -1.9176  1.3669  0.7032
11551TIP3    H256145   6.561   4.980   2.804  0.3214 -2.0873  1.1563
11552TIP3   OH256146   2.277   3.379  10.440  0.4730 -0.3308  1.0942
11552TIP3    H156147   2.362   3.424  10.435  0.8003 -0.9361  1.1489
11552TIP3    H256148   2.220   3.432  10.384  1.6968 -1.6522 -1.5838
11553TIP3   OH256149   0.029   0.592  14.902 -0.1647  0.0566 -0.1128
11553TIP3    H156150   0.005   0.568  14.813 -0.9160 -2.5042  0.6936
11553TIP3    H256151  -0.054   0.592  14.950  0.1031  2.3052  0.4537
11554TIP3   OH256152   0.788   0.926   1.176  0.1997 -0.6371 -0.1248
11554TIP3    H156153   0.825   0.986   1.111  0.2954  0.0628  0.5607
11554TIP3    H256154   0.694   0.945   1.176 -0.0602 -1.7368 -1.1637
11555TIP3   OH256155   3.209   2.496   0.829 -0.0274 -0.6715 -0.4968
11555TIP3    H156156   3.243   2.412   0.798 -0.7088 -0.6339 -1.3822
11555TIP3    H256157   3.114   2.485   0.828 -0.0997 -0.2541  0.4632
11556TIP3   OH256158   3.319   6.661   4.813  0.5667 -0.4234 -0.3377
11556TIP3    H156159   3.344   6.748   4.781  1.1765 -1.2423 -2.2652
11556TIP3    H256160   3.334   6.665   4.907  1.5374  1.2615 -0.5147
11557TIP3   OH256161   3.168   5.181   5.138 -0.2026  0.0670 -0.9205
11557TIP3    H156162   3.157   5.266   5.180  0.7261  0.4060 -1.3408
11557TIP3    H256163   3.248   5.145   5.177 -0.4202 -0.4708 -0.9690
11558TIP3   OH256164   5.826   0.584  16.324 -0.3525  0.3987  0.4920
11558TIP3    H156165   5.767   0.573  16.399  0.7192 -0.8358  1.1964
11558TIP3    H256166   5.826   0.499  16.281 -0.9352  1.0879 -0.9347
11559TIP3   OH256167   1.960   3.345   0.941  0.1436  0.6113 -0.1615
11559TIP3    H156168   1.984   3.419   0.885  1.8213  0.7677  0.6994
11559TIP3    H256169   1.890   3.380   0.997  0.0377  1.1458 -0.6119
11560TIP3   OH256170   4.860   3.957  12.769  0.1807 -0.7630  0.2375
11560TIP3    H156171   4.911   4.012  12.830  1.4468 -1.8815  0.2381
11560TIP3    H256172   4.773   3.953  12.808  0.4012  0.2367  0.8834
11561TIP3   OH256173   6.011   1.601   2.728 -0.9805 -0.0650 -0.3391
11561TIP3    H156174   5.935   1.542   2.726  0.2855 -1.7686 -0.3615
11561TIP3    H256175   5.984   1.673   2.785 -2.4847 -0.8058 -0.0651
11562TIP3   OH256176   6.742   6.627   5.919 -0.8554 -0.4765 -0.5013
11562TIP3    H156177   6.665   6.593   5.964 -1.5689  1.4212 -0.2154
11562TIP3    H256178   6.763   6.709   5.964  0.8895 -0.5685 -1.0507
11563TIP3   OH256179   4.630   1.020   1.744  0.1009 -0.5587  0.3093
11563TIP3    H156180   4.700   0.974   1.792 -0.2220 -0.5699  0.7784
11563TIP3    H256181   4.666   1.106   1.725  0.7183 -1.0010 -0.5862
11564TIP3   OH256182   6.091   3.055  15.917 -0.3292  0.0369 -0.8846
11564TIP3    H156183   6.032   3.124  15.888 -0.6938 -1.3092 -3.7413
11564TIP3    H256184   6.034   2.982  15.939  0.1026  0.2654  1.1505
11565TIP3   OH256185   0.902   4.868   1.119 -0.0975  0.2336  0.5001
11565TIP3    H156186   0.862   4.948   1.085 -0.9379  0.0118  0.9363
11565TIP3    H256187   0.927   4.890   1.209  0.0927  0.1511  0.4670
11566TIP3   OH256188   5.900   0.236   5.017  0.0675  0.6247 -0.6130
11566TIP3    H156189   5.973   0.187   5.056 -2.0022 -0.2620  2.5456
11566TIP3    H256190   5.921   0.328   5.035  0.6164  0.4168 -0.1416
11567TIP3   OH256191   0.387   4.052   2.352  0.5917  0.0622  0.5643
11567TIP3    H156192   0.313   4.021   2.405 -0.4287  0.7454 -0.4057
11567TIP3    H256193   0.369   4.146   2.339  0.6635 -0.1326 -1.1887
11568TIP3   OH256194   4.153   0.467  11.649  0.2912  0.4723  0.4904
11568TIP3    H156195   4.248   0.478  11.644  0.3770 -0.6535 -1.1233
11568TIP3    H256196   4.140   0.398  11.714  0.7291 -0.7177 -0.6517
11569TIP3   OH256197   2.268   1.859   2.499 -0.3286 -0.0471  0.3838
11569TIP3    H156198   2.219   1.848   2.581 -0.0372  0.7785  0.6874
11569TIP3    H256199   2.332   1.787   2.499  0.0074  0.2317  1.1452
11570TIP3   OH256200   3.184   5.730  11.438  0.5341 -0.0941 -0.2644
11570TIP3    H156201   3.175   5.805  11.496  0.8690  0.4328 -0.8822
11570TIP3    H256202   3.278   5.715  11.432  0.4289 -1.6608  1.2184
11571TIP3   OH256203   4.030   5.639  12.182 -0.0717 -0.1803 -0.4186
11571TIP3    H156204   4.057   5.725  12.148 -0.1712 -0.4990 -1.3538
11571TIP3    H256205   3.991   5.658  12.267  1.0382  0.5494 -0.0501
11572TIP3   OH256206   3.919   4.826  12.060  0.0634  0.1961  0.3567
11572TIP3    H156207   4.013   4.846  12.067  0.4161 -0.7396 -1.2630
11572TIP3    H256208   3.888   4.880  11.988 -1.1828  2.1282  2.2374
11573TIP3   OH256209   6.815   0.717   0.369 -0.4009 -0.2603 -0.2798
11573TIP3    H156210   6.868   0.745   0.294 -0.8526 -1.0001 -0.8915
11573TIP3    H256211   6.732   0.763   0.357 -0.0286  0.6397  0.4965
11574TIP3   OH256212   4.466   2.904   1.973 -0.0699  0.1312 -0.1233
11574TIP3    H156213   4.509   2.981   1.937 -1.6788  1.5268  0.7616
11574TIP3    H256214   4.382   2.900   1.927 -1.2555  0.6920  1.8603
11575TIP3   OH256215   4.931   6.489   1.940  0.3462 -0.3197 -0.2744
11575TIP3    H156216   5.016   6.467   1.902  0.5804 -2.4170  1.2741
11575TIP3    H256217   4.882   6.406   1.940 -1.1437  0.5141  0.2459
11576TIP3   OH256218   3.507   1.230  11.813 -0.1827 -0.4769 -0.5143
11576TIP3    H156219   3.546   1.190  11.736  1.5315 -0.1800  0.1613
11576TIP3    H256220   3.487   1.157  11.871  0.0116 -0.5844 -0.5830
11577TIP3   OH256221   5.996   3.481   1.326 -0.3366 -0.2326 -0.0443
11577TIP3    H156222   5.913   3.435   1.340 -0.3634  0.0951  1.0099
11577TIP3    H256223   5.974   3.553   1.267 -0.9086  0.1023  0.5557
11578TIP3   OH256224   3.082   2.731   3.488  0.4104  0.2248  0.3344
11578TIP3    H156225   3.075   2.678   3.568 -1.0321  0.1146  0.1652
11578TIP3    H256226   3.144   2.683   3.433  0.5055 -0.3366  0.9155
11579TIP3   OH256227   4.441   5.155   3.909 -0.0965  0.2567  0.2431
11579TIP3    H156228   4.387   5.217   3.958  0.4954 -1.1719  2.8674
11579TIP3    H256229   4.469   5.204   3.831 -2.4613  2.0828  0.4192
11580TIP3   OH256230   3.611   4.423   3.056  0.3153 -0.0539  0.4211
11580TIP3    H156231   3.690   4.475   3.043  0.6679 -0.3841  1.2017
11580TIP3    H256232   3.638   4.351   3.113 -0.8661  0.6590  1.9716
11581TIP3   OH256233   0.179   2.794   5.183 -0.1029  0.0011  0.1936
11581TIP3    H156234   0.188   2.845   5.264  0.0212  1.3225 -0.6193
11581TIP3    H256235   0.266   2.796   5.144 -0.2683 -0.2572 -0.1892
11582TIP3   OH256236   6.110   3.693  16.858  0.7065  0.5344  0.9887
11582TIP3    H156237   6.084   3.605  16.885 -1.2129 -0.3647 -3.1075
11582TIP3    H256238   6.043   3.751  16.894 -0.2087 -0.2236  0.5230
11583TIP3   OH256239   1.867   2.149  12.984  0.4609 -0.0918  0.2328
11583TIP3    H156240   1.868   2.065  12.937  1.0337 -0.4817  0.9121
11583TIP3    H256241   1.826   2.128  13.068 -2.9152  1.1276 -0.9805
11584TIP3   OH256242   0.087   5.146   2.086 -0.5122  0.6109  0.3255
11584TIP3    H156243   0.181   5.133   2.100 -0.7869 -0.6236  1.1459
11584TIP3    H256244   0.076   5.241   2.089  0.9841  0.9208 -1.7610
11585TIP3   OH256245   2.021   2.208  14.728 -0.4580 -0.9538  0.1845
11585TIP3    H156246   2.072   2.260  14.667  1.4526 -0.1351  2.3449
11585TIP3    H256247   2.012   2.264  14.806 -1.6878 -2.4233  1.1677
11586TIP3   OH256248   2.262   1.054  13.403  0.1045 -0.2241 -0.1486
11586TIP3    H156249   2.336   0.999  13.376 -0.9572 -2.1891  0.7466
11586TIP3    H256250   2.257   1.042  13.498 -1.5987 -0.4600 -0.2411
11587TIP3   OH256251   2.580   5.424  17.262 -0.2113 -0.2028  0.4602
11587TIP3    H156252   2.629   5.375  17.328  1.7033  1.3265  0.2680
11587TIP3    H256253   2.490   5.426  17.296  0.5305 -0.1888  2.5997
11588TIP3   OH256254   4.362   4.025   3.741 -0.4098  0.3396  0.1539
11588TIP3    H156255   4.323   3.968   3.675 -0.1637  1.5162 -1.0551
11588TIP3    H256256   4.355   4.113   3.703  1.7621  0.7923  0.6966
11589TIP3   OH256257   1.321   1.990  15.053  0.0782 -0.4261  0.6319
11589TIP3    H156258   1.409   2.016  15.080  0.3590 -1.7415  1.0363
11589TIP3    H256259   1.266   2.013  15.128  0.1804 -0.2045  0.6412
11590TIP3   OH256260   5.581   2.939  14.056  0.2725 -0.5181  0.2644
11590TIP3    H156261   5.522   2.863  14.051 -0.2595 -0.2607  1.9872
11590TIP3    H256262   5.668   2.900  14.060 -0.0295 -1.1458  1.9457
11591TIP3   OH256263   3.048   3.964   0.706  0.0701  0.4070  0.3805
11591TIP3    H156264   2.977   3.900   0.709 -1.0627  1.6785  1.1621
11591TIP3    H256265   3.053   4.000   0.794  1.3855  0.6779  0.2181
11592TIP3   OH256266   1.326   3.769   5.656  0.7667 -0.3317 -0.2945
11592TIP3    H156267   1.281   3.812   5.583  2.8147  0.0702 -1.4140
11592TIP3    H256268   1.259   3.715   5.698 -0.5682 -0.3156 -2.2763
11593TIP3   OH256269   0.472   2.728   0.212  0.0674 -0.3429 -0.2336
11593TIP3    H156270   0.566   2.730   0.234  0.4789  1.0826 -1.8631
11593TIP3    H256271   0.434   2.798   0.267  0.1907 -0.0862 -0.4732
11594TIP3   OH256272   5.820   3.284   6.172 -0.2279  0.0708  0.2561
11594TIP3    H156273   5.906   3.268   6.212 -1.2914 -0.1682  2.6205
11594TIP3    H256274   5.780   3.352   6.227 -2.0264 -0.7239  0.0094
11595TIP3   OH256275   4.398   2.221  11.535 -0.0446  0.1594 -0.6404
11595TIP3    H156276   4.356   2.136  11.538  2.1781 -1.0400 -1.2148
11595TIP3    H256277   4.385   2.251  11.445  3.0198 -1.7859 -1.8926
11596TIP3   OH256278   4.913   2.939  17.232 -0.2419 -0.2117 -0.1982
11596TIP3    H156279   4.937   2.853  17.266  2.9677  1.2039  1.5825
11596TIP3    H256280   4.870   2.983  17.306  0.3406  0.4892 -0.2583
11597TIP3   OH256281   3.826   6.308  11.449  0.6447 -0.8735 -0.2691
11597TIP3    H156282   3.886   6.235  11.466  0.4136 -0.8787  0.5574
11597TIP3    H256283   3.816   6.309  11.354  2.4216 -0.5127 -0.4983
11598TIP3   OH256284   2.086   4.080   1.227 -0.1498  1.1548 -0.7785
11598TIP3    H156285   2.153   4.020   1.194  0.7235  1.5370  0.2456
11598TIP3    H256286   2.008   4.025   1.237  0.4421  0.3317 -0.5004
11599TIP3   OH256287   1.910   3.317   5.520  0.6244 -0.2213 -0.4871
11599TIP3    H156288   1.890   3.407   5.548  1.0730  0.9750 -3.5696
11599TIP3    H256289   1.846   3.263   5.567  2.0768  1.2107  3.6290
11600TIP3   OH256290   6.709   4.160  13.830 -0.0182  0.7672  0.0527
11600TIP3    H156291   6.702   4.120  13.917  0.0944  1.4052  0.3571
11600TIP3    H256292   6.644   4.113  13.778  0.8965 -0.6044  0.0886
11601TIP3   OH256293   6.650   6.403  16.651  0.2611  0.3767  0.5627
11601TIP3    H156294   6.678   6.494  16.642 -0.2443  0.5098  0.2735
11601TIP3    H256295   6.727   6.352  16.625  1.1159  0.6786  2.3841
11602TIP3   OH256296   4.364   2.020  13.978  0.1035 -0.2713  0.5743
11602TIP3    H156297   4.424   2.091  13.999  0.4028 -0.0987 -0.7744
11602TIP3    H256298   4.420   1.944  13.966  0.0937 -0.0933 -0.7625
11603TIP3   OH256299   1.319   6.107   0.896 -0.2760 -0.1168 -0.4213
11603TIP3    H156300   1.239   6.067   0.930 -1.4787  2.1864 -0.3059
11603TIP3    H256301   1.377   6.113   0.972  0.5900 -2.9031 -0.7485
11604TIP3   OH256302   1.912   6.101  16.911 -0.1405  0.0659  0.4668
11604TIP3    H156303   1.925   6.080  17.004  0.5651 -0.6270  0.2189
11604TIP3    H256304   1.943   6.024  16.864 -0.2520  0.5103 -0.3586
11605TIP3   OH256305   0.050   1.488  16.163 -0.7538  0.5154 -0.6870
11605TIP3    H156306   0.110   1.418  16.139  0.0050  0.3639  1.4562
11605TIP3    H256307   0.028   1.531  16.080  0.6246 -0.7541 -1.7539
11606TIP3   OH256308   1.064   5.982  13.210 -0.3377 -0.2327 -0.0869
11606TIP3    H156309   0.986   6.015  13.165 -0.0327 -0.8899 -1.1519
11606TIP3    H256310   1.051   5.887  13.215 -0.6603 -0.1239  1.8590
11607TIP3   OH256311   5.766   2.314  14.666  0.0112 -1.2028  0.2482
11607TIP3    H156312   5.723   2.302  14.582  0.8632 -2.0769 -0.0936
11607TIP3    H256313   5.844   2.366  14.646 -1.6489  1.8059  1.1163
11608TIP3   OH256314   6.200   0.934   3.252  0.1860  0.1684 -0.3946
11608TIP3    H156315   6.141   0.877   3.203 -0.8004  1.4475 -0.7462
11608TIP3    H256316   6.245   0.875   3.313 -1.6349 -0.8273  0.0508
11609TIP3   OH256317   2.668   6.364   5.791  0.0973 -0.0643 -0.0581
11609TIP3    H156318   2.588   6.369   5.738  0.4665 -0.1391 -0.6320
11609TIP3    H256319   2.652   6.290   5.850 -0.7848  0.7319  0.7416
11610TIP3   OH256320   1.253   4.594   1.801  0.3063 -0.3238 -0.2592
11610TIP3    H156321   1.279   4.554   1.718 -0.8469 -0.2150 -0.6845
11610TIP3    H256322   1.218   4.521   1.853  2.1742 -0.6405  0.6597
11611TIP3   OH256323   2.968   0.397   5.919  0.1970 -0.0566  0.6603
11611TIP3    H156324   3.000   0.478   5.959 -0.8898  0.3033  0.8203
11611TIP3    H256325   3.025   0.329   5.955  1.7164  0.7220 -0.1815
11612TIP3   OH256326   0.533   0.276   0.774 -0.6507  0.0581  0.0603
11612TIP3    H156327   0.591   0.349   0.752 -0.0082  0.4920  2.7623
11612TIP3    H256328   0.590   0.199   0.771 -0.4743  0.1675  0.5333
11613TIP3   OH256329   5.416   0.924  13.881  0.0007  0.2895 -0.2153
11613TIP3    H156330   5.354   0.968  13.938  0.5148  0.7089  0.0322
11613TIP3    H256331   5.502   0.959  13.907  0.4061 -0.7436 -0.1120
11614TIP3   OH256332   6.661   2.748  11.547 -0.0956 -0.5478 -0.3136
11614TIP3    H156333   6.567   2.740  11.562  0.1032 -0.4451  1.1354
11614TIP3    H256334   6.669   2.759  11.452 -1.6912  1.4949 -0.2820
11615TIP3   OH256335   2.302   3.977  16.961 -0.3497  0.7821  0.4958
11615TIP3    H156336   2.394   3.955  16.947 -0.9918 -1.0732 -1.2876
11615TIP3    H256337   2.270   4.002  16.874 -1.4224  1.9426  1.1906
11616TIP3   OH256338   2.233   5.239   4.583  0.5332 -0.5707  0.6952
11616TIP3    H156339   2.322   5.206   4.576  1.3858  1.8509 -2.0011
11616TIP3    H256340   2.243   5.335   4.580 -2.1750 -0.2290 -1.3006
11617TIP3   OH256341   2.480   5.533   6.160 -0.7134 -0.0407 -0.0983
11617TIP3    H156342   2.424   5.461   6.130 -0.1537 -0.9575  0.9746
11617TIP3    H256343   2.421   5.608   6.166 -2.3798 -1.3934  2.8621
11618TIP3   OH256344   0.714   6.021   0.591  0.1137  0.2978 -0.7849
11618TIP3    H156345   0.659   6.097   0.572 -0.0721  0.3965  0.1013
11618TIP3    H256346   0.751   5.996   0.506 -0.2170  1.0696 -1.1649
11619TIP3   OH256347   4.362   2.591  13.418  0.3029  0.0193 -0.1620
11619TIP3    H156348   4.449   2.556  13.396 -0.1923 -0.9384 -0.6372
11619TIP3    H256349   4.304   2.515  13.414 -0.6848  0.7757 -0.5282
11620TIP3   OH256350   3.190   1.281  16.321  0.1903 -0.3355 -0.1926
11620TIP3    H156351   3.220   1.297  16.231 -0.8464  0.1916 -0.4587
11620TIP3    H256352   3.246   1.210  16.353 -0.6924 -1.8700 -1.9186
11621TIP3   OH256353   5.431   2.293   4.184  0.2838 -0.2107  0.4024
11621TIP3    H156354   5.394   2.381   4.185  1.8585  0.4859  0.6497
11621TIP3    H256355   5.356   2.235   4.199 -1.0297  0.9757 -1.1825
11622TIP3   OH256356   5.308   0.899   2.634 -0.6561 -0.3328  0.9122
11622TIP3    H156357   5.294   0.876   2.543  1.2455  0.5541  0.3447
11622TIP3    H256358   5.318   0.816   2.679  0.0520 -0.7547 -0.0030
11623TIP3   OH256359   1.098   0.840  16.576  0.1195 -0.5837  0.4217
11623TIP3    H156360   1.094   0.871  16.666  0.3263 -1.2260  0.6621
11623TIP3    H256361   1.025   0.883  16.532  1.8046  2.1620  0.0926
11624TIP3   OH256362   5.625   5.237   2.091  0.0448 -0.2851  0.2403
11624TIP3    H156363   5.607   5.263   2.181  0.7366 -0.6463  0.4877
11624TIP3    H256364   5.539   5.224   2.052 -0.2517 -1.7521  1.3170
11625TIP3   OH256365   4.893   2.570  14.990  0.4954  0.3958 -0.3881
11625TIP3    H156366   4.812   2.614  14.967 -0.7756 -1.6885 -0.1364
11625TIP3    H256367   4.877   2.477  14.971  2.7799 -0.1044 -0.2206
11626TIP3   OH256368   3.427   4.721   1.543 -0.2218 -0.5828 -0.2411
11626TIP3    H156369   3.507   4.700   1.495  0.9983  3.0384 -0.0603
11626TIP3    H256370   3.448   4.703   1.635  0.8417  1.3901 -0.0649
11627TIP3   OH256371   4.979   6.563   2.847  0.0285 -0.3669 -0.3869
11627TIP3    H156372   4.892   6.601   2.832  1.1222  2.2841 -0.6274
11627TIP3    H256373   4.996   6.511   2.768 -0.3589  1.1839 -1.5475
11628TIP3   OH256374   4.987   4.627  16.577 -0.3549  0.6929 -0.5453
11628TIP3    H156375   4.894   4.609  16.566 -0.8456  1.0946  2.1581
11628TIP3    H256376   5.006   4.699  16.516 -2.1229  1.4176 -0.2936
11629TIP3   OH256377   0.062   3.966  13.223 -0.8523  0.4735  0.9325
11629TIP3    H156378   0.145   4.014  13.221 -0.8070  0.3938  0.9102
11629TIP3    H256379   0.021   3.987  13.139  0.9351 -2.6565 -0.9585
11630TIP3   OH256380   1.751   1.046   4.206  0.3409  0.1525 -0.0380
11630TIP3    H156381   1.705   1.065   4.124 -0.5381  1.8208  0.7827
11630TIP3    H256382   1.833   1.007   4.179 -0.3121 -0.1668 -1.6828
11631TIP3   OH256383   6.155   6.727  14.698 -0.3484  0.7758 -0.3280
11631TIP3    H156384   6.239   6.701  14.658 -0.5448  0.9609 -0.8700
11631TIP3    H256385   6.089   6.682  14.646 -0.6768  2.0410 -1.0472
11632TIP3   OH256386   1.373   4.063  14.577  0.2608 -0.2585 -0.0229
11632TIP3    H156387   1.291   4.110  14.590  0.7443 -0.0469  2.7072
11632TIP3    H256388   1.440   4.131  14.578  0.5634 -0.3997 -2.4683
11633TIP3   OH256389   0.980   3.102   1.797  0.0146 -0.0382 -0.1176
11633TIP3    H156390   0.933   3.153   1.731 -1.1438 -0.2687  0.5063
11633TIP3    H256391   1.032   3.039   1.746  0.1997  0.6793 -0.8367
11634TIP3   OH256392   4.626   1.095  13.274  0.3072  0.1348  0.1302
11634TIP3    H156393   4.584   1.051  13.200 -0.6888 -1.4949  1.5932
11634TIP3    H256394   4.680   1.162  13.234 -1.9731  0.8693 -1.9820
11635TIP3   OH256395   1.434   4.621   4.897 -0.2922  0.3738  0.4701
11635TIP3    H156396   1.430   4.568   4.977 -2.0939  0.2855  0.3721
11635TIP3    H256397   1.421   4.711   4.927  2.3114  0.7598  0.5872
11636TIP3   OH256398   1.159   4.825   5.908  0.5217  0.3353 -0.7555
11636TIP3    H156399   1.074   4.850   5.946  0.6838 -0.9873  0.5591
11636TIP3    H256400   1.159   4.866   5.822 -1.7008 -0.0676 -1.0176
11637TIP3   OH256401   0.566   3.603  15.641  0.8778  0.0107  0.5996
11637TIP3    H156402   0.589   3.524  15.689  1.1928  0.2948  0.9243
11637TIP3    H256403   0.474   3.619  15.662  1.6922  1.7146  3.4610
11638TIP3   OH256404   3.637   5.980  16.352 -0.3187  0.5512  0.5680
11638TIP3    H156405   3.596   6.064  16.374 -2.6420 -0.1846 -0.5734
11638TIP3    H256406   3.599   5.918  16.414 -0.3978 -0.0460 -0.0623
11639TIP3   OH256407   6.562   2.342  14.420  0.1799 -0.1250 -0.4314
11639TIP3    H156408   6.513   2.358  14.501  1.0410  1.1044 -0.1248
11639TIP3    H256409   6.633   2.406  14.422 -0.3995  0.6936 -2.6713
11640TIP3   OH256410   6.143   0.175   5.367 -0.0049 -0.6366  0.3850
11640TIP3    H156411   6.196   0.123   5.306 -0.7717 -0.4073 -0.5101
11640TIP3    H256412   6.065   0.121   5.382  1.1757 -1.7375  3.0263
11641TIP3   OH256413   4.125   3.683  14.412 -0.0342 -0.0369  0.1506
11641TIP3    H156414   4.052   3.625  14.391 -0.9587  0.9124  0.6229
11641TIP3    H256415   4.202   3.640  14.375 -0.8894 -0.8597 -0.7186
11642TIP3   OH256416   0.992   4.353   1.252 -0.2778 -0.0298  0.0791
11642TIP3    H156417   0.945   4.437   1.256 -1.0174 -0.3987 -0.6000
11642TIP3    H256418   0.944   4.302   1.187 -0.2801 -1.2666  1.0212
11643TIP3   OH256419   4.216   0.558   4.579 -0.3831  0.1177 -0.7781
11643TIP3    H156420   4.145   0.619   4.561 -0.8386 -0.1171  0.1690
11643TIP3    H256421   4.290   0.591   4.527 -1.0854  0.5395 -1.5296
11644TIP3   OH256422   6.200   3.208  11.761 -0.2922  0.0607 -0.1550
11644TIP3    H156423   6.260   3.135  11.777  0.2058  0.5476  0.2399
11644TIP3    H256424   6.113   3.169  11.763 -0.0983 -0.3433  1.1532
11645TIP3   OH256425   5.284   1.021  14.087  0.5026  0.2145  0.0636
11645TIP3    H156426   5.190   1.003  14.092  1.0418 -2.8362  1.4289
11645TIP3    H256427   5.291   1.115  14.102 -2.2452  0.2868  1.5307
11646TIP3   OH256428   0.977   2.538   1.447  0.0923 -0.0417  0.0385
11646TIP3    H156429   1.012   2.457   1.409  0.5047 -0.3059  0.9351
11646TIP3    H256430   0.905   2.508   1.504  0.6189  0.1563  0.8203
11647TIP3   OH256431   4.755   6.002   0.996  0.8771  0.2285  0.3474
11647TIP3    H156432   4.679   6.005   1.054  2.5721  0.0498  2.6980
11647TIP3    H256433   4.781   6.093   0.985  1.6646  0.1725  1.5025
11648TIP3   OH256434   6.306   3.188   3.535 -0.0738 -0.2135 -0.1769
11648TIP3    H156435   6.237   3.208   3.472  1.0078  0.6078 -1.1609
11648TIP3    H256436   6.322   3.270   3.580  1.1839 -0.0054 -0.9420
11649TIP3   OH256437   4.846   5.389   5.912 -0.1678 -0.9591 -0.4052
11649TIP3    H156438   4.921   5.367   5.968  0.0687  0.7075 -0.0072
11649TIP3    H256439   4.826   5.480   5.934 -3.1637 -1.7163  0.4504
11650TIP3   OH256440   0.904   5.027  14.888  0.6026  0.8431 -0.1119
11650TIP3    H156441   0.823   5.076  14.874 -0.5472 -0.7194  0.7626
11650TIP3    H256442   0.972   5.079  14.844 -1.0839  1.4751 -2.1035
11651TIP3   OH256443   3.950   5.830  13.691  0.2510 -0.1131 -0.0270
11651TIP3    H156444   3.980   5.784  13.613 -1.0661 -2.0331  0.5275
11651TIP3    H256445   3.989   5.918  13.684  0.5511 -0.3798 -2.5706
11652TIP3   OH256446   4.500   1.788   3.335  0.0428 -0.0634  0.6476
11652TIP3    H156447   4.422   1.826   3.374  0.3172  0.2547  0.8949
11652TIP3    H256448   4.531   1.856   3.274  0.0039 -0.2758  0.3897
11653TIP3   OH256449   3.073   5.584   2.213  0.8692  0.0291  0.6594
11653TIP3    H156450   2.985   5.577   2.249  0.0281  0.5651 -1.1445
11653TIP3    H256451   3.062   5.565   2.119  2.6841  0.0567  0.3981
11654TIP3   OH256452   4.342   5.377  14.825 -0.4777 -0.2510  0.1296
11654TIP3    H156453   4.390   5.362  14.743 -0.8558  1.1796 -0.3803
11654TIP3    H256454   4.295   5.459  14.811 -1.2711 -0.4453  1.4628
11655TIP3   OH256455   4.990   1.208  13.735  1.0789  0.1205 -0.1553
11655TIP3    H156456   5.075   1.185  13.699  1.5618  0.3024  0.8334
11655TIP3    H256457   4.931   1.211  13.659  1.5959 -1.5616 -0.6746
11656TIP3   OH256458   2.119   3.933  16.193 -0.1676 -0.8117  0.3478
11656TIP3    H156459   2.061   3.859  16.209  0.6660 -1.7396 -0.7960
11656TIP3    H256460   2.074   3.986  16.128  0.0124 -1.2419 -0.1308
11657TIP3   OH256461   1.860   2.020  10.909 -0.4977 -0.4372  0.1690
11657TIP3    H156462   1.882   1.994  10.820 -2.4749  0.0615 -0.5176
11657TIP3    H256463   1.838   1.938  10.953  1.3381 -0.7979  0.5220
11658TIP3   OH256464   0.348   3.958   0.551  0.1127 -0.6783 -0.1934
11658TIP3    H156465   0.437   3.949   0.584  1.3217  0.9107 -2.7689
11658TIP3    H256466   0.342   4.049   0.523 -2.8627 -0.3089  1.2029
11659TIP3   OH256467   2.411   4.015   6.449  0.1371 -0.0528 -0.1258
11659TIP3    H156468   2.401   3.936   6.396 -0.7320 -0.2328  0.2777
11659TIP3    H256469   2.324   4.057   6.446 -0.0090 -0.1847  1.3177
11660TIP3   OH256470   3.113   5.258  15.968  0.5859 -0.2283 -0.0395
11660TIP3    H156471   3.061   5.323  15.922  1.4041  0.3222 -0.2162
11660TIP3    H256472   3.159   5.210  15.899 -0.5829 -1.5158  0.0477
11661TIP3   OH256473   1.724   6.377   5.471 -0.3759 -0.6431 -0.0359
11661TIP3    H156474   1.674   6.295   5.476 -0.4807 -0.6636 -1.2005
11661TIP3    H256475   1.779   6.367   5.394 -0.1153  0.2330  0.0291
11662TIP3   OH256476   6.790   1.372   1.017  0.0753 -0.0376 -0.1441
11662TIP3    H156477   6.758   1.282   1.021 -1.5815  0.5485  0.8880
11662TIP3    H256478   6.854   1.378   1.088  1.0213 -0.6656 -0.9134
11663TIP3   OH256479   5.316   2.177   6.333  0.2280 -0.1897 -0.1109
11663TIP3    H156480   5.382   2.235   6.371 -1.8275  0.5051  2.6953
11663TIP3    H256481   5.324   2.096   6.383 -0.6168 -0.3027 -0.1419
11664TIP3   OH256482   2.871   0.810   0.242  0.4829  0.7862  0.3297
11664TIP3    H156483   2.782   0.834   0.269 -0.3270 -0.0008 -1.5085
11664TIP3    H256484   2.873   0.827   0.148  2.0795  0.1610  0.2261
11665TIP3   OH256485   3.723   4.760  11.302 -0.9009  0.6131  0.3901
11665TIP3    H156486   3.720   4.854  11.323  0.0253  0.3058  2.1345
11665TIP3    H256487   3.769   4.756  11.219  1.5308  1.6218  1.5702
11666TIP3   OH256488   3.777   6.426  12.803  0.5750 -0.0786 -0.1541
11666TIP3    H156489   3.696   6.375  12.797  0.7677 -0.6798  1.7052
11666TIP3    H256490   3.749   6.517  12.793 -0.4310 -0.2466  0.9055
11667TIP3   OH256491   4.376   5.257   5.126  0.2987 -0.2256 -0.3351
11667TIP3    H156492   4.356   5.321   5.194  0.8251 -0.1610 -0.2374
11667TIP3    H256493   4.464   5.280   5.097  0.1569 -0.3814 -0.8964
11668TIP3   OH256494   0.019   6.495   3.663  0.0845 -0.1378  0.1766
11668TIP3    H156495   0.040   6.478   3.571 -0.2973  1.3225 -0.2041
11668TIP3    H256496   0.097   6.540   3.698 -0.3474  0.6677  0.1394
11669TIP3   OH256497   3.132   2.672   2.784 -0.2267  0.1283 -0.2840
11669TIP3    H156498   3.218   2.641   2.755 -0.3335 -1.1534  0.6523
11669TIP3    H256499   3.110   2.614   2.857 -1.0367  1.6612  0.7546
11670TIP3   OH256500   5.738   3.802   5.483  0.1013  0.5677 -0.0367
11670TIP3    H156501   5.804   3.869   5.496  0.4959  0.1635  0.0718
11670TIP3    H256502   5.752   3.771   5.394  1.5278 -1.0565  0.6875
11671TIP3   OH256503   1.093   2.935   1.613 -1.2917 -0.3589  0.5586
11671TIP3    H156504   1.047   2.968   1.535 -1.8141 -1.5497  0.3414
11671TIP3    H256505   1.185   2.931   1.587 -1.2683  0.5607  0.4722
11672TIP3   OH256506   6.196   5.775   4.462 -0.4134  0.1853 -0.1994
11672TIP3    H156507   6.159   5.843   4.518 -0.1652  0.5324 -0.4582
11672TIP3    H256508   6.287   5.801   4.448  0.4950 -1.5184  1.8162
11673TIP3   OH256509   3.838   0.073  15.742 -0.2507 -0.0245 -1.0683
11673TIP3    H156510   3.849   0.004  15.677  1.8902 -3.0302  2.0709
11673TIP3    H256511   3.761   0.046  15.793 -1.4834  1.8885 -1.8316
11674TIP3   OH256512   6.555   2.191  12.072 -0.1696  0.3093 -0.4295
11674TIP3    H156513   6.492   2.257  12.042 -1.3929 -1.0468 -1.0101
11674TIP3    H256514   6.602   2.233  12.144 -2.0245  1.2742  0.2927
11675TIP3   OH256515   1.525   5.828   3.084 -0.4285 -0.5561 -0.0484
11675TIP3    H156516   1.514   5.790   3.171 -1.0054  1.6797  0.9356
11675TIP3    H256517   1.613   5.801   3.057 -0.7718 -2.4504  0.5900
11676TIP3   OH256518   3.475   0.926  15.631  0.4687  0.2446 -0.3749
11676TIP3    H156519   3.456   0.908  15.724 -2.7807 -1.6602 -1.2167
11676TIP3    H256520   3.418   1.000  15.609  3.0207  2.3466 -0.4177
11677TIP3   OH256521   4.321   6.646  15.683  0.0210 -0.4651 -0.1969
11677TIP3    H156522   4.241   6.594  15.680 -0.1635 -0.1896 -0.0970
11677TIP3    H256523   4.339   6.667  15.591  2.3555 -4.0937 -0.7334
11678TIP3   OH256524   4.719   0.799   0.552  0.3174 -0.1075  0.7924
11678TIP3    H156525   4.703   0.887   0.585 -1.5490  0.3696 -1.1508
11678TIP3    H256526   4.631   0.759   0.546  1.0715 -1.9585  1.1849
11679TIP3   OH256527   6.794   3.961  11.645  0.0535 -0.4561 -0.1137
11679TIP3    H156528   6.824   4.052  11.645 -2.8337  0.7081 -2.8850
11679TIP3    H256529   6.700   3.967  11.663 -0.2880 -2.8492 -0.7424
11680TIP3   OH256530   0.240   1.485   0.516  0.1120 -0.2095 -0.0713
11680TIP3    H156531   0.309   1.438   0.469  1.9383  1.3173  0.9271
11680TIP3    H256532   0.252   1.460   0.608 -0.4846  0.2763  0.1509
11681TIP3   OH256533   2.140   0.521   2.655 -0.2963  0.0392 -0.6806
11681TIP3    H156534   2.093   0.589   2.705  0.6114  0.0501  0.1918
11681TIP3    H256535   2.089   0.441   2.671  0.7160 -0.2546  1.4599
11682TIP3   OH256536   4.187   2.305  13.747  0.7586 -0.0694  0.1621
11682TIP3    H156537   4.202   2.306  13.653 -0.5691  0.1822 -0.0541
11682TIP3    H256538   4.108   2.357  13.760  0.6750 -0.4694  1.3710
11683TIP3   OH256539   6.395   3.688   5.883  0.1362 -0.1887 -0.5469
11683TIP3    H156540   6.490   3.691   5.874  0.0655  0.9566 -1.2020
11683TIP3    H256541   6.366   3.776   5.859 -0.9414  0.1253  1.6982
11684TIP3   OH256542   3.786   4.979   5.692 -0.4869 -0.2922  0.3843
11684TIP3    H156543   3.822   4.892   5.709  1.8320  0.3003 -1.0372
11684TIP3    H256544   3.824   5.035   5.760 -0.2214 -0.0102  0.0097
11685TIP3   OH256545   2.518   6.671  13.148 -0.2111 -0.0941 -0.4411
11685TIP3    H156546   2.490   6.589  13.187 -0.1211 -0.8140 -1.8366
11685TIP3    H256547   2.612   6.675  13.168 -0.5346  0.5779  1.1517
11686TIP3   OH256548   4.856   4.634  12.051 -0.6967  0.2592  0.2429
11686TIP3    H156549   4.923   4.696  12.081 -0.1940 -0.5155  0.7455
11686TIP3    H256550   4.879   4.551  12.093  0.1853 -0.9512 -2.4064
11687TIP3   OH256551   5.859   2.984  13.643  0.1933  0.7905 -0.1154
11687TIP3    H156552   5.894   2.902  13.609  1.9500  1.3780  0.1549
11687TIP3    H256553   5.765   2.968  13.654  0.4736 -1.1179 -0.2032
11688TIP3   OH256554   4.203   1.633   4.734 -0.1473 -0.5035  0.6690
11688TIP3    H156555   4.178   1.604   4.822  0.3815  0.3011  1.0962
11688TIP3    H256556   4.125   1.617   4.681 -0.1027 -2.0865  1.0088
11689TIP3   OH256557   3.360   6.578   0.734  0.0200 -0.0026  0.3116
11689TIP3    H156558   3.333   6.506   0.678 -0.4620  0.2606  0.2026
11689TIP3    H256559   3.447   6.553   0.765  0.2163 -0.2237 -0.4148
11690TIP3   OH256560   3.099   4.050  11.654  0.2431  0.1639  0.1032
11690TIP3    H156561   3.187   4.012  11.654  0.1665 -0.0405  0.7582
11690TIP3    H256562   3.101   4.118  11.587  0.9403  0.2411  0.1972
11691TIP3   OH256563   5.327   4.170   0.790  0.5565 -0.3804  0.4404
11691TIP3    H156564   5.394   4.129   0.735  0.9880 -0.7510  1.2252
11691TIP3    H256565   5.357   4.154   0.879 -0.3146 -0.0899  0.7910
11692TIP3   OH256566   5.586   1.141  13.252 -0.3970 -0.1230  0.4144
11692TIP3    H156567   5.622   1.187  13.175 -0.4136 -0.1542  0.3878
11692TIP3    H256568   5.597   1.048  13.231 -0.2139 -0.1298  0.5400
11693TIP3   OH256569   1.382   3.052   3.400  0.1707 -0.4130 -0.2953
11693TIP3    H156570   1.376   3.098   3.317  0.2226  0.0207 -0.0579
11693TIP3    H256571   1.447   3.100   3.450 -1.2152  0.4635  0.7255
11694TIP3   OH256572   2.254   5.879  16.429  0.1586  0.1250 -0.3312
11694TIP3    H156573   2.300   5.943  16.483 -0.3930  0.2052  0.0555
11694TIP3    H256574   2.287   5.894  16.341  1.1649 -0.0961  0.0020
11695TIP3   OH256575   0.006   3.490   0.784  0.6090 -0.2950  0.0216
11695TIP3    H156576   0.080   3.490   0.845  0.6957 -0.8140 -0.0782
11695TIP3    H256577   0.044   3.513   0.700  0.4862  0.4387  0.1566
11696TIP3   OH256578   3.687   5.680  13.681 -0.5316  0.2271  0.1763
11696TIP3    H156579   3.775   5.693  13.715 -0.8613  1.2687  0.6578
11696TIP3    H256580   3.700   5.654  13.590  0.2502  1.3809 -0.0557
11697TIP3   OH256581   0.825   0.112   6.199  0.2574  0.4185 -0.4523
11697TIP3    H156582   0.791   0.023   6.207 -0.8285  0.7260 -1.3338
11697TIP3    H256583   0.917   0.105   6.225 -0.3053 -0.5573  1.4379
11698TIP3   OH256584   1.212   5.578  15.929 -0.3173  0.2629  0.3630
11698TIP3    H156585   1.204   5.486  15.907 -1.3991  1.3381 -5.2218
11698TIP3    H256586   1.125   5.615  15.911  0.7027  2.7055 -0.0492
11699TIP3   OH256587   2.099   1.353   1.432 -0.5047  0.2171  0.0017
11699TIP3    H156588   2.183   1.398   1.444  0.0409 -0.5640 -0.7501
11699TIP3    H256589   2.033   1.422   1.444  0.3338  1.4849 -2.1015
11700TIP3   OH256590   5.350   2.514   1.681 -0.3472 -0.1313 -0.4298
11700TIP3    H156591   5.374   2.606   1.685 -1.6839  0.3110 -1.8287
11700TIP3    H256592   5.362   2.490   1.589 -0.1702 -1.3232 -0.1146
11701TIP3   OH256593   6.118   2.829  13.037 -0.0974 -0.1142 -0.2728
11701TIP3    H156594   6.108   2.753  12.980 -1.0348 -1.6301  1.8014
11701TIP3    H256595   6.182   2.802  13.103  0.1409  1.1843  0.0599
11702TIP3   OH256596   6.038   0.074   3.255 -0.0309 -0.0442 -0.1603
11702TIP3    H156597   6.069   0.153   3.211  0.8654 -1.4101 -2.1434
11702TIP3    H256598   6.117   0.037   3.296 -0.4938  0.1891  0.9870
11703TIP3   OH256599   1.217   1.540   4.394 -0.4137  0.1004 -0.0142
11703TIP3    H156600   1.149   1.606   4.402 -0.3356  0.0307  1.5492
11703TIP3    H256601   1.218   1.496   4.479  0.2474 -1.2198 -0.6654
11704TIP3   OH256602   3.975   1.226   0.506 -0.2305  0.4178  0.0853
11704TIP3    H156603   3.942   1.315   0.491  0.0682  0.2479 -1.8869
11704TIP3    H256604   4.058   1.238   0.550 -1.4607  0.9728  2.3915
11705TIP3   OH256605   6.077   4.406  15.650  1.1551 -0.5013  0.2629
11705TIP3    H156606   6.062   4.319  15.685 -0.3196  0.1232  1.2831
11705TIP3    H256607   6.125   4.452  15.719  1.1703 -0.2525  0.0900
11706TIP3   OH256608   5.864   4.781   4.444 -0.2161  0.1337  0.1465
11706TIP3    H156609   5.890   4.692   4.466  0.0681  0.2289  0.2117
11706TIP3    H256610   5.800   4.805   4.511  0.4458  0.3247  0.7326
11707TIP3   OH256611   4.119   6.451  15.686 -0.1746 -0.8484 -0.3440
11707TIP3    H156612   4.047   6.478  15.743 -0.2984 -0.0772 -0.8600
11707TIP3    H256613   4.079   6.390  15.624 -0.3871 -0.3988 -0.6473
11708TIP3   OH256614   2.971   0.997  16.965 -0.3191  0.0299  0.6106
11708TIP3    H156615   3.031   1.047  17.020 -0.1039  1.3529 -0.7444
11708TIP3    H256616   3.028   0.954  16.900 -0.8054  2.7539 -1.8396
11709TIP3   OH256617   4.283   6.128  12.612  0.2468  0.5620 -0.0797
11709TIP3    H156618   4.202   6.174  12.589  1.4226  4.0228  1.8939
11709TIP3    H256619   4.351   6.176  12.564  1.3745 -0.5531  0.3742
11710TIP3   OH256620   0.921   3.747  13.815  0.1833 -0.2964  0.1279
11710TIP3    H156621   1.008   3.788  13.813  0.0598  0.0391  0.9469
11710TIP3    H256622   0.926   3.675  13.753  1.5602 -1.2521  1.2745
11711TIP3   OH256623   5.018   5.634  13.885  0.3911 -0.0559 -0.6094
11711TIP3    H156624   5.013   5.729  13.899 -1.7402 -0.2610  0.4290
11711TIP3    H256625   5.090   5.605  13.941  0.6159  0.8526 -0.4066
11712TIP3   OH256626   2.900   2.203   1.918 -0.1603  0.2671 -0.3273
11712TIP3    H156627   2.988   2.209   1.880  0.6475  0.0202  1.4015
11712TIP3    H256628   2.848   2.265   1.868  1.5249  2.0068 -0.0677
11713TIP3   OH256629   3.862   4.247   6.054 -0.5482 -0.0045  0.3381
11713TIP3    H156630   3.911   4.197   6.119  0.0025  1.2407  0.9246
11713TIP3    H256631   3.818   4.315   6.105 -0.2511  0.8892 -0.5539
11714TIP3   OH256632   1.859   5.759   5.082 -0.5419 -0.2520 -0.0064
11714TIP3    H156633   1.898   5.844   5.061  0.6660 -0.7210  0.2261
11714TIP3    H256634   1.766   5.777   5.093 -0.7028  0.6221 -2.2678
11715TIP3   OH256635   6.324   3.015   2.765  0.4403  0.2906 -0.5709
11715TIP3    H156636   6.358   3.084   2.822 -1.1339 -0.0214  0.8263
11715TIP3    H256637   6.335   2.934   2.816  0.2437 -0.1784 -1.2618
11716TIP3   OH256638   3.053   5.922  17.146  0.6399  0.5201  0.5207
11716TIP3    H156639   2.990   5.939  17.076  0.0233  1.5445  1.2766
11716TIP3    H256640   3.031   5.835  17.178  2.2038 -0.8237 -1.8030
11717TIP3   OH256641   0.194   3.007   1.661  0.0447 -0.5685  0.1303
11717TIP3    H156642   0.134   3.047   1.724  0.1235 -0.9919  0.4796
11717TIP3    H256643   0.145   3.005   1.579 -0.0035  0.1275  0.1379
11718TIP3   OH256644   3.844   1.951   5.282  0.3056  0.3206  0.2647
11718TIP3    H156645   3.916   1.924   5.225 -0.3741 -1.2503  0.1017
11718TIP3    H256646   3.829   1.877   5.340 -2.9936 -0.6637 -1.5481
11719TIP3   OH256647   4.746   4.492   5.379 -0.2444 -0.1693  0.5072
11719TIP3    H156648   4.660   4.530   5.362  1.3146  3.5395 -0.0369
11719TIP3    H256649   4.754   4.494   5.475 -0.4022  0.5030  0.5153
11720TIP3   OH256650   1.051   4.246   4.413 -0.0547  0.3614  0.3093
11720TIP3    H156651   0.955   4.244   4.414 -0.1275  0.5612 -1.7274
11720TIP3    H256652   1.074   4.261   4.321  1.9281  1.1540  0.8746
11721TIP3   OH256653   6.609   6.749   1.800  0.1730  0.0715  0.2542
11721TIP3    H156654   6.665   6.738   1.877  0.5894  0.1093 -0.0454
11721TIP3    H256655   6.613   6.842   1.780  0.7260 -0.0754 -0.3178
11722TIP3   OH256656   2.427   1.450  15.455 -0.1354 -0.3455  0.2911
11722TIP3    H156657   2.380   1.392  15.396  0.8534 -0.3488 -0.5159
11722TIP3    H256658   2.469   1.392  15.519 -1.9602 -0.2910  1.6037
11723TIP3   OH256659   6.622   6.495  16.093  0.4695 -0.4533 -0.7274
11723TIP3    H156660   6.686   6.448  16.147 -1.0001  1.2068  2.7456
11723TIP3    H256661   6.568   6.426  16.054  0.4045 -1.7992  1.5439
11724TIP3   OH256662   6.225   2.931  11.871  0.1997  0.1882  0.2921
11724TIP3    H156663   6.162   2.876  11.918 -0.7892  2.1727  1.4237
11724TIP3    H256664   6.214   2.905  11.779 -0.4939 -1.2112  0.7265
11725TIP3   OH256665   5.386   2.787  14.771  0.2694 -0.0514 -0.8595
11725TIP3    H156666   5.325   2.845  14.817  0.6962  0.2247 -0.6310
11725TIP3    H256667   5.374   2.808  14.678  0.3858  0.3728 -0.7808
11726TIP3   OH256668   2.307   5.414  11.180 -0.3386 -0.0255 -0.3729
11726TIP3    H156669   2.274   5.384  11.095 -1.8424 -0.7774  0.4389
11726TIP3    H256670   2.241   5.386  11.243 -0.2598  2.2520  0.8395
11727TIP3   OH256671   3.549   3.798  11.425  0.4661  0.1260 -0.2714
11727TIP3    H156672   3.515   3.718  11.464 -0.1029  0.6342  0.2801
11727TIP3    H256673   3.513   3.798  11.336  0.8473 -0.4594 -0.4301
11728TIP3   OH256674   2.601   1.864  14.341 -0.7381 -0.1235  0.7798
11728TIP3    H156675   2.688   1.832  14.365  0.1124  0.9333 -0.7375
11728TIP3    H256676   2.580   1.816  14.261 -0.6228  1.0936 -0.0042
11729TIP3   OH256677   1.094   3.960   3.526 -0.2648 -0.2054 -0.0472
11729TIP3    H156678   1.136   3.875   3.539  0.1574 -0.3432 -1.9329
11729TIP3    H256679   1.053   3.953   3.439  0.6296  1.8401 -0.7001
11730TIP3   OH256680   2.305   2.767  12.549  0.4859  0.0053 -0.7060
11730TIP3    H156681   2.238   2.794  12.487  0.8852  0.1204 -1.0937
11730TIP3    H256682   2.355   2.847  12.567  0.2821  0.0091 -0.1170
11731TIP3   OH256683   4.782   2.864  11.593  0.0834 -0.3454  0.5748
11731TIP3    H156684   4.767   2.804  11.520 -1.5774  1.3843 -0.5996
11731TIP3    H256685   4.877   2.882  11.590  0.1506 -0.8134 -0.7498
11732TIP3   OH256686   1.349   0.567   3.702  0.3425 -0.1364  0.0457
11732TIP3    H156687   1.416   0.632   3.721  0.9939 -0.8006  0.0770
11732TIP3    H256688   1.294   0.607   3.635 -0.9703  1.5653  2.0056
11733TIP3   OH256689   5.350   3.993   3.457 -0.2988 -0.0020 -0.4171
11733TIP3    H156690   5.443   4.016   3.453 -0.0611 -0.6981  0.8196
11733TIP3    H256691   5.317   4.039   3.534 -1.0023  0.2477 -0.8528
11734TIP3   OH256692   6.366   5.200  16.576  0.1452  0.2287 -0.2516
11734TIP3    H156693   6.342   5.240  16.492  0.8468 -0.1456 -0.6419
11734TIP3    H256694   6.283   5.186  16.621 -0.1625  1.4259 -0.4247
11735TIP3   OH256695   5.861   0.175   5.457  0.1442  0.2838 -0.2100
11735TIP3    H156696   5.850   0.129   5.374  1.0286  0.1706 -0.2718
11735TIP3    H256697   5.789   0.143   5.512  0.1219 -0.3684 -0.6084
11736TIP3   OH256698   4.254   3.331   4.780  0.7371  0.7143  0.0568
11736TIP3    H156699   4.194   3.326   4.705  1.2449  0.1975 -0.3268
11736TIP3    H256700   4.233   3.253   4.832 -0.5190  1.7485  1.1691
11737TIP3   OH256701   1.500   5.865   5.343 -0.2603 -0.0587 -0.0714
11737TIP3    H156702   1.416   5.895   5.379 -0.0537  0.3869  0.0450
11737TIP3    H256703   1.534   5.805   5.409 -1.0515 -1.2062 -0.6662
11738TIP3   OH256704   1.576   2.316   2.448  0.0798 -0.1847 -0.6108
11738TIP3    H156705   1.614   2.339   2.363  0.1150  0.7669 -0.3410
11738TIP3    H256706   1.518   2.389   2.469  1.4015  0.4536  1.0055
11739TIP3   OH256707   2.415   2.335   2.861  0.2494  0.1252 -0.0753
11739TIP3    H156708   2.431   2.252   2.904 -0.4200 -0.2003 -0.4413
11739TIP3    H256709   2.443   2.401   2.924  1.2799 -0.3775  0.0156
11740TIP3   OH256710   4.497   6.566  17.242  0.3140 -0.1942  0.6435
11740TIP3    H156711   4.440   6.598  17.172  0.7850 -0.6554  0.0295
11740TIP3    H256712   4.440   6.559  17.319 -0.6658 -1.4140 -0.1470
11741TIP3   OH256713   0.845   2.707   6.069  0.6493 -0.2304  0.1231
11741TIP3    H156714   0.892   2.726   6.150 -0.5515 -1.0771  1.0721
11741TIP3    H256715   0.897   2.640   6.025  0.2860 -1.2625  1.2223
11742TIP3   OH256716   3.790   4.400  16.055  1.2295 -0.5886  0.1046
11742TIP3    H156717   3.835   4.319  16.030  0.2672 -0.8402 -0.8902
11742TIP3    H256718   3.857   4.468  16.048  1.8222 -1.1648  0.0932
11743TIP3   OH256719   4.063   6.333   3.624  0.5764  0.1331 -0.3519
11743TIP3    H156720   4.147   6.286   3.628  0.4543 -0.1162 -0.6514
11743TIP3    H256721   4.013   6.298   3.698 -0.2829 -1.7365 -1.7380
11744TIP3   OH256722   6.158   5.760  10.921 -0.3902 -0.0028 -0.4390
11744TIP3    H156723   6.076   5.803  10.945 -1.2159 -0.9825 -1.4271
11744TIP3    H256724   6.185   5.713  11.000 -0.0111  1.4461  0.3328
11745TIP3   OH256725   5.056   0.397  15.931  0.1110  0.1040  0.3922
11745TIP3    H156726   5.010   0.325  15.886  2.5255 -1.7297  0.6136
11745TIP3    H256727   5.059   0.467  15.867  0.5406 -1.2342 -1.1274
11746TIP3   OH256728   5.658   5.306  16.601  0.3475 -0.0501  0.2362
11746TIP3    H156729   5.656   5.269  16.689 -2.2928  0.2148  0.3702
11746TIP3    H256730   5.739   5.356  16.598  1.4455 -1.6123  1.8329
11747TIP3   OH256731   2.441   0.417  15.502 -0.3911  0.5352  0.0455
11747TIP3    H156732   2.468   0.363  15.428  1.7800 -0.3981  1.4336
11747TIP3    H256733   2.363   0.372  15.537 -0.5878  0.2025 -0.7885
11748TIP3   OH256734   0.152   6.136   2.853  0.4725 -0.0568  0.1771
11748TIP3    H156735   0.189   6.089   2.927  0.2419  0.2242  0.4793
11748TIP3    H256736   0.067   6.094   2.838 -0.1257  0.8090  1.0146
11749TIP3   OH256737   3.863   0.383  12.508  0.7117  0.4173 -0.3571
11749TIP3    H156738   3.849   0.324  12.434  2.2581 -0.2200 -0.1831
11749TIP3    H256739   3.950   0.420  12.492  1.9789 -1.2101  2.0974
11750TIP3   OH256740   6.590   3.223  15.589 -0.6056 -0.8098 -0.5290
11750TIP3    H156741   6.527   3.202  15.658  0.7223  0.0075  1.0199
11750TIP3    H256742   6.556   3.303  15.549 -0.7724 -0.6022  0.0171
11751TIP3   OH256743   6.094   5.754  17.269  0.8468  0.4565 -0.0543
11751TIP3    H156744   6.026   5.789  17.327 -0.8303 -2.3320 -0.1463
11751TIP3    H256745   6.176   5.791  17.303 -0.5316  2.7688  0.9904
11752TIP3   OH256746   5.527   0.948   0.198 -0.1534  0.4749  0.5661
11752TIP3    H156747   5.434   0.929   0.212  0.2006  0.0095  2.5316
11752TIP3    H256748   5.557   0.878   0.139 -1.3526  1.5415 -1.4371
11753TIP3   OH256749   3.729   4.334   3.833 -0.0932  0.0629 -0.0940
11753TIP3    H156750   3.650   4.303   3.877  0.2841 -1.3573 -0.3538
11753TIP3    H256751   3.800   4.319   3.895  0.1367  0.1601 -0.3283
11754TIP3   OH256752   1.441   5.263   0.296 -0.1641 -0.5450  0.7061
11754TIP3    H156753   1.376   5.320   0.255  0.5238  0.8423  1.4521
11754TIP3    H256754   1.431   5.279   0.390  0.7229 -0.8946  0.8668
11755TIP3   OH256755   0.558   4.584   3.105  0.2366 -0.0887  0.4098
11755TIP3    H156756   0.499   4.509   3.096 -1.8895  1.5930 -0.8531
11755TIP3    H256757   0.604   4.588   3.021  0.3553  0.0240  0.4807
11756TIP3   OH256758   5.764   0.312   5.862  0.5091  0.3662  0.0793
11756TIP3    H156759   5.682   0.348   5.896 -0.4380 -0.3808 -1.3170
11756TIP3    H256760   5.799   0.261   5.935  1.0519  2.6609  1.5358
11757TIP3   OH256761   4.148   2.257  12.959 -0.5415  0.1597  0.7676
11757TIP3    H156762   4.176   2.235  13.048  0.2933  2.4043  1.1282
11757TIP3    H256763   4.151   2.353  12.956 -2.6380  0.2417 -1.0282
11758TIP3   OH256764   4.854   3.755   4.934 -0.2674  0.0056 -0.1713
11758TIP3    H156765   4.947   3.768   4.919 -0.3382 -0.4291 -1.0338
11758TIP3    H256766   4.839   3.787   5.023  0.9065 -0.8834  0.3687
11759TIP3   OH256767   1.968   5.471  15.965  0.5596 -0.0183  0.7182
11759TIP3    H156768   1.926   5.396  16.005  1.6832 -0.9495  0.2028
11759TIP3    H256769   2.003   5.522  16.038  1.7915 -1.2122  0.9807
11760TIP3   OH256770   4.467   3.784  11.185  0.2031 -0.5107 -0.2347
11760TIP3    H156771   4.426   3.844  11.123  1.7283  1.4222  0.5304
11760TIP3    H256772   4.552   3.763  11.145 -0.5463 -2.7881 -0.8058
11761TIP3   OH256773   1.007   3.614  12.844  0.5388 -0.2374  0.4109
11761TIP3    H156774   1.100   3.599  12.826  0.2696 -1.9451  0.2954
11761TIP3    H256775   0.961   3.568  12.773 -0.4063  2.1757 -0.6439
11762TIP3   OH256776   6.155   1.423   1.721 -0.3881 -0.2372 -0.3197
11762TIP3    H156777   6.197   1.369   1.787 -0.1039  0.2733 -0.0812
11762TIP3    H256778   6.084   1.468   1.768  1.3143  2.0277  0.2718
11763TIP3   OH256779   5.962   1.191  12.875  0.4264  0.2268  0.0972
11763TIP3    H156780   5.915   1.176  12.793 -1.1582 -1.3867  1.2337
11763TIP3    H256781   5.901   1.241  12.929  0.6766 -0.4170  0.9893
11764TIP3   OH256782   5.058   6.450   2.626  0.2742 -0.1007 -0.3254
11764TIP3    H156783   5.074   6.362   2.593  0.3789 -0.0922 -0.2970
11764TIP3    H256784   5.144   6.492   2.629  0.4822 -0.5636  1.2744
11765TIP3   OH256785   1.550   2.632   5.822 -0.2022 -0.1386  0.2514
11765TIP3    H156786   1.581   2.646   5.911 -0.9379  2.3049  0.2089
11765TIP3    H256787   1.500   2.551   5.826  0.5703 -0.5676  1.8307
11766TIP3   OH256788   0.194   0.680   1.251 -0.0390  0.7750 -0.0239
11766TIP3    H156789   0.192   0.773   1.232 -1.2793  0.3980 -2.1269
11766TIP3    H256790   0.152   0.639   1.176 -1.0717 -1.3660  1.5865
11767TIP3   OH256791   2.377   0.525   6.183 -0.9308 -0.4501 -0.3230
11767TIP3    H156792   2.433   0.510   6.260  0.9901 -1.0115 -1.7317
11767TIP3    H256793   2.337   0.610   6.198  0.3361 -0.0124  0.7608
11768TIP3   OH256794   2.554   3.329   3.316 -0.7551  0.3203  0.1138
11768TIP3    H156795   2.621   3.317   3.249 -0.3020 -1.4491  0.8328
11768TIP3    H256796   2.529   3.421   3.308 -1.6967 -0.1168 -3.3622
11769TIP3   OH256797   0.490   1.093  12.427  0.1169  0.1020 -0.0140
11769TIP3    H156798   0.396   1.103  12.416  0.2525  1.2597 -0.2769
11769TIP3    H256799   0.500   1.049  12.511 -0.5979  4.3496  2.5936
11770TIP3   OH256800   5.706   2.795  14.605  0.1831  0.1451  0.4808
11770TIP3    H156801   5.675   2.802  14.515 -1.7802 -1.5331  0.9601
11770TIP3    H256802   5.783   2.852  14.608  1.9432 -1.7183 -2.9455
11771TIP3   OH256803   2.258   1.724  13.379 -0.2364  0.5162  0.3350
11771TIP3    H156804   2.284   1.661  13.446  0.6811  1.1546  0.5916
11771TIP3    H256805   2.337   1.775  13.362 -0.6848  0.9080 -0.6334
11772TIP3   OH256806   4.167   2.967  12.267 -0.5834 -0.2345 -0.0561
11772TIP3    H156807   4.073   2.979  12.253 -0.4030 -0.1854 -1.2798
11772TIP3    H256808   4.197   2.919  12.190  0.4440 -0.0321  0.2102
11773TIP3   OH256809   4.657   5.923  16.488  0.2704 -0.1264  0.6643
11773TIP3    H156810   4.694   5.835  16.503  0.1618 -0.5624 -1.3251
11773TIP3    H256811   4.608   5.915  16.406 -0.0830  1.7078  0.6514
11774TIP3   OH256812   1.505   6.518  13.009 -0.2629  0.1777 -0.1327
11774TIP3    H156813   1.552   6.435  12.997  0.4191  0.6155 -0.5369
11774TIP3    H256814   1.422   6.492  13.049  1.1613 -0.4381  2.6905
11775TIP3   OH256815   0.786   2.475   4.990 -0.3156 -0.7618  0.3052
11775TIP3    H156816   0.792   2.488   5.085 -3.0003  0.0597  0.4598
11775TIP3    H256817   0.747   2.388   4.980 -0.0762 -0.8318 -0.0514
11776TIP3   OH256818   6.446   5.872  11.044  0.1958  0.8947  0.2116
11776TIP3    H156819   6.371   5.838  11.093  0.8222 -1.6504 -0.4298
11776TIP3    H256820   6.519   5.868  11.106  0.4717  0.1113 -0.1557
11777TIP3   OH256821   2.214   4.974   4.648  0.2348 -0.3895 -0.0923
11777TIP3    H156822   2.214   5.068   4.629 -3.2212 -0.6422 -2.3828
11777TIP3    H256823   2.169   4.967   4.732 -0.3091  0.0012 -0.3421
11778TIP3   OH256824   5.339   4.352   0.579 -0.1259 -0.3436 -0.1881
11778TIP3    H156825   5.316   4.347   0.672  1.1302  0.0196  0.1579
11778TIP3    H256826   5.392   4.274   0.564  0.4756  0.0910 -0.3530
11779TIP3   OH256827   3.522   3.091   2.831  0.3728 -0.1479 -0.0158
11779TIP3    H156828   3.507   3.079   2.737  2.4183  0.7893 -0.5110
11779TIP3    H256829   3.470   3.167   2.855  0.4673  0.0976 -0.5832
11780TIP3   OH256830   0.746   2.000  17.122  0.1397 -1.0338  0.1806
11780TIP3    H156831   0.669   1.999  17.064  0.7766  0.1961 -0.7550
11780TIP3    H256832   0.712   2.032  17.205 -0.1489  1.0946 -0.6750
11781TIP3   OH256833   4.971   5.385   1.928  0.1710  0.4006 -0.3257
11781TIP3    H156834   5.048   5.402   1.875  0.0963  0.3804 -0.4399
11781TIP3    H256835   5.006   5.359   2.014  0.3076 -0.7304 -0.7035
11782TIP3   OH256836   3.027   3.274   2.786  0.6294 -0.1637  0.4927
11782TIP3    H156837   2.999   3.185   2.807 -0.3068 -0.1673 -0.6370
11782TIP3    H256838   2.951   3.313   2.742  1.2160  1.0166  0.4807
11783TIP3   OH256839   2.109   5.203  14.182 -0.0449 -0.0569 -0.7092
11783TIP3    H156840   2.079   5.164  14.264  0.2136 -1.3443 -1.1958
11783TIP3    H256841   2.071   5.291  14.181 -0.7044 -0.3173  0.4070
11784TIP3   OH256842   1.014   0.371  15.214  0.3448  1.0941 -0.3066
11784TIP3    H156843   1.040   0.439  15.276 -1.7402  2.7434 -1.1184
11784TIP3    H256844   0.955   0.314  15.264  0.3552  1.1650 -0.2138
11785TIP3   OH256845   3.176   4.944   6.034 -0.2899  0.0539 -0.2923
11785TIP3    H156846   3.152   4.866   6.084  1.0929  0.6841  1.4344
11785TIP3    H256847   3.258   4.975   6.074  0.6593  0.8571 -2.6812
11786TIP3   OH256848   5.959   4.007   3.059  0.4567 -0.1518  0.1654
11786TIP3    H156849   5.941   4.049   2.975 -2.3307  0.9992  1.2183
11786TIP3    H256850   6.010   3.929   3.037  2.5408  1.7025 -2.2348
11787TIP3   OH256851   3.265   0.377  10.524  0.1704  0.0239  0.1570
11787TIP3    H156852   3.217   0.414  10.450 -2.4363 -0.4072  1.5253
11787TIP3    H256853   3.268   0.283  10.507  0.2319  0.0064  0.2605
11788TIP3   OH256854   5.136   2.527   5.579 -0.4252  0.6735  0.2039
11788TIP3    H156855   5.221   2.527   5.534 -0.0934  2.1525  0.7609
11788TIP3    H256856   5.085   2.592   5.531 -1.0368  0.2329  0.2553
11789TIP3   OH256857   6.032   2.600   3.543 -0.0125 -0.5181 -0.4199
11789TIP3    H156858   6.054   2.668   3.479 -0.5331 -1.0332 -1.1651
11789TIP3    H256859   5.988   2.647   3.614 -0.4948 -0.0868 -0.9916
11790TIP3   OH256860   6.605   3.953   1.954 -0.3107  0.1339 -0.1149
11790TIP3    H156861   6.571   3.898   1.883  0.1789 -0.6871  0.2690
11790TIP3    H256862   6.689   3.912   1.978 -1.6783 -1.2858  2.7767
11791TIP3   OH256863   2.948   6.744   3.183 -0.5431 -0.9368 -0.0176
11791TIP3    H156864   2.871   6.689   3.198 -1.7282  0.6208 -0.0979
11791TIP3    H256865   2.920   6.806   3.115  1.0178 -0.7674 -0.5339
11792TIP3   OH256866   2.374   0.770   4.404 -0.0747 -0.0862  0.0078
11792TIP3    H156867   2.299   0.748   4.348 -0.6059  0.1153  0.6374
11792TIP3    H256868   2.393   0.689   4.450  0.7767 -0.4378 -0.9225
11793TIP3   OH256869   0.595   1.507  12.886  0.3518  0.0209 -0.4414
11793TIP3    H156870   0.602   1.411  12.885  2.4874  0.1150 -0.1023
11793TIP3    H256871   0.644   1.533  12.964 -0.1987  1.4059 -0.5343
11794TIP3   OH256872   0.706   0.558  12.329 -0.2229 -0.4175 -0.0453
11794TIP3    H156873   0.613   0.568  12.351 -0.0829 -1.2159  0.9562
11794TIP3    H256874   0.712   0.590  12.239 -1.1981  0.9593  0.3528
11795TIP3   OH256875   5.113   5.776  14.900 -0.0575 -0.1415  0.2214
11795TIP3    H156876   5.200   5.814  14.891 -0.9744  1.9684 -0.5437
11795TIP3    H256877   5.081   5.810  14.984 -1.8428  3.1729 -1.5745
11796TIP3   OH256878   6.122   5.723  12.387  0.4507  0.2385  0.3711
11796TIP3    H156879   6.040   5.723  12.339 -0.1684  0.9019  1.3857
11796TIP3    H256880   6.178   5.661  12.340 -0.3480  0.3804 -0.7923
11797TIP3   OH256881   5.587   3.197  14.317 -0.6921 -0.2833  0.2856
11797TIP3    H156882   5.504   3.229  14.350 -1.8476 -1.9345 -0.8703
11797TIP3    H256883   5.632   3.274  14.283 -1.9645  0.5454  0.4519
11798TIP3   OH256884   3.102   2.289  16.774 -0.1015  0.8289 -0.2291
11798TIP3    H156885   3.160   2.218  16.801 -0.6424  0.6767  0.5872
11798TIP3    H256886   3.131   2.364  16.826 -0.5541  0.7844  0.0884
11799TIP3   OH256887   2.628   4.033   5.009  0.8681 -0.5209  0.5358
11799TIP3    H156888   2.570   3.967   4.971  0.1926  1.0340 -1.3372
11799TIP3    H256889   2.657   4.086   4.934  3.2826 -0.1107  1.6454
11800TIP3   OH256890   0.623   1.579  15.028  0.0501 -0.1798  0.7261
11800TIP3    H156891   0.653   1.597  15.117 -1.9148 -1.0137  1.6277
11800TIP3    H256892   0.685   1.514  14.994  0.0772 -0.8421  1.9918
11801TIP3   OH256893   4.730   5.610  13.158  0.1760  0.4252 -0.1587
11801TIP3    H156894   4.685   5.604  13.074 -2.4991  0.2514  1.1944
11801TIP3    H256895   4.743   5.519  13.185 -0.1356  0.4809  0.1869
11802TIP3   OH256896   6.555   2.054   5.780 -0.3744 -0.2142  0.5389
11802TIP3    H156897   6.544   1.974   5.831  0.0457 -0.8827 -0.3984
11802TIP3    H256898   6.570   2.122   5.846 -1.4642 -0.7545  1.3921
11803TIP3   OH256899   0.211   4.128   3.278  0.2233  0.0177 -0.2849
11803TIP3    H156900   0.201   4.111   3.371  1.0526  1.8002  0.1813
11803TIP3    H256901   0.150   4.068   3.235 -0.3966 -0.6076  1.4078
11804TIP3   OH256902   6.321   1.280  11.501 -0.5303 -0.2288  0.7977
11804TIP3    H156903   6.244   1.285  11.445 -0.1941 -2.2931  0.0707
11804TIP3    H256904   6.387   1.333  11.456 -1.3994  1.3494  1.3031
11805TIP3   OH256905   2.089   1.290  16.839  0.1340 -0.0516 -0.2984
11805TIP3    H156906   2.139   1.370  16.855  0.5385 -0.7085  2.2334
11805TIP3    H256907   2.116   1.261  16.752  0.6668  2.0330 -0.8811
11806TIP3   OH256908   3.206   2.284  12.095 -0.0345  0.4605 -0.7476
11806TIP3    H156909   3.201   2.364  12.147  1.5731 -0.4042  0.8530
11806TIP3    H256910   3.129   2.288  12.039 -0.3124  2.8431 -0.3395
11807TIP3   OH256911   4.056   0.236   5.456 -0.0852  0.6877 -0.5324
11807TIP3    H156912   3.982   0.202   5.506 -0.5498 -0.3886 -1.8678
11807TIP3    H256913   4.057   0.183   5.376  2.3707  0.4195 -0.3880
11808TIP3   OH256914   1.456   0.711   2.591 -0.4190  0.3006  0.3140
11808TIP3    H156915   1.508   0.631   2.590  0.4242  0.7867 -1.7542
11808TIP3    H256916   1.369   0.684   2.618 -0.2969 -1.4343 -0.8741
11809TIP3   OH256917   2.772   5.790   5.322 -0.2591 -0.7600 -0.2384
11809TIP3    H156918   2.701   5.852   5.340 -0.2319 -0.4382 -1.1644
11809TIP3    H256919   2.768   5.726   5.393  0.0559  0.6072  1.0626
11810TIP3   OH256920   1.524   0.407   5.751  0.0668  0.0073 -0.0380
11810TIP3    H156921   1.592   0.397   5.818 -1.4750 -0.9646  1.4595
11810TIP3    H256922   1.475   0.325   5.754 -0.6310  0.3166 -1.7278
11811TIP3   OH256923   2.663   5.376  15.971  0.7170  0.2512  0.1099
11811TIP3    H156924   2.596   5.348  16.033  0.4946 -0.1175 -0.2940
11811TIP3    H256925   2.676   5.469  15.990  0.4539  0.2050  0.5225
11812TIP3   OH256926   1.397   2.648   2.170  0.1898  0.0596 -0.1564
11812TIP3    H156927   1.343   2.579   2.208  1.4966 -0.7192  0.3637
11812TIP3    H256928   1.426   2.612   2.086 -1.1109  0.9980 -1.0535
11813TIP3   OH256929   1.087   1.448  13.235 -0.7847  0.4439 -0.3444
11813TIP3    H156930   1.067   1.533  13.197 -2.9038  0.2613  0.2135
11813TIP3    H256931   1.050   1.452  13.324 -3.0209 -1.7608 -1.0385
11814TIP3   OH256932   6.577   6.495  14.220  0.1385  0.6576  0.6653
11814TIP3    H156933   6.669   6.514  14.204 -0.3018  1.5155 -1.1818
11814TIP3    H256934   6.541   6.577  14.256 -0.5273  1.4976 -1.7148
11815TIP3   OH256935   3.707   3.619   3.578 -0.1757  0.4664  0.2490
11815TIP3    H156936   3.631   3.661   3.620 -0.7604 -0.5657  0.2727
11815TIP3    H256937   3.705   3.529   3.612  1.1348  0.4576  0.3295
11816TIP3   OH256938   6.302   6.607   3.156  0.2900 -0.2016 -0.3454
11816TIP3    H156939   6.367   6.564   3.100  0.9574 -1.8495  1.5831
11816TIP3    H256940   6.287   6.692   3.113  0.9620 -1.2258 -2.8256
11817TIP3   OH256941   4.759   3.645   0.428 -0.3457 -0.0501  0.4300
11817TIP3    H156942   4.739   3.554   0.449 -0.0422 -0.0084  0.9179
11817TIP3    H256943   4.674   3.687   0.421 -0.4745 -0.2275  0.8699
11818TIP3   OH256944   4.328   0.313   5.081  0.2085  0.2540 -0.6441
11818TIP3    H156945   4.384   0.385   5.111 -0.0118  0.0037  0.3716
11818TIP3    H256946   4.239   0.349   5.084  0.0577 -0.1773  0.2341
11819TIP3   OH256947   1.854   1.111  11.919 -0.3268 -0.1203  0.1441
11819TIP3    H156948   1.883   1.106  12.010 -0.2177 -1.0547  0.0739
11819TIP3    H256949   1.800   1.190  11.916  1.0943  0.9035  0.5843
11820TIP3   OH256950   5.952   0.491   1.235  0.4801  0.1829  0.5265
11820TIP3    H156951   5.898   0.569   1.246 -0.7300 -0.5461 -0.0557
11820TIP3    H256952   5.929   0.457   1.148 -0.1206 -1.6234  1.3392
11821TIP3   OH256953   0.937   3.407  14.343 -0.3229 -0.2094 -0.5354
11821TIP3    H156954   0.987   3.373  14.417 -0.2203  1.9389  0.4734
11821TIP3    H256955   0.864   3.345  14.333  0.1685 -1.0461  0.7728
11822TIP3   OH256956   1.358   2.947  13.841  0.6531  0.1397  0.2647
11822TIP3    H156957   1.266   2.957  13.866  0.8568 -0.8771  1.5594
11822TIP3    H256958   1.364   2.858  13.807  1.2139  0.0992  0.4649
11823TIP3   OH256959   4.267   3.125  14.221 -0.0338 -0.3393 -0.6732
11823TIP3    H156960   4.234   3.170  14.299  0.6099  1.1869 -1.2377
11823TIP3    H256961   4.189   3.085  14.182 -0.2144 -2.0529  1.2732
11824TIP3   OH256962   5.225   0.984  14.452 -0.3214  0.7752  0.4981
11824TIP3    H156963   5.284   1.059  14.459  0.4872  0.3931 -1.4245
11824TIP3    H256964   5.170   0.988  14.530 -0.0712  3.1676  0.6119
11825TIP3   OH256965   1.510   4.099   2.468 -0.2584  1.2409 -0.0987
11825TIP3    H156966   1.518   4.016   2.515  2.8455  2.1346  1.2251
11825TIP3    H256967   1.511   4.075   2.376  1.2587 -0.2234  0.2420
11826TIP3   OH256968   1.318   3.546   0.862  0.8982  0.3908  0.1870
11826TIP3    H156969   1.360   3.617   0.815  1.4670  0.0305  0.1419
11826TIP3    H256970   1.328   3.569   0.954  0.0264  0.9582  0.1559
11827TIP3   OH256971   6.190   0.655  16.569 -0.6224 -0.1895  0.3541
11827TIP3    H156972   6.148   0.569  16.562 -1.4832  0.1003  1.5505
11827TIP3    H256973   6.283   0.638  16.556 -0.9216 -1.0870 -0.8212
11828TIP3   OH256974   1.065   0.782   4.556 -0.2078  0.4617  0.1098
11828TIP3    H156975   1.036   0.692   4.542 -1.1908  0.8810 -0.6824
11828TIP3    H256976   1.035   0.803   4.644 -0.0236  0.0442  0.2781
11829TIP3   OH256977   0.037   1.881   3.130  0.1328  0.0676 -0.3354
11829TIP3    H156978  -0.044   1.884   3.078 -0.0098 -2.3039 -0.3456
11829TIP3    H256979   0.008   1.855   3.218  0.9229 -1.4569 -0.5027
11830TIP3   OH256980   5.413   2.622  15.230 -0.0080 -0.4775  0.0335
11830TIP3    H156981   5.400   2.717  15.237 -1.0985 -0.6895  1.3229
11830TIP3    H256982   5.449   2.609  15.143  1.1500  1.2264  0.2037
11831TIP3   OH256983   5.246   2.107  14.062 -0.1141  0.3335 -0.3520
11831TIP3    H156984   5.326   2.067  14.095 -1.3861 -1.5769  0.5792
11831TIP3    H256985   5.196   2.129  14.140 -1.8790 -1.5116 -0.8861
11832TIP3   OH256986   4.310   3.551  11.242  0.4498  0.5061  0.0299
11832TIP3    H156987   4.306   3.638  11.202 -2.1414  0.4291 -0.0404
11832TIP3    H256988   4.288   3.491  11.171  1.3538 -0.1645  0.2929
11833TIP3   OH256989   4.424   6.676   3.003 -0.6216 -0.3701  0.7778
11833TIP3    H156990   4.337   6.647   2.976 -0.4582 -0.5515  0.4398
11833TIP3    H256991   4.411   6.711   3.092 -1.5231  1.9335 -0.1777
11834TIP3   OH256992   4.592   6.360  12.213 -0.5487 -0.2528  0.2381
11834TIP3    H156993   4.628   6.271  12.215  0.3803 -0.1496 -3.6197
11834TIP3    H256994   4.666   6.416  12.239  0.1577 -0.4460 -1.2380
11835TIP3   OH256995   0.981   5.616   4.597 -0.3641 -0.3569  0.1027
11835TIP3    H156996   0.983   5.711   4.597 -1.4238 -0.2981 -0.9770
11835TIP3    H256997   0.899   5.594   4.551  0.1254 -1.7770 -0.1557
11836TIP3   OH256998   0.598   4.691   2.486  0.1607  0.2460 -0.1431
11836TIP3    H156999   0.552   4.693   2.402  1.5070  2.3215 -0.8966
11836TIP3    H257000   0.690   4.683   2.462  0.5570  0.7825  1.1477
11837TIP3   OH257001   5.997   2.204  14.333 -0.3697  0.2237  0.0844
11837TIP3    H157002   6.086   2.233  14.311  0.9093 -1.0947  3.0182
11837TIP3    H257003   6.008   2.147  14.408 -3.7188 -0.3607  0.2888
11838TIP3   OH257004   5.952   0.479   4.074 -0.0508 -0.1477 -0.8413
11838TIP3    H157005   5.965   0.451   3.984 -0.4426  0.0514 -0.9589
11838TIP3    H257006   5.929   0.398   4.121 -1.5489  0.0278 -1.2525
11839TIP3   OH257007   3.534   1.904   1.728  0.1233 -0.1996  0.2298
11839TIP3    H157008   3.523   1.997   1.707 -2.3718 -0.4817 -0.0718
11839TIP3    H257009   3.539   1.902   1.824 -1.3875  0.1854  0.3526
11840TIP3   OH257010   0.423   0.483   5.962  0.0930  0.0493 -0.0347
11840TIP3    H157011   0.341   0.441   5.987  0.6660 -1.5535 -0.7181
11840TIP3    H257012   0.490   0.437   6.012  0.9109 -1.0188 -2.0318
11841TIP3   OH257013   1.734   2.723  13.750 -0.2445 -0.2710  0.1136
11841TIP3    H157014   1.729   2.817  13.736  0.9398 -0.2006  0.0222
11841TIP3    H257015   1.813   2.696  13.703 -0.6445 -1.3315  0.0207
11842TIP3   OH257016   2.385   4.055  11.734 -0.1373 -0.5234 -0.2310
11842TIP3    H157017   2.321   4.076  11.802 -0.1690  0.5118 -0.5752
11842TIP3    H257018   2.465   4.099  11.762 -0.0840 -0.2931 -0.7425
11843TIP3   OH257019   2.758   2.356  14.911 -0.3052  0.2694 -0.2361
11843TIP3    H157020   2.724   2.365  15.000 -0.7277  1.0688 -0.4682
11843TIP3    H257021   2.683   2.371  14.854 -0.1067 -0.5627 -0.7325
11844TIP3   OH257022   3.549   4.594  14.122 -0.0628  0.1893  0.1855
11844TIP3    H157023   3.475   4.586  14.182  0.2165 -0.3588  0.4656
11844TIP3    H257024   3.625   4.609  14.178 -0.0934  1.8135 -0.1550
11845TIP3   OH257025   0.264   0.209   2.420  0.0721  0.3376 -0.3948
11845TIP3    H157026   0.350   0.233   2.452  0.0821  0.6625 -0.6649
11845TIP3    H257027   0.264   0.113   2.420  0.1519  0.3342  0.3443
11846TIP3   OH257028   5.596   1.720  15.942  0.1870 -0.6185 -0.6174
11846TIP3    H157029   5.566   1.774  16.015  1.2561  0.3600 -0.8716
11846TIP3    H257030   5.682   1.687  15.971  0.2394 -0.9145 -1.1023
11847TIP3   OH257031   3.178   3.962   3.979  0.8959  0.2045  1.3181
11847TIP3    H157032   3.133   3.921   4.052 -0.0412  0.1591  0.7285
11847TIP3    H257033   3.270   3.967   4.007  0.8881 -1.4918  1.7502
11848TIP3   OH257034   0.314   6.023  12.680  0.3742  0.2746 -0.7077
11848TIP3    H157035   0.363   6.065  12.610  2.6027 -0.4888  0.2879
11848TIP3    H257036   0.381   5.989  12.740 -1.4008  0.3880  1.5036
11849TIP3   OH257037   2.149   3.705   5.784 -0.0178 -0.2444 -0.6516
11849TIP3    H157038   2.062   3.693   5.748 -0.2810  0.6535 -0.3456
11849TIP3    H257039   2.205   3.721   5.708 -0.5250  1.3983 -0.7072
11850TIP3   OH257040   4.965   5.013  15.436  0.1356  0.0989  0.2178
11850TIP3    H157041   4.935   5.104  15.441  1.0480  0.4525 -0.4169
11850TIP3    H257042   5.028   5.005  15.508 -0.4703 -0.2461  0.7140
11851TIP3   OH257043   5.976   6.343  16.480 -0.0189 -0.1493 -0.1701
11851TIP3    H157044   5.917   6.334  16.555 -0.4247  0.3648 -0.4251
11851TIP3    H257045   5.987   6.253  16.447  0.6570 -0.4625  0.8706
11852TIP3   OH257046   4.069   3.569  17.169  0.0617 -0.4151  0.0653
11852TIP3    H157047   3.988   3.617  17.149 -0.1058 -0.5391  0.4361
11852TIP3    H257048   4.057   3.539  17.259  1.2054  0.9571  0.7171
11853TIP3   OH257049   4.504   3.706  13.973  0.1334 -0.0659 -0.1950
11853TIP3    H157050   4.472   3.763  13.903  1.3756  1.2083  0.2194
11853TIP3    H257051   4.442   3.634  13.976 -2.2795  1.8890  0.0966
11854TIP3   OH257052   3.005   6.418   1.108  0.0184  0.2787  0.7066
11854TIP3    H157053   3.047   6.372   1.035  2.0937  2.7080  0.2401
11854TIP3    H257054   3.014   6.511   1.087 -1.1164  1.0195  3.1161
11855TIP3   OH257055   3.737   6.480  10.274  0.6408  0.5316  0.2697
11855TIP3    H157056   3.829   6.479  10.298  0.8269  1.8286 -0.3202
11855TIP3    H257057   3.735   6.516  10.185 -0.1257 -3.0868 -1.3678
11856TIP3   OH257058   4.586   1.666  10.813  0.3459  0.6528 -0.0873
11856TIP3    H157059   4.630   1.635  10.734 -1.1205  1.6312 -1.3731
11856TIP3    H257060   4.524   1.596  10.834  1.0996  0.1594  0.5310
11857TIP3   OH257061   3.965   0.667   4.504  0.6792  0.3644  0.6078
11857TIP3    H157062   3.909   0.701   4.435  0.8452 -0.0371  0.2738
11857TIP3    H257063   3.911   0.671   4.583 -0.1312 -0.8444  0.1336
11858TIP3   OH257064   3.462   0.101   5.410  0.0608  0.9468 -0.2920
11858TIP3    H157065   3.494   0.106   5.319  0.4787  2.1227 -0.1009
11858TIP3    H257066   3.509   0.171   5.455  1.4725 -0.9635  1.3717
11859TIP3   OH257067   3.703   0.110  14.472 -0.1181  0.4372  0.6958
11859TIP3    H157068   3.622   0.098  14.522  0.4244  0.7180  1.6696
11859TIP3    H257069   3.750   0.028  14.483  0.6502  1.0178  1.8739
11860TIP3   OH257070   5.295   4.519   1.743  0.0893 -0.4247  0.5535
11860TIP3    H157071   5.267   4.512   1.651  0.4160  0.0476  0.4140
11860TIP3    H257072   5.390   4.521   1.738  0.1687 -2.0368  1.0245
11861TIP3   OH257073   3.428   3.310   0.612 -0.2050 -0.2616 -0.1906
11861TIP3    H157074   3.516   3.273   0.599  0.2230  0.5251  0.3433
11861TIP3    H257075   3.420   3.376   0.543 -1.5572 -2.2711 -2.1068
11862TIP3   OH257076   2.549   4.491   5.102 -0.0422  0.7852  0.6700
11862TIP3    H157077   2.535   4.585   5.095 -0.7419  0.6495  0.1129
11862TIP3    H257078   2.598   4.480   5.184  1.5433  1.7705 -0.0879
11863TIP3   OH257079   1.562   0.824   4.176  0.3695  0.4187  0.7448
11863TIP3    H157080   1.506   0.880   4.229  2.2886  0.3097  3.0427
11863TIP3    H257081   1.620   0.884   4.128  0.0646  0.4591  0.4213
11864TIP3   OH257082   1.027   2.126   5.038 -0.0212  0.2493  0.5233
11864TIP3    H157083   1.054   2.215   5.014  2.6063 -0.3050  1.1104
11864TIP3    H257084   1.021   2.079   4.955  0.9892  0.3802  0.3690
11865TIP3   OH257085   2.631   6.451  13.361 -0.5157 -0.8645  0.0641
11865TIP3    H157086   2.578   6.378  13.394  0.9303 -1.5449  0.9915
11865TIP3    H257087   2.711   6.410  13.328  0.7303  0.3162  1.4332
11866TIP3   OH257088   5.027   2.451  17.000 -0.3708 -0.3270 -0.5844
11866TIP3    H157089   5.089   2.379  17.008 -0.7529 -0.5882  0.1286
11866TIP3    H257090   4.957   2.417  16.944 -0.1550 -0.2280 -0.9155
11867TIP3   OH257091   3.328   2.282  13.310 -0.6177  0.2044 -0.2342
11867TIP3    H157092   3.251   2.334  13.334 -0.0304  0.8462  0.3315
11867TIP3    H257093   3.300   2.191  13.321 -2.0898  0.2978 -2.5087
11868TIP3   OH257094   3.568   3.495   6.210  0.2145 -0.5610 -0.0901
11868TIP3    H157095   3.585   3.465   6.121  1.2921  1.2830 -0.5640
11868TIP3    H257096   3.473   3.500   6.216  0.1147 -1.1340 -0.9718
11869TIP3   OH257097   1.389   4.766  15.362  0.0463 -0.5501  0.0698
11869TIP3    H157098   1.294   4.777  15.371 -0.0400 -0.7287 -0.6114
11869TIP3    H257099   1.411   4.808  15.279  0.0526 -3.3325 -1.4781
11870TIP3   OH257100   2.360   6.460  11.585  0.4871  0.0200  0.4838
11870TIP3    H157101   2.408   6.417  11.514  0.7709  0.1726  0.5797
11870TIP3    H257102   2.270   6.432  11.574  0.2704  1.1178 -0.7477
11871TIP3   OH257103   1.089   0.474  16.771 -0.5498  0.3111  0.0533
11871TIP3    H157104   1.183   0.463  16.755 -0.6369  1.0505 -1.0645
11871TIP3    H257105   1.059   0.530  16.699 -1.4949  1.6793  1.4506
11872TIP3   OH257106   6.120   4.110   2.172 -0.2629  0.2992  0.0164
11872TIP3    H157107   6.114   4.161   2.092  0.6187 -1.1983 -1.0714
11872TIP3    H257108   6.196   4.053   2.158 -0.1937 -0.1223  1.8502
11873TIP3   OH257109   5.422   6.234  16.611 -0.0456 -0.4271  0.0578
11873TIP3    H157110   5.333   6.268  16.601  0.0292 -0.1607  0.2781
11873TIP3    H257111   5.477   6.300  16.571 -0.0523 -1.3250 -1.4997
11874TIP3   OH257112   5.038   0.268  11.064 -0.0502  0.7932  0.3497
11874TIP3    H157113   5.090   0.205  11.013  0.0796  0.7533  0.5326
11874TIP3    H257114   4.956   0.223  11.082 -0.9311  1.5046 -1.5410
11875TIP3   OH257115   2.941   4.190  14.540  0.2200 -0.0228 -0.1743
11875TIP3    H157116   3.036   4.195  14.551  0.4045 -3.1546  0.7759
11875TIP3    H257117   2.908   4.170  14.628 -1.0083 -1.4684 -0.9238
11876TIP3   OH257118   2.245   5.766   5.842 -0.1859 -0.0190  0.1663
11876TIP3    H157119   2.338   5.787   5.830 -0.7366  2.7079 -0.1223
11876TIP3    H257120   2.226   5.795   5.931 -0.7598 -0.5292  0.2063
11877TIP3   OH257121   5.591   4.208  13.088  0.5566 -0.0970 -0.2887
11877TIP3    H157122   5.567   4.277  13.150  0.9212  0.5808 -0.8778
11877TIP3    H257123   5.625   4.256  13.012  0.4806 -0.9250 -0.8498
11878TIP3   OH257124   3.180   6.271  14.203  0.0296 -0.2962  0.0567
11878TIP3    H157125   3.142   6.256  14.290  0.1369  1.3343  0.4310
11878TIP3    H257126   3.120   6.228  14.142 -1.2280  0.3444  0.8009
11879TIP3   OH257127   5.223   0.069  11.008 -0.4424 -0.0188 -0.2798
11879TIP3    H157128   5.237   0.010  11.082  2.1971 -1.5799 -1.8726
11879TIP3    H257129   5.273   0.030  10.936 -1.2812  2.4554 -2.3610
11880TIP3   OH257130   3.878   4.302  14.227  1.2604  0.4609 -0.0652
11880TIP3    H157131   3.816   4.305  14.300  1.0176 -1.1162 -0.1750
11880TIP3    H257132   3.826   4.329  14.151  1.1565  0.7698  0.1130
11881TIP3   OH257133   0.981   5.540   3.376 -0.1572  0.4914 -0.1378
11881TIP3    H157134   1.025   5.457   3.394  1.7783  1.5882  0.4062
11881TIP3    H257135   0.951   5.570   3.462  0.4229  1.0199 -0.1106
11882TIP3   OH257136   1.435   5.914  13.384 -0.1624 -0.2698 -0.4636
11882TIP3    H157137   1.519   5.899  13.426 -0.0538  0.1557 -0.5205
11882TIP3    H257138   1.383   5.960  13.450  0.3918  1.4226 -1.1525
11883TIP3   OH257139   6.520   5.876   2.090  0.3912  0.1512  0.1859
11883TIP3    H157140   6.606   5.912   2.072 -0.4577  2.2072  0.0358
11883TIP3    H257141   6.481   5.862   2.004  1.0208 -2.1026  0.1903
11884TIP3   OH257142   2.812   0.236   5.694 -0.0801 -0.7214  0.0475
11884TIP3    H157143   2.877   0.261   5.759 -0.7468 -1.3355  0.9754
11884TIP3    H257144   2.861   0.189   5.627  0.9100  1.4812 -0.8478
11885TIP3   OH257145   0.196   5.906   6.465 -0.0076 -0.0930 -0.5519
11885TIP3    H157146   0.211   5.813   6.445 -0.6095  0.0461 -1.7699
11885TIP3    H257147   0.275   5.950   6.433  0.7836 -0.2687  1.0387
11886TIP3   OH257148   2.261   6.346   4.520 -0.3303  0.2337 -0.2710
11886TIP3    H157149   2.260   6.419   4.582 -0.1659  0.2224 -0.2536
11886TIP3    H257150   2.217   6.381   4.442 -0.5206  0.2539 -0.1559
11887TIP3   OH257151   5.395   2.771  14.109 -0.5082  0.1964  0.1127
11887TIP3    H157152   5.352   2.856  14.112 -2.0079 -0.5632  1.2475
11887TIP3    H257153   5.352   2.724  14.038 -3.2855 -1.3524  2.5889
11888TIP3   OH257154   5.367   3.719  15.712 -0.2963 -0.6561  0.4725
11888TIP3    H157155   5.331   3.763  15.789  2.3755  2.5811  0.0884
11888TIP3    H257156   5.290   3.698  15.658 -2.0653 -1.2515  3.0453
11889TIP3   OH257157   5.849   3.290  14.326 -0.4962 -0.0331 -0.4554
11889TIP3    H157158   5.816   3.219  14.381 -2.9431 -0.6799 -2.5565
11889TIP3    H257159   5.917   3.332  14.378 -1.7409 -1.4114  2.4677
11890TIP3   OH257160   4.238   6.755  10.822 -0.2151  0.5321  0.2934
11890TIP3    H157161   4.322   6.801  10.821 -0.0728  0.2889  0.9031
11890TIP3    H257162   4.192   6.790  10.898  0.0920 -0.6802  1.0575
11891TIP3   OH257163   2.364   1.675   3.747  0.3176  0.0671  0.2183
11891TIP3    H157164   2.332   1.718   3.826 -1.5669 -1.5255  0.4070
11891TIP3    H257165   2.298   1.608   3.728  0.4601  0.6597 -2.9308
11892TIP3   OH257166   6.580   2.961  13.886 -0.4038 -0.2977 -0.3670
11892TIP3    H157167   6.516   2.931  13.821  0.8005 -1.2325 -1.1792
11892TIP3    H257168   6.625   2.881  13.914 -0.8106  0.1046  1.5551
11893TIP3   OH257169   6.355   1.099   2.421  0.1220  0.0948 -0.0273
11893TIP3    H157170   6.261   1.117   2.424  0.4079  1.8230 -0.2102
11893TIP3    H257171   6.392   1.172   2.370  1.4882 -0.9040 -0.5420
11894TIP3   OH257172   0.361   4.745  12.708 -0.0747  0.4937 -0.0719
11894TIP3    H157173   0.357   4.671  12.648  0.5369 -0.3679  0.9263
11894TIP3    H257174   0.342   4.821  12.653  1.4353 -0.1496 -1.5664
11895TIP3   OH257175   0.210   1.917  15.005 -0.3871 -0.3235 -0.0766
11895TIP3    H157176   0.168   2.001  14.984  0.6844  0.5323  1.0445
11895TIP3    H257177   0.183   1.899  15.095  1.2105  0.0082  0.4975
11896TIP3   OH257178   2.588   1.188  15.278  0.1844 -0.0012  0.0961
11896TIP3    H157179   2.592   1.093  15.268  0.0649 -0.0183  0.2032
11896TIP3    H257180   2.556   1.201  15.368  1.1161  0.1402  0.4160
11897TIP3   OH257181   1.713   0.212   3.604  0.0953  0.2362 -0.3718
11897TIP3    H157182   1.629   0.202   3.559  0.7202 -2.0413 -1.1884
11897TIP3    H257183   1.751   0.292   3.567 -0.3345 -0.4491 -2.4723
11898TIP3   OH257184   4.139   4.611  14.531  0.0760  0.0103 -0.2703
11898TIP3    H157185   4.200   4.674  14.571 -1.0720 -0.3955  2.3194
11898TIP3    H257186   4.081   4.665  14.477  1.0557  0.7322 -0.6309
11899TIP3   OH257187   3.461   5.367  16.726 -0.2913  0.6947  0.6066
11899TIP3    H157188   3.376   5.333  16.700 -0.8902  2.9857 -0.6557
11899TIP3    H257189   3.443   5.453  16.763  1.6748  3.1359 -3.4315
11900TIP3   OH257190   2.815   3.811   3.160  0.0175 -0.5393  0.2141
11900TIP3    H157191   2.830   3.724   3.196 -0.1226 -0.6507  0.0023
11900TIP3    H257192   2.836   3.803   3.067 -1.2590 -0.6776 -0.0804
11901TIP3   OH257193   6.373   4.308   1.823  0.4596 -0.3457  0.0656
11901TIP3    H157194   6.444   4.352   1.871 -0.5569  1.7082 -0.1920
11901TIP3    H257195   6.351   4.370   1.753 -1.9184 -0.6807  0.4514
11902TIP3   OH257196   1.731   0.417   0.734  0.1962 -0.5605  0.5541
11902TIP3    H157197   1.802   0.429   0.671 -2.2618  2.2995 -2.0335
11902TIP3    H257198   1.684   0.340   0.703  0.1053 -0.3191  0.0925
11903TIP3   OH257199   1.284   2.174   3.795  0.5805  0.4056 -0.1197
11903TIP3    H157200   1.262   2.084   3.771  0.2877  0.3933  0.1844
11903TIP3    H257201   1.225   2.194   3.867  1.0924  0.6179  0.2493
11904TIP3   OH257202   2.648   1.773   3.822 -0.1008  0.2940 -0.0794
11904TIP3    H157203   2.716   1.823   3.776  1.0171 -0.2179  0.9397
11904TIP3    H257204   2.568   1.791   3.774  0.2050  3.1820  0.3487
11905TIP3   OH257205   6.099   3.483   5.225 -0.0396  0.0075  0.3726
11905TIP3    H157206   6.052   3.511   5.304 -1.1661 -1.9312  0.4692
11905TIP3    H257207   6.131   3.395   5.247  0.3874 -0.2052 -1.0197
11906TIP3   OH257208   2.747   0.085  10.822 -0.1037  0.0265  0.1522
11906TIP3    H157209   2.785   0.165  10.786  0.4917  0.8055  2.3269
11906TIP3    H257210   2.769   0.017  10.759  2.8158  0.8753  0.1123
11907TIP3   OH257211   6.391   2.234   3.048  0.0827 -0.2376 -0.0877
11907TIP3    H157212   6.362   2.297   3.114 -0.6832  0.3178 -0.9418
11907TIP3    H257213   6.311   2.200   3.010  0.5056  0.4391 -1.6543
11908TIP3   OH257214   5.308   4.896  11.776  0.0115  0.6955 -0.0754
11908TIP3    H157215   5.364   4.894  11.698  0.0958  0.7904 -0.0188
11908TIP3    H257216   5.221   4.915  11.741  0.3474  2.6448 -0.0082
11909TIP3   OH257217   6.222   6.077   1.739 -0.3463  0.6141 -0.2652
11909TIP3    H157218   6.205   6.057   1.830 -0.6971  1.8518 -0.0391
11909TIP3    H257219   6.281   6.007   1.709 -0.6339 -0.0770  0.7531
11910TIP3   OH257220   1.496   3.598   2.647 -0.1461 -0.0186 -0.0754
11910TIP3    H157221   1.502   3.514   2.691  1.8769  0.1644  0.0815
11910TIP3    H257222   1.485   3.576   2.555 -1.9287 -0.4007  0.1811
11911TIP3   OH257223   1.580   2.782  13.444  0.6693 -0.4022 -0.7314
11911TIP3    H157224   1.545   2.740  13.366 -0.7242 -0.3501 -0.1610
11911TIP3    H257225   1.520   2.758  13.514  2.1433 -0.8437  0.4451
11912TIP3   OH257226   2.569   1.396  10.927 -0.0806  0.1125  0.1092
11912TIP3    H157227   2.565   1.334  10.854  0.2322  0.3703 -0.1316
11912TIP3    H257228   2.663   1.410  10.942 -0.0152  3.2499 -2.2070
11913TIP3   OH257229   6.302   0.986   4.742 -0.5493  0.0699 -0.3212
11913TIP3    H157230   6.277   0.970   4.651  0.5684  0.3180 -0.6898
11913TIP3    H257231   6.279   0.905   4.787  2.2266 -1.5845 -1.5647
11914TIP3   OH257232   0.897   2.175  16.852  0.6193  0.2654 -0.4466
11914TIP3    H157233   0.927   2.087  16.832 -1.0901 -0.1286 -1.4779
11914TIP3    H257234   0.814   2.184  16.804 -0.7994  1.3534  1.9885
11915TIP3   OH257235   2.304   3.804   0.612  0.2289 -0.3302  0.2008
11915TIP3    H157236   2.392   3.832   0.637  0.1414 -1.0648  1.4409
11915TIP3    H257237   2.316   3.717   0.575 -0.0541 -0.8538  1.2877
11916TIP3   OH257238   1.030   0.655  15.119  0.0328 -0.0524 -0.0298
11916TIP3    H157239   1.028   0.750  15.112  1.5630  0.0321  0.2501
11916TIP3    H257240   0.968   0.635  15.189  0.4019  0.8197  0.5649
11917TIP3   OH257241   4.736   1.977   5.338 -0.1375 -0.2191 -0.8616
11917TIP3    H157242   4.795   1.929   5.280 -0.7462 -1.1264 -0.7445
11917TIP3    H257243   4.786   1.987   5.419  0.7563  1.1490 -1.5375
11918TIP3   OH257244   3.553   0.151  13.536  0.0493  0.4471 -0.2634
11918TIP3    H157245   3.474   0.197  13.508  0.6177  1.2668 -0.5261
11918TIP3    H257246   3.531   0.058  13.526 -0.4455  0.6867 -1.5299
11919TIP3   OH257247   3.034   3.084  11.635 -1.0611  0.2457  0.3040
11919TIP3    H157248   3.102   3.047  11.691  0.5259  0.8571 -1.1309
11919TIP3    H257249   3.001   3.009  11.585 -0.3799  0.1595 -0.0320
11920TIP3   OH257250   6.423   0.397   0.689 -0.0930 -0.1632  0.1104
11920TIP3    H157251   6.401   0.485   0.720  0.3526  0.9769 -2.5416
11920TIP3    H257252   6.514   0.384   0.714 -0.0823  0.2426  0.2906
11921TIP3   OH257253   3.260   3.385  13.786  0.3869  0.3278 -0.4899
11921TIP3    H157254   3.224   3.438  13.715 -0.4326  0.9305  0.3567
11921TIP3    H257255   3.318   3.323  13.742 -0.7117  0.1549 -1.7793
11922TIP3   OH257256   6.595   5.467   0.401 -0.0097  0.5590 -0.6435
11922TIP3    H157257   6.582   5.476   0.306  1.4696  4.5857 -0.6915
11922TIP3    H257258   6.513   5.498   0.439 -0.2141 -0.0219 -0.6063
11923TIP3   OH257259   0.079   5.265   4.906 -0.3336  0.4045 -0.1840
11923TIP3    H157260   0.038   5.334   4.958  0.7524 -0.2286  1.6056
11923TIP3    H257261   0.153   5.308   4.862 -1.2418  0.9350 -1.2487
11924TIP3   OH257262   4.106   4.588  17.264 -0.4481  0.4502 -0.0121
11924TIP3    H157263   4.165   4.663  17.261  0.3771 -0.1783 -0.0690
11924TIP3    H257264   4.035   4.611  17.205 -0.4228  1.3563  0.2935
11925TIP3   OH257265   5.405   5.220  11.188 -0.1691  0.4297 -0.4344
11925TIP3    H157266   5.442   5.135  11.165  0.4381  0.2864  0.9568
11925TIP3    H257267   5.402   5.268  11.105 -0.9631 -1.0825 -1.3323
11926TIP3   OH257268   2.703   0.913   2.804  0.2589 -0.0962 -0.1032
11926TIP3    H157269   2.622   0.908   2.855 -0.2316  1.6083 -0.6543
11926TIP3    H257270   2.727   1.005   2.807  2.1678 -0.5585 -0.0130
11927TIP3   OH257271   2.683   1.713   4.794 -0.5057 -0.3577 -0.5167
11927TIP3    H157272   2.698   1.743   4.883  1.3104 -2.7921  0.1149
11927TIP3    H257273   2.765   1.730   4.748 -0.9952 -0.2468 -1.3812
11928TIP3   OH257274   4.799   3.545   2.544  0.1551 -0.3465 -0.4198
11928TIP3    H157275   4.703   3.547   2.550  0.2338 -0.4601  1.2868
11928TIP3    H257276   4.826   3.484   2.613  1.5254  0.9956  0.2912
11929TIP3   OH257277   4.504   0.935   4.522 -0.4981 -0.5783 -0.6444
11929TIP3    H157278   4.503   1.001   4.591 -2.5971  0.0710 -1.2216
11929TIP3    H257279   4.556   0.863   4.558 -2.6385 -0.8739  2.2381
11930TIP3   OH257280   5.802   3.368  12.447  0.1437 -0.3111  0.0991
11930TIP3    H157281   5.810   3.421  12.526  1.2453 -0.0434 -0.1778
11930TIP3    H257282   5.880   3.312  12.448  1.4155  1.2753 -1.9396
11931TIP3   OH257283   6.586   5.764  10.771  0.0117 -0.0227 -0.1980
11931TIP3    H157284   6.529   5.795  10.842  1.0242  2.1282 -0.2492
11931TIP3    H257285   6.615   5.844  10.727 -0.6847 -1.2850 -3.1834
11932TIP3   OH257286   3.961   2.163   4.883 -0.1445  0.1084  0.0479
11932TIP3    H157287   3.904   2.089   4.901  0.7340 -0.6160 -0.0977
11932TIP3    H257288   3.945   2.224   4.954  0.1923 -0.8717  0.9864
11933TIP3   OH257289   2.165   1.166  17.096 -0.3476 -0.2669 -0.5820
11933TIP3    H157290   2.114   1.176  17.015 -0.7170  0.7650 -0.2430
11933TIP3    H257291   2.250   1.204  17.075  0.9384 -3.4199 -1.6606
11934TIP3   OH257292   6.619   3.547   4.566  0.2049 -0.6144 -0.0666
11934TIP3    H157293   6.614   3.642   4.567  0.2870 -0.6025  1.4575
11934TIP3    H257294   6.609   3.521   4.657 -1.2952 -2.1582 -0.6135
11935TIP3   OH257295   4.661   4.413  13.906 -0.1862 -0.4378  0.0400
11935TIP3    H157296   4.622   4.483  13.854 -0.0335 -0.4536 -0.0976
11935TIP3    H257297   4.603   4.404  13.982  0.2435  0.4212  0.4997
11936TIP3   OH257298   4.594   0.975  13.033 -0.0890 -0.1081 -0.3449
11936TIP3    H157299   4.600   0.880  13.044 -0.3863 -0.2655 -1.3938
11936TIP3    H257300   4.518   0.987  12.976 -1.3573  0.9032  1.4811
11937TIP3   OH257301   0.460   1.524  16.618 -0.1365 -0.0663  0.3208
11937TIP3    H157302   0.548   1.538  16.584 -0.5703  1.6513 -0.1760
11937TIP3    H257303   0.442   1.601  16.672 -1.2542 -0.4847  0.5787
11938TIP3   OH257304   2.967   0.228  15.111 -0.2154 -0.0488  0.3641
11938TIP3    H157305   2.910   0.183  15.174 -1.8654  0.8725 -0.4321
11938TIP3    H257306   2.920   0.308  15.088  0.6710 -0.0200 -1.5136
11939TIP3   OH257307   0.303   2.500   2.651  0.7677 -0.4938 -0.0478
11939TIP3    H157308   0.374   2.467   2.596  1.6081  1.3858 -0.1619
11939TIP3    H257309   0.342   2.574   2.697 -1.4578  1.3679 -1.0084
11940TIP3   OH257310   5.192   0.278   1.067 -0.2184 -0.5226 -0.2268
11940TIP3    H157311   5.150   0.207   1.114  0.1517 -0.8586 -0.3999
11940TIP3    H257312   5.285   0.269   1.088 -0.2281  0.2528  0.2130
11941TIP3   OH257313   3.413   3.517   0.415  0.4721  0.1470  0.5546
11941TIP3    H157314   3.441   3.563   0.494  1.6382  0.6307 -0.1153
11941TIP3    H257315   3.339   3.568   0.382  1.0791  0.9392  0.4055
11942TIP3   OH257316   6.543   3.505   0.690  0.7193  0.2031  0.1826
11942TIP3    H157317   6.532   3.451   0.612  0.2827  3.3429 -2.1065
11942TIP3    H257318   6.637   3.503   0.707  0.8351 -0.4773 -0.4652
11943TIP3   OH257319   2.082   6.570  16.240 -0.0054 -0.1061  0.2880
11943TIP3    H157320   2.098   6.612  16.325  1.0543 -1.1918  0.6467
11943TIP3    H257321   2.007   6.618  16.204 -1.0387 -0.1680  2.2091
11944TIP3   OH257322   3.691   1.317  11.324 -0.2158 -0.0087 -0.2349
11944TIP3    H157323   3.666   1.271  11.404  0.4442 -0.5870 -0.3565
11944TIP3    H257324   3.776   1.282  11.301 -0.7126 -0.3851 -1.6089
11945TIP3   OH257325   5.964   4.416  13.568  0.0990  0.8165  0.1831
11945TIP3    H157326   5.979   4.327  13.535 -2.0035  0.2455  0.6118
11945TIP3    H257327   5.952   4.469  13.490  0.2352  0.4965 -0.0579
11946TIP3   OH257328   6.456   1.124   1.129 -0.4236  0.6886 -0.0232
11946TIP3    H157329   6.541   1.140   1.089  0.0449  0.1707  0.7178
11946TIP3    H257330   6.431   1.208   1.167  0.5461  0.4756  1.1673
11947TIP3   OH257331   0.701   5.476  15.780  0.0248 -0.0417 -0.2317
11947TIP3    H157332   0.692   5.537  15.853  0.6570  0.9934 -0.9887
11947TIP3    H257333   0.790   5.490  15.748  0.0222 -1.0320 -0.7335
11948TIP3   OH257334   3.377   4.574  15.169  0.1204  0.0773  0.2854
11948TIP3    H157335   3.457   4.522  15.168  0.8650  1.2032  0.0164
11948TIP3    H257336   3.365   4.604  15.079 -0.2221  0.4973  0.4645
11949TIP3   OH257337   2.749   6.299   3.374 -0.1193 -0.4960 -0.3936
11949TIP3    H157338   2.831   6.250   3.367  0.2916  0.3118 -1.3428
11949TIP3    H257339   2.764   6.360   3.447 -0.7285 -1.8896  0.9780
11950TIP3   OH257340   3.207   6.524  11.611 -0.0704 -0.2926  0.8099
11950TIP3    H157341   3.258   6.475  11.675 -1.5365  2.2129  4.2117
11950TIP3    H257342   3.196   6.611  11.650 -1.6450  1.2645 -2.6324
11951TIP3   OH257343   4.769   1.847   1.053  0.2574 -0.5293  0.3166
11951TIP3    H157344   4.842   1.848   1.114  0.1159 -1.0288  0.4967
11951TIP3    H257345   4.727   1.762   1.066 -0.3380 -0.2634  0.1962
11952TIP3   OH257346   2.215   0.155  10.567  0.1677 -0.2344  0.3760
11952TIP3    H157347   2.181   0.207  10.640  1.6593  0.3270  0.7043
11952TIP3    H257348   2.172   0.070  10.576 -0.8034  0.3064  1.0087
11953TIP3   OH257349   3.460   4.854  14.864 -0.5855  0.1948  0.2985
11953TIP3    H157350   3.527   4.846  14.932  0.4751 -0.7817 -0.7994
11953TIP3    H257351   3.508   4.840  14.782 -2.1991 -1.0710 -0.4976
11954TIP3   OH257352   2.737   3.450   4.786  0.0799 -0.3416  0.2295
11954TIP3    H157353   2.800   3.434   4.715  0.1295  1.0533 -0.0669
11954TIP3    H257354   2.711   3.541   4.774 -1.5753 -0.7230  0.6913
11955TIP3   OH257355   0.678   0.174  12.819 -0.0525  0.0525 -0.1629
11955TIP3    H157356   0.774   0.169  12.817 -0.0846 -0.6361 -0.1671
11955TIP3    H257357   0.652   0.152  12.730 -0.2140  0.2923 -0.1746
11956TIP3   OH257358   4.759   0.964  12.523  0.2539  0.0105  0.7175
11956TIP3    H157359   4.846   0.956  12.486 -0.8320 -2.9495 -1.6526
11956TIP3    H257360   4.747   0.884  12.575 -1.5437 -0.5158 -0.3921
11957TIP3   OH257361   3.573   0.550   4.805  0.0490 -0.3434  0.6392
11957TIP3    H157362   3.580   0.645   4.799  1.3388 -0.5083 -1.1001
11957TIP3    H257363   3.480   0.535   4.825 -0.6982  1.2395 -1.2414
11958TIP3   OH257364   4.420   6.126   6.827 -0.3482  0.1875  0.9691
11958TIP3    H157365   4.396   6.091   6.913 -1.1360 -1.5205  0.1204
11958TIP3    H257366   4.339   6.164   6.793 -0.4196 -0.3976  0.4496
11959TIP3   OH257367   1.493   2.959  16.486 -0.4811 -0.3125  0.0780
11959TIP3    H157368   1.518   3.050  16.468  0.4448 -0.6442 -0.4172
11959TIP3    H257369   1.420   2.942  16.427 -1.0090  0.2623  0.5508
11960TIP3   OH257370   1.054   5.302   1.025 -0.4383  0.0826  0.1555
11960TIP3    H157371   1.086   5.373   1.081  0.6430  0.8392 -1.3603
11960TIP3    H257372   1.060   5.224   1.080 -0.5706  0.9817  1.4892
11961TIP3   OH257373   2.755   6.302   0.114  0.1868  0.5914  0.3833
11961TIP3    H157374   2.707   6.356   0.050 -1.7119 -0.3243  0.9553
11961TIP3    H257375   2.840   6.287   0.073  0.2299  2.7132 -0.4679
11962TIP3   OH257376   5.701   1.459  14.640  0.6808 -0.5007  0.4891
11962TIP3    H157377   5.727   1.492  14.726  0.4803 -1.5544  0.9745
11962TIP3    H257378   5.629   1.516  14.614  1.0522  0.1275  0.7970
11963TIP3   OH257379   1.062   2.976  12.505 -0.4871 -0.0485  0.6233
11963TIP3    H157380   1.116   2.898  12.494  1.8669  1.2101  2.1697
11963TIP3    H257381   0.993   2.950  12.566 -1.9656 -1.7863 -1.6439
11964TIP3   OH257382   2.596   1.875   3.353  0.1330  0.2278  0.1618
11964TIP3    H157383   2.620   1.846   3.441  1.5573  0.3119 -0.1865
11964TIP3    H257384   2.679   1.896   3.310 -0.5178  0.0705 -1.2478
11965TIP3   OH257385   2.772   1.826   2.976 -0.0135  0.3285  0.7422
11965TIP3    H157386   2.865   1.848   2.971  0.0242  0.8691  2.9779
11965TIP3    H257387   2.766   1.738   2.940  1.0928  0.8744 -0.9056
11966TIP3   OH257388   6.282   5.791  14.601 -0.4720 -0.8130  0.6119
11966TIP3    H157389   6.260   5.777  14.693 -0.1183 -0.8281  0.6956
11966TIP3    H257390   6.338   5.869  14.601  1.4331 -2.1148  0.6807
11967TIP3   OH257391   6.709   6.513   4.228  0.0595  0.1141 -0.2935
11967TIP3    H157392   6.654   6.439   4.199 -0.0193  0.4231 -0.9458
11967TIP3    H257393   6.675   6.534   4.315  0.8671 -1.3931  0.4280
11968TIP3   OH257394   5.720   0.180  11.761  0.3031  0.1749 -0.1669
11968TIP3    H157395   5.741   0.133  11.841 -0.3961 -0.9520 -0.6146
11968TIP3    H257396   5.730   0.114  11.692 -4.1003 -0.4101 -0.4985
11969TIP3   OH257397   5.819   6.608   1.249 -0.3889 -0.2846 -0.2194
11969TIP3    H157398   5.853   6.613   1.338  0.5786 -0.0413 -0.5920
11969TIP3    H257399   5.867   6.675   1.201  0.4170 -1.6193 -1.3379
11970TIP3   OH257400   4.661   6.662   3.236 -0.0727 -0.4509  0.3825
11970TIP3    H157401   4.590   6.599   3.249 -1.5623  1.5444  2.5686
11970TIP3    H257402   4.620   6.748   3.242  2.3041  0.7969  0.1982
11971TIP3   OH257403   4.187   5.052  11.440  0.3558  0.2389 -0.3376
11971TIP3    H157404   4.209   4.977  11.496  2.2856  0.8936 -0.1396
11971TIP3    H257405   4.157   5.012  11.358 -1.2427 -0.7270  0.6650
11972TIP3   OH257406   4.537   6.081   4.073  0.4057  0.1972  0.0500
11972TIP3    H157407   4.623   6.118   4.056 -0.1149  2.1898  1.3891
11972TIP3    H257408   4.476   6.154   4.060 -0.8938 -0.6794  0.9301
11973TIP3   OH257409   5.984   1.571   2.069  0.1060 -0.3843  0.5454
11973TIP3    H157410   5.975   1.505   2.138  0.8574  0.6953  1.7094
11973TIP3    H257411   6.011   1.651   2.114  1.5691  0.1270 -1.0926
11974TIP3   OH257412   2.455   5.074   5.580  0.8773  0.4678  0.4079
11974TIP3    H157413   2.510   5.137   5.534  2.7398 -0.6173  1.0576
11974TIP3    H257414   2.459   5.101   5.671  0.4009  0.3210  0.4747
11975TIP3   OH257415   5.280   0.088  15.537 -0.6595  0.0505  0.1924
11975TIP3    H157416   5.229   0.048  15.608 -2.1674 -1.3183 -1.5435
11975TIP3    H257417   5.213   0.120  15.476  0.5807 -0.0917 -1.2813
11976TIP3   OH257418   3.436   5.803   2.741  0.5032 -0.0932 -0.0852
11976TIP3    H157419   3.397   5.744   2.806 -0.1112  0.7473  0.3330
11976TIP3    H257420   3.437   5.751   2.660 -2.0876  0.0141 -0.2719
11977TIP3   OH257421   2.432   4.113  11.094  0.3917 -0.2005 -0.2959
11977TIP3    H157422   2.510   4.131  11.043  1.4568  0.1669  1.3660
11977TIP3    H257423   2.444   4.165  11.174 -0.7096 -1.4946  0.7479
11978TIP3   OH257424   1.253   5.691   1.235  0.4876 -0.4198  0.1441
11978TIP3    H157425   1.179   5.748   1.257  0.7539 -0.0939  0.1889
11978TIP3    H257426   1.212   5.607   1.212  0.0542 -0.0330 -0.5294
11979TIP3   OH257427   3.024   4.762   3.761  0.2385 -0.9140 -0.1146
11979TIP3    H157428   3.038   4.857   3.750  1.2410 -1.2534 -2.5908
11979TIP3    H257429   2.979   4.736   3.680 -2.7101 -2.1531  1.7695
11980TIP3   OH257430   5.950   2.406   1.508 -0.1193 -0.1478  0.4799
11980TIP3    H157431   5.919   2.435   1.422  0.2927 -2.1270 -0.3795
11980TIP3    H257432   5.888   2.445   1.569 -0.9482  0.5770 -0.7701
11981TIP3   OH257433   3.262   2.993   1.170  0.1194 -0.4014  0.2688
11981TIP3    H157434   3.218   2.932   1.229 -0.1896 -0.6603 -0.2191
11981TIP3    H257435   3.296   2.938   1.099 -2.0717  0.1691 -1.3490
11982TIP3   OH257436   5.693   3.633  13.249  0.5784  0.3724 -0.1495
11982TIP3    H157437   5.669   3.695  13.180  2.7588  0.4361 -0.8938
11982TIP3    H257438   5.788   3.640  13.257  0.7421 -1.9164  0.6784
11983TIP3   OH257439   0.595   4.079  14.036  0.0626  0.0796  0.0736
11983TIP3    H157440   0.646   4.115  14.108 -2.1059 -0.2301  1.9144
11983TIP3    H257441   0.630   3.991  14.023  0.1853 -0.0405  1.1281
11984TIP3   OH257442   0.089   1.481  12.793  0.3626  0.4934 -0.3352
11984TIP3    H157443   0.087   1.551  12.729 -2.9755  1.1955  0.3213
11984TIP3    H257444  -0.003   1.456  12.804  1.0259 -1.2046  2.4219
11985TIP3   OH257445   2.198   0.364  12.201  0.6558  0.3223 -0.8415
11985TIP3    H157446   2.129   0.379  12.265 -2.2879 -1.9458 -3.1426
11985TIP3    H257447   2.154   0.371  12.116  4.1775  2.5888 -2.7627
11986TIP3   OH257448   3.673   3.670   3.085  0.2369 -0.2747 -0.0062
11986TIP3    H157449   3.672   3.578   3.060 -2.8855 -2.0517  5.1902
11986TIP3    H257450   3.584   3.701   3.068  0.6400  1.1471  0.3046
11987TIP3   OH257451   6.138   1.556   4.672  0.3271 -0.1463  0.1826
11987TIP3    H157452   6.141   1.494   4.600 -0.9943  0.1727 -0.1780
11987TIP3    H257453   6.150   1.503   4.751  1.9294 -0.4780 -0.2499
11988TIP3   OH257454   3.090   6.779  11.696 -0.3072  1.0410  0.5830
11988TIP3    H157455   3.018   6.749  11.641 -0.5220  0.5985  1.0914
11988TIP3    H257456   3.095   6.873  11.679  0.4908  0.7217 -1.1748
11989TIP3   OH257457   6.655   0.123  14.436 -0.1847 -0.6796  0.2606
11989TIP3    H157458   6.634   0.188  14.504 -0.1701 -1.6133  1.1901
11989TIP3    H257459   6.678   0.175  14.359 -0.4512  0.4111  0.8945
11990TIP3   OH257460   6.297   5.346   1.165  0.1475  0.5399  0.3823
11990TIP3    H157461   6.202   5.336   1.153  0.1096  1.0689  0.2255
11990TIP3    H257462   6.306   5.376   1.255  0.1416  0.8543  0.2780
11991TIP3   OH257463   4.592   3.984   5.108 -0.3337 -0.1975 -0.0713
11991TIP3    H157464   4.609   3.891   5.125 -0.7790 -0.4577 -0.9838
11991TIP3    H257465   4.500   3.997   5.131 -0.2235  0.0665  0.2299
11992TIP3   OH257466   4.435   2.751  11.263 -0.3809  0.0645 -0.3655
11992TIP3    H157467   4.402   2.666  11.234  0.1893  0.0787 -1.0867
11992TIP3    H257468   4.449   2.800  11.182  0.1863  0.5104 -0.0032
11993TIP3   OH257469   5.222   0.292   6.535 -0.4164  0.1652  0.1707
11993TIP3    H157470   5.133   0.258   6.522 -0.6900  0.2134  1.6879
11993TIP3    H257471   5.274   0.250   6.466 -1.6033  0.1234 -0.7353
11994TIP3   OH257472   1.368   5.217   4.841  0.2994  0.6118  0.3766
11994TIP3    H157473   1.360   5.301   4.885  0.1128  0.4556  0.6401
11994TIP3    H257474   1.421   5.236   4.763  0.5482  0.9027  0.6169
11995TIP3   OH257475   1.018   3.295   3.442 -0.3933  0.3669  0.4615
11995TIP3    H157476   0.955   3.236   3.401 -1.0806  1.2922  0.1501
11995TIP3    H257477   1.059   3.243   3.511 -1.3886 -0.3045  0.5681
11996TIP3   OH257478   0.710   4.323   0.051  0.7363 -0.6011  0.2087
11996TIP3    H157479   0.710   4.310   0.145  0.2592  0.5934  0.3926
11996TIP3    H257480   0.773   4.394   0.036 -0.4920  0.4616 -0.1478
11997TIP3   OH257481   2.050   5.751   3.125 -0.4881 -0.1797  0.0908
11997TIP3    H157482   1.995   5.756   3.203  1.0779 -1.3372  1.3259
11997TIP3    H257483   2.134   5.788   3.151 -0.4452  1.0426 -1.5949
11998TIP3   OH257484   0.362   5.914  16.377  0.2639 -0.0708 -0.3485
11998TIP3    H157485   0.338   6.004  16.399  0.1700 -0.8517  3.4859
11998TIP3    H257486   0.317   5.896  16.295 -3.5426  1.9219  1.0754
11999TIP3   OH257487   3.291   1.534   5.736  0.5528 -0.3864  0.4767
11999TIP3    H157488   3.249   1.618   5.756  2.1307  0.2860  1.1420
11999TIP3    H257489   3.359   1.525   5.803  0.0342 -2.5125  0.8104
12000TIP3   OH257490   2.854   1.046   2.034  0.0192 -0.3649 -0.3257
12000TIP3    H157491   2.778   0.991   2.052 -1.5528  0.6589 -3.2302
12000TIP3    H257492   2.900   1.001   1.963  0.6083  0.3999 -0.4439
12001TIP3   OH257493   6.675   1.133   5.969 -0.1256 -0.7258  0.4320
12001TIP3    H157494   6.736   1.128   6.043  0.2581 -0.1402  0.1640
12001TIP3    H257495   6.730   1.117   5.892 -0.4623 -0.9937  0.2467
12002TIP3   OH257496   3.973   4.684  16.058 -0.3518  0.5922  0.1715
12002TIP3    H157497   3.896   4.690  16.001 -0.3977 -1.8207 -0.1266
12002TIP3    H257498   4.046   4.665  15.999  0.4011  2.2438  0.5205
12003TIP3   OH257499   3.862   5.248   4.538 -0.1979  0.0453  0.3064
12003TIP3    H157500   3.945   5.288   4.565  0.5795 -0.4544 -1.2063
12003TIP3    H257501   3.831   5.303   4.466  0.1802 -1.2288 -0.8700
12004TIP3   OH257502   3.505   6.235  17.174  0.4437  0.4639 -0.1435
12004TIP3    H157503   3.446   6.162  17.194 -1.0508  1.1529 -1.7427
12004TIP3    H257504   3.507   6.287  17.254 -0.9871  0.3125  0.0162
12005TIP3   OH257505   2.840   1.072   4.140 -0.3197 -0.4992 -0.8285
12005TIP3    H157506   2.893   1.146   4.112  1.2596 -0.9872  0.6840
12005TIP3    H257507   2.870   1.053   4.229  0.0557 -3.5527 -1.4904
12006TIP3   OH257508   5.810   1.406   6.221 -0.0060 -0.1363 -0.2567
12006TIP3    H157509   5.904   1.392   6.231  0.1477  1.9729  2.4462
12006TIP3    H257510   5.804   1.492   6.179 -0.7402 -0.5240 -0.9553
12007TIP3   OH257511   0.075   1.922  11.930 -0.3938  0.4502 -0.0006
12007TIP3    H157512   0.131   1.960  11.998 -0.2699 -1.7162  1.1911
12007TIP3    H257513  -0.002   1.891  11.977 -0.0463 -1.6319 -0.7191
12008TIP3   OH257514   2.453   6.766  17.140  0.1547  0.2568 -0.1097
12008TIP3    H157515   2.413   6.716  17.068 -1.4660  1.0725  0.1917
12008TIP3    H257516   2.507   6.832  17.096 -0.0315  0.1142 -0.5600
12009TIP3   OH257517   4.285   0.822   1.216 -0.5062 -0.3382 -0.2572
12009TIP3    H157518   4.191   0.804   1.203 -0.0874 -1.7337 -1.6764
12009TIP3    H257519   4.325   0.736   1.226  0.7981  0.1407 -1.0246
12010TIP3   OH257520   2.396   5.295  14.199 -0.1985  0.4088  0.3940
12010TIP3    H157521   2.457   5.368  14.213 -1.3702  1.4439  0.3161
12010TIP3    H257522   2.311   5.337  14.185 -0.9650 -0.9896  0.6119
12011TIP3   OH257523   2.803   2.713  13.224  0.2943 -0.2803  0.2297
12011TIP3    H157524   2.841   2.798  13.244 -1.0755  0.2278  0.7741
12011TIP3    H257525   2.837   2.655  13.292  0.5972  0.0230  0.3365
12012TIP3   OH257526   0.241   1.927   4.165 -0.4339 -0.6647  0.7554
12012TIP3    H157527   0.171   1.969   4.114 -1.4187 -0.9220  1.8591
12012TIP3    H257528   0.308   1.995   4.172  0.2790 -0.9936 -1.8580
12013TIP3   OH257529   5.195   3.213  16.590 -0.9563 -0.4519 -0.4961
12013TIP3    H157530   5.144   3.214  16.671 -0.3768 -2.3962 -0.0695
12013TIP3    H257531   5.258   3.142  16.601  1.3380  1.3032 -1.3405
12014TIP3   OH257532   2.401   2.062  13.710 -0.1284  0.0093 -0.1923
12014TIP3    H157533   2.336   2.001  13.676 -1.0085 -0.3845  2.0262
12014TIP3    H257534   2.387   2.061  13.805  0.5810  2.8191  0.0195
12015TIP3   OH257535   2.086   0.698  14.774 -0.1136 -0.7752  0.2138
12015TIP3    H157536   2.093   0.641  14.850  0.2128 -0.0286  0.7574
12015TIP3    H257537   2.038   0.775  14.805 -0.1092 -0.5277 -0.3715
12016TIP3   OH257538   6.789   3.600   2.021  0.3438 -0.0955  0.1900
12016TIP3    H157539   6.746   3.670   1.972  1.9996  0.4214 -0.5995
12016TIP3    H257540   6.858   3.644   2.070  1.3155 -1.1470 -0.1859
12017TIP3   OH257541   4.037   5.735  15.741 -0.2853 -0.3180  0.0863
12017TIP3    H157542   4.105   5.700  15.683 -0.5564  0.6741 -0.8415
12017TIP3    H257543   3.963   5.754  15.684  0.3392  3.1960  0.2209
12018TIP3   OH257544   4.420   2.436  13.867 -0.4678 -0.1687  0.1361
12018TIP3    H157545   4.367   2.365  13.831  0.0768  1.0762 -3.5478
12018TIP3    H257546   4.379   2.516  13.834  1.0122  1.0647  1.1426
12019TIP3   OH257547   6.386   6.597   0.822  0.5332  0.8897  0.0447
12019TIP3    H157548   6.425   6.531   0.880 -1.5572  0.8523  1.5402
12019TIP3    H257549   6.370   6.550   0.740  1.8331  0.4073  0.0391
12020TIP3   OH257550   0.606   2.577   1.188  0.0241  0.1360 -0.5990
12020TIP3    H157551   0.638   2.587   1.098 -0.4933 -0.5354 -0.8664
12020TIP3    H257552   0.511   2.570   1.180  0.0887 -1.8584 -0.2099
12021TIP3   OH257553   6.163   4.516   2.698 -0.1214  0.3436 -0.2335
12021TIP3    H157554   6.076   4.518   2.656  0.4622  0.9720 -1.4602
12021TIP3    H257555   6.152   4.569   2.777 -1.3820 -1.2960  0.7466
12022TIP3   OH257556   5.634   1.316  15.594 -0.1188  0.4965 -0.2679
12022TIP3    H157557   5.617   1.344  15.684 -2.2597  0.2184 -0.5384
12022TIP3    H257558   5.607   1.390  15.540 -0.6643 -0.0364 -0.7473
12023TIP3   OH257559   2.199   3.741  11.024 -0.1915  0.4991 -0.1025
12023TIP3    H157560   2.122   3.692  10.993 -0.0371 -0.2103  0.6093
12023TIP3    H257561   2.274   3.692  10.991 -0.0367  0.6420  0.0361
12024TIP3   OH257562   0.463   4.134  14.323 -0.1086  0.1097 -0.8128
12024TIP3    H157563   0.391   4.148  14.384 -0.5908  0.8353 -1.5291
12024TIP3    H257564   0.516   4.065  14.363 -0.2714  0.7487  0.5435
12025TIP3   OH257565   4.927   3.141   4.979 -1.0478 -0.2103  0.0847
12025TIP3    H157566   4.854   3.083   5.001 -0.1994 -1.1366  0.5218
12025TIP3    H257567   4.979   3.146   5.059 -0.4969  0.2434 -0.2934
12026TIP3   OH257568   1.012   4.745   2.979 -0.0876  0.8189  0.5913
12026TIP3    H157569   0.992   4.805   2.907 -0.6409  0.3333  0.3351
12026TIP3    H257570   1.087   4.785   3.024  0.2194  1.1542 -0.2136
12027TIP3   OH257571   5.453   5.167  14.288  0.4078  0.0650 -0.0884
12027TIP3    H157572   5.385   5.149  14.353 -0.0040 -0.4959 -0.6732
12027TIP3    H257573   5.419   5.241  14.238  0.1417 -0.3339 -0.5006
12028TIP3   OH257574   2.490   5.081   0.578 -0.7051 -0.1880  0.5614
12028TIP3    H157575   2.444   5.165   0.576 -1.2000 -0.4543  0.3727
12028TIP3    H257576   2.444   5.028   0.513 -0.0323 -0.4197  0.2693
12029TIP3   OH257577   1.570   2.149   0.986  0.6073 -0.2181  0.1690
12029TIP3    H157578   1.587   2.238   0.956  0.1569  0.2513  1.2352
12029TIP3    H257579   1.490   2.123   0.940 -0.1646  0.5514  1.0169
12030TIP3   OH257580   4.202   3.053   1.773 -0.3432 -0.4957 -0.4342
12030TIP3    H157581   4.172   3.130   1.820 -1.0471 -0.4782 -0.8972
12030TIP3    H257582   4.128   2.992   1.776  0.1893 -1.1424 -0.1055
12031TIP3   OH257583   0.928   4.150   2.524  0.0475 -0.1002  0.8182
12031TIP3    H157584   0.906   4.231   2.571  0.7398 -0.6553  2.1465
12031TIP3    H257585   0.976   4.179   2.447 -0.2150  0.7778  0.9743
12032TIP3   OH257586   3.609   4.831   5.309 -0.1144  0.1682 -0.2338
12032TIP3    H157587   3.598   4.842   5.404  1.4639  1.3495 -0.1397
12032TIP3    H257588   3.561   4.752   5.288 -1.0085  0.2204  1.4596
12033TIP3   OH257589   5.492   1.107   2.859  0.2440 -0.4801 -0.8623
12033TIP3    H157590   5.556   1.165   2.817  0.3122 -1.2565 -1.8353
12033TIP3    H257591   5.432   1.167   2.904  2.0738  0.2648  0.7538
12034TIP3   OH257592   4.720   4.371   0.977  0.4399 -0.3139  0.3087
12034TIP3    H157593   4.772   4.307   0.929  0.4312 -0.0950  0.0041
12034TIP3    H257594   4.688   4.323   1.053  0.7409 -0.5673  0.2809
12035TIP3   OH257595   0.062   1.457  14.450 -0.0475 -0.0969 -0.8736
12035TIP3    H157596   0.149   1.488  14.476 -0.6697  0.1080  1.1103
12035TIP3    H257597   0.007   1.536  14.451 -0.9918 -0.7025  1.3375
12036TIP3   OH257598   4.564   0.048  16.942 -0.2631 -0.1781 -0.1308
12036TIP3    H157599   4.546   0.013  16.854 -0.7594 -0.6037  0.1366
12036TIP3    H257600   4.655   0.025  16.959 -0.9637 -2.6935  0.6297
12037TIP3   OH257601   4.289   5.039   5.331 -0.2347 -0.5515 -0.2702
12037TIP3    H157602   4.355   5.060   5.265  1.3815 -1.4524  0.9802
12037TIP3    H257603   4.258   5.124   5.361 -0.8809 -0.1216 -2.0305
12038TIP3   OH257604   6.040   2.690   4.195 -0.5937 -0.0018  0.2027
12038TIP3    H157605   6.079   2.754   4.135  0.4306 -1.7493 -1.0767
12038TIP3    H257606   5.947   2.692   4.176 -0.2091 -1.0747 -2.0896
12039TIP3   OH257607   3.061   1.543  16.396  0.2539  0.0236  0.2468
12039TIP3    H157608   3.067   1.456  16.356 -0.6137 -0.4805  1.1630
12039TIP3    H257609   3.130   1.594  16.354 -0.3236 -0.6003 -1.5754
12040TIP3   OH257610   3.103   6.800  15.282  0.1844  0.0164  0.5273
12040TIP3    H157611   3.116   6.825  15.191 -2.3923 -0.2982 -0.0079
12040TIP3    H257612   3.184   6.755  15.306  0.5852 -0.7157 -1.8920
12041TIP3   OH257613   5.062   3.653   2.533 -0.0691  0.1479  0.0999
12041TIP3    H157614   4.974   3.615   2.535 -0.5766  1.2859  0.8807
12041TIP3    H257615   5.119   3.585   2.568 -0.7835 -0.2870  0.4470
12042TIP3   OH257616   5.166   0.979   5.687  0.2425  0.6374 -0.2800
12042TIP3    H157617   5.100   1.020   5.630 -1.5528 -0.7098  0.7381
12042TIP3    H257618   5.168   0.888   5.660  1.9971  0.7024 -0.5087
12043TIP3   OH257619   4.738   0.888  10.973  0.5339  0.0914 -0.4282
12043TIP3    H157620   4.746   0.868  10.880 -0.2200 -0.5447 -0.3662
12043TIP3    H257621   4.749   0.804  11.017  2.2080  0.5716  0.1666
12044TIP3   OH257622   2.373   4.199  12.749  0.0404  0.6208 -0.2991
12044TIP3    H157623   2.401   4.218  12.660  1.7380  1.4225  0.3644
12044TIP3    H257624   2.437   4.243  12.805 -0.9513  0.1075  1.3298
12045TIP3   OH257625   0.128   4.227   1.670 -0.1727  0.5865  0.4267
12045TIP3    H157626   0.212   4.194   1.638 -1.5628  0.1741 -3.3130
12045TIP3    H257627   0.137   4.322   1.665 -0.8412  0.5780 -3.1776
12046TIP3   OH257628   5.299   6.075  15.061  0.3329  0.4342 -0.0820
12046TIP3    H157629   5.245   6.065  15.139  1.1318  2.1217  0.7238
12046TIP3    H257630   5.237   6.098  14.992 -0.4397 -1.5118 -0.1199
12047TIP3   OH257631   4.674   2.456  13.096 -0.2068  0.1471  0.1684
12047TIP3    H157632   4.744   2.403  13.058 -0.7398 -0.3871 -0.0831
12047TIP3    H257633   4.602   2.449  13.033 -0.8684 -0.1913  0.9476
12048TIP3   OH257634   0.371   4.340   6.567  0.1603  0.1493  0.1517
12048TIP3    H157635   0.319   4.394   6.508 -0.2962  1.0004  1.3020
12048TIP3    H257636   0.307   4.281   6.609  0.2890  0.3589  0.6555
12049TIP3   OH257637   5.734   6.179  14.678  0.1205  0.0539  0.0762
12049TIP3    H157638   5.650   6.136  14.664 -0.2932  0.8401  0.1038
12049TIP3    H257639   5.734   6.252  14.617  0.3299  0.6946  0.8298
12050TIP3   OH257640   5.125   3.982  14.212 -0.0323  0.1859  0.5909
12050TIP3    H157641   5.079   4.023  14.286 -0.8677  1.7579 -0.7173
12050TIP3    H257642   5.198   4.042  14.193  0.2961 -0.3086  0.2810
12051TIP3   OH257643   1.197   5.394  13.876 -0.5538  0.3518 -0.5489
12051TIP3    H157644   1.103   5.406  13.862 -0.6527 -0.3576 -0.5357
12051TIP3    H257645   1.207   5.300  13.893  0.1506  0.4301 -0.4945
12052TIP3   OH257646   1.275   1.195   0.590 -0.2234 -0.0193  0.5296
12052TIP3    H157647   1.205   1.130   0.584  0.5877 -0.8471 -0.4169
12052TIP3    H257648   1.334   1.161   0.657  1.1642 -1.2812 -1.2410
12053TIP3   OH257649   4.067   3.753   0.796 -0.0573  0.3353 -0.1429
12053TIP3    H157650   4.066   3.771   0.890  1.4914  0.3815 -0.1149
12053TIP3    H257651   4.076   3.658   0.789  2.0737  0.4994 -0.1935
12054TIP3   OH257652   0.401   3.618  10.601  0.0484  0.0987 -0.1588
12054TIP3    H157653   0.382   3.706  10.635  1.1331  0.1459  0.3771
12054TIP3    H257654   0.425   3.567  10.678  0.8739 -0.2575 -0.6287
12055TIP3   OH257655   3.607   0.470  15.211 -0.3671  0.0514 -0.5736
12055TIP3    H157656   3.577   0.393  15.261 -1.8357  0.8451 -0.1827
12055TIP3    H257657   3.613   0.439  15.121  0.8916 -1.0028 -0.1749
12056TIP3   OH257658   3.371   0.796   0.601  0.0857 -0.5158 -0.0812
12056TIP3    H157659   3.284   0.768   0.573 -1.3112  2.6556  0.6805
12056TIP3    H257660   3.368   0.794   0.697  0.6358  0.1501 -0.0393
12057TIP3   OH257661   5.536   2.341  12.117  0.6448 -0.0197 -0.7016
12057TIP3    H157662   5.513   2.433  12.108 -1.7655 -0.2308  1.6510
12057TIP3    H257663   5.470   2.295  12.065 -0.0696 -0.4430  0.5186
12058TIP3   OH257664   1.324   0.165  11.614 -0.0157  0.6792 -0.1077
12058TIP3    H157665   1.369   0.243  11.579  0.1222 -0.5162 -2.8038
12058TIP3    H257666   1.394   0.114  11.655  0.4377  0.5491 -1.0327
12059TIP3   OH257667   4.095   1.868   2.508  0.2481 -0.0078 -0.2536
12059TIP3    H157668   4.083   1.950   2.460  2.6104  0.4408 -0.2140
12059TIP3    H257669   4.167   1.824   2.462 -1.4382 -2.4702 -0.7297
12060TIP3   OH257670   2.357   2.016   0.237 -0.1404 -0.3191 -0.6429
12060TIP3    H157671   2.293   1.956   0.275 -0.9582 -0.2540 -1.8409
12060TIP3    H257672   2.310   2.100   0.231  0.7546  0.2760  0.3659
12061TIP3   OH257673   0.287   1.631   4.632  0.0745 -0.4919  0.1021
12061TIP3    H157674   0.215   1.607   4.573  0.1322  0.0203 -0.1842
12061TIP3    H257675   0.256   1.710   4.676  0.3678 -0.4084  0.1571
12062TIP3   OH257676   2.529   2.762   5.727 -0.6508 -0.2034  0.1994
12062TIP3    H157677   2.513   2.853   5.750 -1.4463  1.1251 -4.4334
12062TIP3    H257678   2.447   2.717   5.746 -0.4281  0.1102  2.0262
12063TIP3   OH257679   2.265   1.557   5.912 -0.0919 -0.3414 -0.4338
12063TIP3    H157680   2.294   1.637   5.954 -1.9071 -0.4514  1.1311
12063TIP3    H257681   2.286   1.488   5.975 -0.3927 -0.8403 -0.8737
12064TIP3   OH257682   3.060   0.257  13.868 -0.5662 -0.0999 -0.1304
12064TIP3    H157683   3.147   0.294  13.853  0.0503 -1.0738  0.9647
12064TIP3    H257684   3.039   0.211  13.786 -0.7148  1.3793 -0.9533
12065TIP3   OH257685   4.437   0.049   3.224 -0.2583 -0.3383 -0.2423
12065TIP3    H157686   4.501   0.023   3.290  1.2118 -0.0298 -1.4701
12065TIP3    H257687   4.374   0.102   3.272  0.1978 -0.9446  1.0909
12066TIP3   OH257688   5.718   5.005   2.496  0.0603 -0.1143  0.0587
12066TIP3    H157689   5.625   5.030   2.501 -0.2445 -0.6234 -2.0867
12066TIP3    H257690   5.765   5.083   2.523 -0.9844  0.6795 -0.3265
12067TIP3   OH257691   1.648   0.425   4.684 -0.6142  0.0595  0.1077
12067TIP3    H157692   1.665   0.406   4.776  3.9242  1.8546 -0.1296
12067TIP3    H257693   1.611   0.344   4.649 -3.0574 -0.4932  3.4895
12068TIP3   OH257694   2.609   1.099   5.160  0.7027 -0.5964 -0.1505
12068TIP3    H157695   2.660   1.166   5.115  0.9707 -0.3927  0.4459
12068TIP3    H257696   2.674   1.046   5.205  0.3954 -0.2615  0.7160
12069TIP3   OH257697   4.665   6.337  14.185 -0.2595 -0.2552  0.7159
12069TIP3    H157698   4.611   6.259  14.193 -0.7333  0.0633  0.6809
12069TIP3    H257699   4.616   6.395  14.128  0.9477 -0.6501 -0.7958
12070TIP3   OH257700   5.537   2.357   6.003  0.8856  0.0018  0.0003
12070TIP3    H157701   5.620   2.404   5.991  0.9434  0.1549  0.8927
12070TIP3    H257702   5.561   2.281   6.057  0.6332 -0.5590 -0.6752
12071TIP3   OH257703   4.624   5.651  11.345  0.1359  0.1057  0.0870
12071TIP3    H157704   4.636   5.644  11.440  0.7032  1.3699  0.1353
12071TIP3    H257705   4.584   5.737  11.333 -0.1269 -0.1415 -0.8035
12072TIP3   OH257706   6.038   3.183   0.502 -0.0900  0.5499  0.5569
12072TIP3    H157707   6.044   3.229   0.418 -0.4448  2.0690  1.3151
12072TIP3    H257708   6.057   3.092   0.481 -1.1328  0.7104 -1.3188
12073TIP3   OH257709   3.894   0.813   1.844  0.7648  0.3135  0.7200
12073TIP3    H157710   3.949   0.800   1.766  0.5932  0.2158  0.6146
12073TIP3    H257711   3.851   0.729   1.857  1.3910  0.0928  1.3869
12074TIP3   OH257712   0.451   6.720  15.667 -0.4873 -0.1524  0.4867
12074TIP3    H157713   0.476   6.767  15.588  3.0761 -1.3805  0.6842
12074TIP3    H257714   0.462   6.784  15.738 -1.5102  0.3148  0.2435
12075TIP3   OH257715   3.061   1.116  13.525 -0.5283  0.1886 -0.3466
12075TIP3    H157716   3.143   1.114  13.477  0.0178  1.7843  0.4555
12075TIP3    H257717   3.057   1.204  13.563 -2.2576 -0.0981  0.2269
12076TIP3   OH257718   2.533   3.228  12.771  0.4114 -0.0157 -0.1031
12076TIP3    H157719   2.534   3.273  12.855  3.6823  0.3115 -0.2013
12076TIP3    H257720   2.567   3.292  12.709 -0.3509 -0.8056 -1.3844
12077TIP3   OH257721   4.029   0.143  17.225  0.3329  0.1599  0.6009
12077TIP3    H157722   3.946   0.114  17.186  0.3233 -0.2338  0.9058
12077TIP3    H257723   4.019   0.124  17.318  0.8081  0.0102  0.6219
12078TIP3   OH257724   1.645   3.079  12.719 -0.6159  0.1932 -0.3426
12078TIP3    H157725   1.595   3.132  12.657  0.3438  0.4212 -0.9583
12078TIP3    H257726   1.656   2.994  12.676  2.0004  1.0443 -1.6013
12079TIP3   OH257727   5.936   4.987  16.434  0.7088  0.7399 -0.0046
12079TIP3    H157728   5.925   4.893  16.449  1.3928  0.8749  1.4698
12079TIP3    H257729   5.852   5.015  16.398  0.7162 -0.5411 -1.1041
12080TIP3   OH257730   2.366   5.491  16.216  0.0654 -0.1081 -0.1629
12080TIP3    H157731   2.293   5.431  16.203 -1.1038  1.2637 -0.1771
12080TIP3    H257732   2.391   5.519  16.128 -0.8391  1.0643 -0.0685
12081TIP3   OH257733   2.420   2.632   2.538 -0.4359 -0.0462  0.0894
12081TIP3    H157734   2.446   2.630   2.630  2.1737  1.2772 -0.5019
12081TIP3    H257735   2.340   2.684   2.537 -0.7060 -0.3809  1.6295
12082TIP3   OH257736   3.355   5.070  16.320 -0.2094 -0.4822  0.1893
12082TIP3    H157737   3.284   5.020  16.361  0.2723 -1.2984  0.0636
12082TIP3    H257738   3.414   5.003  16.286  0.2702  0.1877 -0.3203
12083TIP3   OH257739   1.363   0.503   1.972 -0.2020  0.4912  0.1240
12083TIP3    H157740   1.411   0.503   2.055 -1.6127 -0.6687  1.0158
12083TIP3    H257741   1.284   0.553   1.991 -0.9531 -0.5298 -0.2212
12084TIP3   OH257742   5.284   1.986   5.035  0.2752  0.0463  0.4654
12084TIP3    H157743   5.367   1.969   5.079  1.0449  0.1722 -0.8502
12084TIP3    H257744   5.217   1.971   5.101  1.3534  0.0068  1.5797
12085TIP3   OH257745   5.453   2.532  15.479  0.4614  0.9030  0.0464
12085TIP3    H157746   5.438   2.554  15.387  2.1395 -0.2058 -0.5481
12085TIP3    H257747   5.372   2.556  15.523 -1.2914 -0.6153 -2.1149
12086TIP3   OH257748   6.112   6.131   4.679 -0.6479 -0.4797  0.4350
12086TIP3    H157749   6.041   6.080   4.640 -1.1778 -1.3039  2.3673
12086TIP3    H257750   6.108   6.110   4.772  0.7194  1.2030  0.9187
12087TIP3   OH257751   0.798   0.287  12.109  0.4549  0.1557 -0.5583
12087TIP3    H157752   0.769   0.326  12.192  0.4650 -1.7201  0.4067
12087TIP3    H257753   0.765   0.346  12.041  1.1155  2.1687  0.7892
12088TIP3   OH257754   3.270   4.972   0.366 -0.6348  0.5845  0.1132
12088TIP3    H157755   3.352   4.945   0.325 -0.9673  1.2793 -1.0632
12088TIP3    H257756   3.272   4.932   0.453  0.9154  0.5591  0.0882
12089TIP3   OH257757   5.938   5.994   3.953 -0.4060 -0.0203 -0.1283
12089TIP3    H157758   5.962   5.912   3.909 -1.6073  0.0997 -1.0529
12089TIP3    H257759   5.880   5.968   4.024 -0.2564 -0.0249 -0.0079
12090TIP3   OH257760   0.230   1.283   2.789  0.1154  0.1203 -0.5234
12090TIP3    H157761   0.285   1.342   2.841 -1.1401  0.0402  0.9662
12090TIP3    H257762   0.230   1.322   2.701  0.5958  1.4548  0.0319
12091TIP3   OH257763   1.892   4.921   4.719  0.1025 -0.8543 -0.0254
12091TIP3    H157764   1.922   4.913   4.629  1.5310 -0.7691  0.4186
12091TIP3    H257765   1.967   4.894   4.772 -1.0491 -1.9147  1.1334
12092TIP3   OH257766   4.691   4.485  16.152  0.0743 -0.3384  0.4911
12092TIP3    H157767   4.657   4.441  16.230 -0.1089 -0.9536  0.0746
12092TIP3    H257768   4.621   4.546  16.127  0.2974  0.1440  1.0283
12093TIP3   OH257769   6.675   0.289  16.932 -0.4759 -0.2847 -0.2322
12093TIP3    H157770   6.591   0.322  16.965  0.0727 -0.6397  1.6066
12093TIP3    H257771   6.741   0.328  16.989  0.4133 -1.9954 -0.0292
12094TIP3   OH257772   4.244   5.834  12.069  1.1201  0.1986 -0.3200
12094TIP3    H157773   4.281   5.796  12.149 -0.2139  1.0366  0.7480
12094TIP3    H257774   4.257   5.929  12.080  1.1447  0.3104 -1.2315
12095TIP3   OH257775   0.008   2.520   3.274 -0.1702 -0.3103  0.3827
12095TIP3    H157776   0.005   2.433   3.234  0.1702  0.2707 -0.9668
12095TIP3    H257777  -0.080   2.555   3.264  0.6006  1.1194 -2.9986
12096TIP3   OH257778   1.904   6.187  13.064 -0.2678  0.1003 -0.1727
12096TIP3    H157779   1.915   6.258  13.127  0.6213  0.7190 -0.9988
12096TIP3    H257780   1.897   6.108  13.117  0.2614  0.6369  0.7104
12097TIP3   OH257781   6.742   4.544  14.737  0.1598 -0.0858  0.2000
12097TIP3    H157782   6.738   4.617  14.674  0.7866  0.0170  0.2728
12097TIP3    H257783   6.780   4.582  14.816 -1.6616  0.0602  1.0625
12098TIP3   OH257784   0.890   5.232  14.326 -0.5553 -0.1256  0.0243
12098TIP3    H157785   0.848   5.256  14.408 -0.3027  0.1031  0.0876
12098TIP3    H257786   0.979   5.206  14.350 -0.3807  0.2386 -0.2080
12099TIP3   OH257787   3.234   6.072   4.161  0.1516 -0.3234 -0.4908
12099TIP3    H157788   3.300   6.089   4.094  0.2173 -0.5682 -0.4930
12099TIP3    H257789   3.257   6.131   4.233  0.2059 -0.2097 -0.6025
12100TIP3   OH257790   1.742   5.969  11.830 -0.4786  0.3455 -0.2502
12100TIP3    H157791   1.692   6.039  11.788  2.5126  1.3426 -2.4820
12100TIP3    H257792   1.713   5.889  11.786 -3.7005 -0.0201  2.1166
12101TIP3   OH257793   6.116   1.470   1.450 -0.3427 -0.0077  0.1221
12101TIP3    H157794   6.133   1.454   1.543 -0.0213  1.3567  0.3193
12101TIP3    H257795   6.122   1.565   1.441 -2.4521  0.0893 -0.8885
12102TIP3   OH257796   1.263   6.612  15.223 -0.4269  0.0355 -0.2104
12102TIP3    H157797   1.285   6.575  15.309  0.4041 -1.3697 -0.9913
12102TIP3    H257798   1.168   6.607  15.218 -0.3327 -3.2048 -0.7208
12103TIP3   OH257799   4.370   4.313   1.084  0.1391 -0.4145 -0.5443
12103TIP3    H157800   4.375   4.295   0.990 -0.8555  0.6371 -0.8247
12103TIP3    H257801   4.356   4.227   1.124 -0.3579 -0.7729 -1.4566
12104TIP3   OH257802   0.670   0.798   2.142  0.2082 -0.5588  0.1830
12104TIP3    H157803   0.727   0.733   2.101  3.2981  0.9002  1.8687
12104TIP3    H257804   0.620   0.749   2.207 -0.5433 -1.8526 -1.2842
12105TIP3   OH257805   0.069   6.185  14.172  0.2361  0.1855  0.0300
12105TIP3    H157806   0.101   6.190  14.262 -1.2036 -1.5038  0.6907
12105TIP3    H257807   0.149   6.188  14.119  1.2239 -0.1461  1.4294
12106TIP3   OH257808   2.137   4.306   3.693 -0.3322 -0.1979 -0.0433
12106TIP3    H157809   2.158   4.232   3.636 -0.0314  0.8073 -1.2825
12106TIP3    H257810   2.204   4.303   3.761  3.0037  1.8886 -2.9198
12107TIP3   OH257811   2.814   3.817   3.598 -0.0992 -0.5685 -0.2580
12107TIP3    H157812   2.848   3.845   3.513  0.7224 -0.3486  0.1229
12107TIP3    H257813   2.893   3.809   3.653 -0.6457 -0.3354  0.5787
12108TIP3   OH257814   6.165   2.856   3.991  0.5468 -0.1841 -0.0434
12108TIP3    H157815   6.153   2.926   3.927  0.1057 -1.8073 -1.8535
12108TIP3    H257816   6.175   2.777   3.938 -1.1922 -1.8311  1.9048
12109TIP3   OH257817   1.137   1.254  15.532  0.3709  0.4773 -0.0635
12109TIP3    H157818   1.153   1.278  15.624  0.6937  0.6887 -0.1746
12109TIP3    H257819   1.171   1.328  15.481  0.8095  0.0669 -0.3784
12110TIP3   OH257820   4.344   0.215   2.043 -0.0902 -0.3747 -0.3578
12110TIP3    H157821   4.347   0.206   2.139 -1.3666  0.6548 -0.1934
12110TIP3    H257822   4.435   0.229   2.018  0.2521 -0.5651  0.7243
12111TIP3   OH257823   4.762   6.762  12.891  0.2281  0.5087  0.1782
12111TIP3    H157824   4.730   6.841  12.934 -3.5375 -2.4272  3.5896
12111TIP3    H257825   4.836   6.733  12.945 -1.2054 -0.4799  1.6785
12112TIP3   OH257826   5.720   4.943   1.964 -0.6546 -0.0913 -0.4624
12112TIP3    H157827   5.664   5.010   2.004 -2.1732 -1.3408 -0.3806
12112TIP3    H257828   5.711   4.867   2.022  1.5085 -0.2192 -0.2085
12113TIP3   OH257829   2.202   1.513   4.490  0.3844 -0.3755 -0.3530
12113TIP3    H157830   2.251   1.583   4.446  2.3841 -2.5601 -1.8491
12113TIP3    H257831   2.221   1.435   4.439  0.3366 -2.5467  2.6868
12114TIP3   OH257832   0.552   3.737  10.915  0.5658  0.7055  0.0550
12114TIP3    H157833   0.484   3.720  10.850  1.2765 -0.4904 -0.4000
12114TIP3    H257834   0.511   3.797  10.978 -0.4883  0.9903 -0.8837
12115TIP3   OH257835   1.329   5.667  12.959  0.6640  0.3441  0.1199
12115TIP3    H157836   1.305   5.741  13.015  0.7451  0.7837 -0.4099
12115TIP3    H257837   1.304   5.695  12.871 -0.9088 -0.9506  0.1141
12116TIP3   OH257838   3.648   0.421  14.934 -0.1394 -0.0149 -0.3241
12116TIP3    H157839   3.711   0.485  14.903 -0.3029  0.5691  0.5211
12116TIP3    H257840   3.691   0.337  14.922  1.1179  0.4209  0.9385
12117TIP3   OH257841   5.798   1.061  13.487  0.1347  0.6592  0.5958
12117TIP3    H157842   5.786   1.144  13.440 -1.7453  0.7925  1.2735
12117TIP3    H257843   5.748   0.998  13.436 -0.2989  0.4084  1.3246
12118TIP3   OH257844   5.967   1.296  11.887  0.2074 -0.5228 -0.5717
12118TIP3    H157845   6.056   1.328  11.869  0.4474  0.1204  1.5155
12118TIP3    H257846   5.912   1.374  11.883  0.2119 -0.4126  0.9064
12119TIP3   OH257847   0.903   6.117  14.910 -0.6569 -0.3942  0.1194
12119TIP3    H157848   0.930   6.176  14.980 -1.5994 -1.9885  1.8936
12119TIP3    H257849   0.982   6.107  14.856  0.8426 -0.9451  2.2777
12120TIP3   OH257850   0.906   0.046  13.697 -0.0653 -0.0608  0.7028
12120TIP3    H157851   0.862   0.128  13.717 -0.3838  0.4181 -1.6720
12120TIP3    H257852   0.991   0.072  13.661  0.8353 -0.8787  2.1582
12121TIP3   OH257853   5.188   5.607   2.228  0.1963  0.3087  0.0576
12121TIP3    H157854   5.177   5.685   2.174 -0.5127 -0.1503 -0.4902
12121TIP3    H257855   5.127   5.619   2.301 -1.8301 -0.8004 -1.3186
12122TIP3   OH257856   5.107   1.531   4.018 -0.0605 -0.6172  0.2230
12122TIP3    H157857   5.101   1.547   4.112  0.2398 -0.5223  0.2247
12122TIP3    H257858   5.180   1.585   3.988 -0.5073 -0.2147 -0.1638
12123TIP3   OH257859   5.756   5.763  13.908  0.1232  0.6440  0.3653
12123TIP3    H157860   5.819   5.692  13.917 -0.8502 -0.2182  0.6254
12123TIP3    H257861   5.757   5.785  13.815 -1.2630 -1.3740 -0.1970
12124TIP3   OH257862   0.660   0.239  16.272 -0.3054 -0.3391  0.0395
12124TIP3    H157863   0.608   0.242  16.353 -0.0605  1.4270  0.1639
12124TIP3    H257864   0.748   0.218  16.301 -0.2574  0.0961  0.2157
12125TIP3   OH257865   2.603   2.343  11.451  0.0298 -0.0367  0.3756
12125TIP3    H157866   2.560   2.264  11.418  0.6171  0.0131 -0.5603
12125TIP3    H257867   2.556   2.365  11.532 -0.7304 -0.8131  0.1555
12126TIP3   OH257868   0.692   6.324  15.281  0.3348 -0.0117 -0.5340
12126TIP3    H157869   0.609   6.325  15.329 -0.6968  1.1277 -2.1908
12126TIP3    H257870   0.666   6.332  15.189  2.2692 -0.4896 -1.1696
12127TIP3   OH257871   4.009   2.882   5.960 -0.7712 -0.0582 -0.0636
12127TIP3    H157872   4.077   2.940   5.995  1.7709 -2.3548 -0.8142
12127TIP3    H257873   3.979   2.926   5.880  0.4988  0.6022 -0.2030
12128TIP3   OH257874   0.222   3.372  16.842 -0.0302  0.2698  0.2644
12128TIP3    H157875   0.215   3.278  16.824 -0.6716 -0.2868  2.9638
12128TIP3    H257876   0.169   3.414  16.774 -1.3515 -1.4817  0.1399
12129TIP3   OH257877   0.599   0.477   4.168 -0.6280  0.1742 -0.3847
12129TIP3    H157878   0.557   0.393   4.148 -1.2456 -0.6443  3.5258
12129TIP3    H257879   0.526   0.535   4.190 -0.1053 -0.1541  2.7455
12130TIP3   OH257880   3.731   1.214  11.617 -0.0939 -0.2500 -0.2277
12130TIP3    H157881   3.785   1.142  11.649  0.8409  0.1924 -0.7809
12130TIP3    H257882   3.788   1.291  11.620 -0.5817  0.1679 -1.1366
12131TIP3   OH257883   4.517   6.466   4.544  0.6778  0.1784  0.1027
12131TIP3    H157884   4.439   6.478   4.599 -0.1952  2.2239 -1.4147
12131TIP3    H257885   4.490   6.403   4.477  0.0683  1.3134 -0.7603
12132TIP3   OH257886   3.177   1.687  13.666 -0.2139  0.2374 -0.2822
12132TIP3    H157887   3.240   1.620  13.640  0.7255  1.1507 -0.4319
12132TIP3    H257888   3.107   1.679  13.601 -0.8348 -1.5329  0.5433
12133TIP3   OH257889   0.858   2.506   3.112  0.0320 -0.2974 -0.2620
12133TIP3    H157890   0.778   2.552   3.135 -0.3906 -0.8209 -0.6603
12133TIP3    H257891   0.886   2.464   3.193  0.7543  1.1078  0.2694
12134TIP3   OH257892   1.148   1.271  12.331 -0.0504 -0.1603  0.4929
12134TIP3    H157893   1.180   1.329  12.400 -0.6245 -0.8120  1.3326
12134TIP3    H257894   1.058   1.300  12.316  0.3027  0.4569 -0.5238
12135TIP3   OH257895   2.207   6.153  16.766  0.3511 -0.0698 -0.1905
12135TIP3    H157896   2.134   6.153  16.704  1.4399  0.1248 -1.5240
12135TIP3    H257897   2.268   6.088  16.731  1.0429  0.1141  0.6324
12136TIP3   OH257898   1.244   4.248  12.627  0.3223 -0.3955 -0.3372
12136TIP3    H157899   1.190   4.320  12.660  1.9429  0.5768  0.3684
12136TIP3    H257900   1.253   4.190  12.703  1.8582  0.4817  0.2058
12137TIP3   OH257901   2.280   6.623   2.725  0.1734  0.4961  0.0627
12137TIP3    H157902   2.317   6.677   2.795 -3.5326  0.7577  2.0376
12137TIP3    H257903   2.255   6.687   2.658  2.3609  0.3840 -0.9457
12138TIP3   OH257904   5.651   3.454   5.144 -0.8109  0.1248  0.9458
12138TIP3    H157905   5.586   3.484   5.208 -1.1673  1.1256  0.1403
12138TIP3    H257906   5.602   3.394   5.088 -0.6056 -0.4181  1.3374
12139TIP3   OH257907   0.968   4.286   2.294 -0.4939  0.1066  0.0651
12139TIP3    H157908   0.875   4.265   2.289 -0.8220  1.6212 -1.2480
12139TIP3    H257909   0.998   4.282   2.203  0.9631 -1.2158  0.5546
12140TIP3   OH257910   4.758   4.617   2.866  0.3530 -0.1184 -0.5974
12140TIP3    H157911   4.755   4.679   2.793 -1.6945 -0.1876 -0.6360
12140TIP3    H257912   4.747   4.531   2.825 -1.8873 -0.0840 -0.2067
12141TIP3   OH257913   4.817   4.943  13.435  0.0180  0.1344 -0.1467
12141TIP3    H157914   4.875   4.877  13.472 -0.5866  0.4237  1.3935
12141TIP3    H257915   4.798   5.002  13.507 -2.6891 -0.3064 -0.3713
12142TIP3   OH257916   1.581   0.574  14.355  0.3044  0.2252 -0.5047
12142TIP3    H157917   1.651   0.639  14.345 -0.7400  1.2297 -1.6816
12142TIP3    H257918   1.555   0.580  14.446 -1.2787  3.1584 -1.0363
12143TIP3   OH257919   3.692   5.654   2.817  0.1930  0.3748  1.0685
12143TIP3    H157920   3.767   5.710   2.799 -1.0973  2.0009  0.5403
12143TIP3    H257921   3.619   5.694   2.769 -0.6950 -2.0844  0.1974
12144TIP3   OH257922   1.709   4.455  16.502 -0.6722  0.5862  0.5492
12144TIP3    H157923   1.716   4.550  16.488 -2.0255  0.9196  1.8973
12144TIP3    H257924   1.615   4.439  16.507 -0.4157 -0.5494  2.1283
12145TIP3   OH257925   0.875   5.449   2.525  0.0593 -0.6195  0.6663
12145TIP3    H157926   0.812   5.450   2.454 -1.8212  1.1309  2.2409
12145TIP3    H257927   0.961   5.445   2.482 -0.9155  1.8207 -1.7733
12146TIP3   OH257928   6.498   3.356  14.482 -0.4434 -0.4348  0.5360
12146TIP3    H157929   6.555   3.308  14.542 -0.1088 -1.7169 -0.7289
12146TIP3    H257930   6.539   3.442  14.472 -0.9683  0.1094  2.7449
12147TIP3   OH257931   2.253   2.456   4.600  0.2643 -0.0280  0.2396
12147TIP3    H157932   2.171   2.490   4.565  0.6966  0.0798 -0.6820
12147TIP3    H257933   2.309   2.442   4.524  0.7874 -0.9681  0.7624
12148TIP3   OH257934   0.046   2.857   3.237 -0.1217  0.0641 -0.0728
12148TIP3    H157935   0.038   2.810   3.320  0.9261  1.7489  1.0366
12148TIP3    H257936  -0.032   2.831   3.187 -1.6188  0.1896  2.0510
12149TIP3   OH257937   2.694   3.287  11.551 -0.4082  0.2423  0.0580
12149TIP3    H157938   2.658   3.375  11.538 -2.0074 -0.7345 -3.6669
12149TIP3    H257939   2.767   3.282  11.489 -1.9030 -1.7146 -1.6882
12150TIP3   OH257940   0.752   1.183   5.070  0.0201  0.5027  0.3211
12150TIP3    H157941   0.677   1.127   5.089 -1.0659  2.1917  1.2340
12150TIP3    H257942   0.740   1.260   5.126  2.4100  0.8683  0.4727
12151TIP3   OH257943   2.322   5.934   1.671 -0.2407  0.1795  0.5525
12151TIP3    H157944   2.417   5.941   1.680 -0.1933  0.6473 -0.2131
12151TIP3    H257945   2.295   5.878   1.744  0.4219  1.3247  1.7146
12152TIP3   OH257946   0.421   6.143   2.188  0.2834  0.3259 -0.3473
12152TIP3    H157947   0.486   6.213   2.190 -2.0780  2.6955 -0.5167
12152TIP3    H257948   0.345   6.182   2.144 -1.9991 -1.5592  1.6264
12153TIP3   OH257949   4.646   1.126  11.068 -0.0881 -0.2252 -0.3208
12153TIP3    H157950   4.694   1.145  11.148  1.6252  0.0614 -1.3602
12153TIP3    H257951   4.700   1.061  11.022 -1.1026 -0.4957 -1.1752
12154TIP3   OH257952   6.708   5.818   2.432 -0.1211 -0.3119  0.6557
12154TIP3    H157953   6.694   5.912   2.437  0.8666 -0.1964  1.3821
12154TIP3    H257954   6.683   5.785   2.519  0.2186 -0.6319  0.6334
12155TIP3   OH257955   0.311   1.472   3.081 -0.4854 -0.6391 -0.3818
12155TIP3    H157956   0.398   1.479   3.040 -0.7556  0.1285 -0.8487
12155TIP3    H257957   0.324   1.508   3.169 -0.3880 -0.2726 -0.5443
12156TIP3   OH257958   0.253   3.397   2.986  0.0325  0.5755 -0.7210
12156TIP3    H157959   0.286   3.307   2.983 -0.1223  0.4982 -0.2852
12156TIP3    H257960   0.331   3.451   2.997 -0.0125  0.3447  1.0489
12157TIP3   OH257961   2.387   1.021  11.162 -0.1027  0.2845  0.0993
12157TIP3    H157962   2.439   1.093  11.199  0.3936  0.6846 -1.3010
12157TIP3    H257963   2.298   1.054  11.160  0.1127  0.8797 -0.4828
12158TIP3   OH257964   3.301   3.743   5.836 -0.0109  0.0883  0.5114
12158TIP3    H157965   3.265   3.730   5.748  0.5927 -0.6856  0.3708
12158TIP3    H257966   3.234   3.706   5.894  0.0670 -0.3831  0.3108
12159TIP3   OH257967   0.575   6.807  11.864  0.7179 -0.2167 -0.2965
12159TIP3    H157968   0.598   6.811  11.957  2.3724  1.3700 -0.7179
12159TIP3    H257969   0.486   6.841  11.859  0.3917 -0.8768  0.7585
12160TIP3   OH257970   6.065   3.575   6.252  0.2249 -0.0204  0.7576
12160TIP3    H157971   6.093   3.666   6.266  0.6558  0.0235 -0.2814
12160TIP3    H257972   6.146   3.529   6.228 -0.1386 -0.4795  0.3913
12161TIP3   OH257973   5.124   3.417   2.646  0.2125 -0.1464  0.6500
12161TIP3    H157974   5.068   3.358   2.697 -1.7200  0.4312 -0.6846
12161TIP3    H257975   5.189   3.359   2.606 -1.5824 -1.4320 -0.5746
12162TIP3   OH257976   3.176   2.967   3.624 -0.0552 -0.2195 -0.1052
12162TIP3    H157977   3.162   2.887   3.573 -0.0835 -2.0049  2.4448
12162TIP3    H257978   3.090   3.009   3.628 -0.0322 -0.0004 -1.5099
12163TIP3   OH257979   2.208   1.201  11.038  0.1157 -0.4306 -0.2843
12163TIP3    H157980   2.181   1.188  10.947 -0.3359  0.9107 -0.3644
12163TIP3    H257981   2.284   1.258  11.033 -0.9724  1.1138  0.2362
12164TIP3   OH257982   5.904   1.342  15.643 -0.5052 -0.0545 -0.1773
12164TIP3    H157983   5.810   1.330  15.631 -0.5861 -0.3757  0.6961
12164TIP3    H257984   5.937   1.255  15.662  0.0007  0.0306 -0.6416
12165TIP3   OH257985   4.400   2.178   4.528 -0.5557 -0.2863 -0.5946
12165TIP3    H157986   4.332   2.176   4.595 -0.8904 -0.2616 -0.9324
12165TIP3    H257987   4.479   2.147   4.573 -0.7971 -0.3509 -0.2139
12166TIP3   OH257988   0.773   1.053   4.473  0.1697  0.3257  0.6007
12166TIP3    H157989   0.798   1.102   4.552  0.9153 -0.8701  1.1337
12166TIP3    H257990   0.854   1.011   4.444 -0.5776 -1.2076  0.6094
12167TIP3   OH257991   3.056   2.718  15.663 -0.3646  0.0002 -0.0918
12167TIP3    H157992   3.066   2.670  15.745 -1.1038  0.5425  0.3283
12167TIP3    H257993   3.115   2.793  15.671 -0.2569 -0.0769 -0.1596
12168TIP3   OH257994   4.812   2.637  12.268  0.4732  1.2671  0.2152
12168TIP3    H157995   4.842   2.633  12.177  1.5048 -1.4801  0.5616
12168TIP3    H257996   4.892   2.636  12.320 -0.0548 -0.5440  1.1074
12169TIP3   OH257997   2.572   0.919  15.145 -0.0616 -0.2452  0.0629
12169TIP3    H157998   2.612   0.851  15.090  0.0006 -0.5756  0.5118
12169TIP3    H257999   2.513   0.965  15.086  0.9850  0.2538 -0.6264
12170TIP3   OH258000   0.104   6.342   1.109 -0.1434  0.2697  1.2417
12170TIP3    H158001   0.134   6.391   1.185  0.5532 -1.3060  2.0337
12170TIP3    H258002   0.183   6.302   1.073 -0.6042  0.1980  0.2794
12171TIP3   OH258003   2.058   5.726  12.122  0.8978  0.5820  0.2502
12171TIP3    H158004   2.017   5.809  12.143  2.8202  1.9414 -1.0590
12171TIP3    H258005   1.998   5.685  12.059 -1.7798 -0.7366  3.3444
12172TIP3   OH258006   6.375   5.296   3.315  0.4982  0.3243  0.6482
12172TIP3    H158007   6.311   5.225   3.308  0.0737  0.7506  0.1351
12172TIP3    H258008   6.455   5.258   3.279 -0.5863  1.1516 -3.0894
12173TIP3   OH258009   0.063   1.828   6.171 -0.1633  0.5713  0.3902
12173TIP3    H158010  -0.011   1.793   6.221  0.3372 -0.4681  0.4160
12173TIP3    H258011   0.130   1.761   6.177 -0.2444  0.1944 -2.0722
12174TIP3   OH258012   1.451   4.704   3.536  0.4159  1.1200  0.5885
12174TIP3    H158013   1.462   4.783   3.589 -1.1486  0.8656  1.3653
12174TIP3    H258014   1.356   4.690   3.534  0.5450  0.1870 -0.9312
12175TIP3   OH258015   0.325   6.525  16.975 -0.6342 -0.2574 -0.1571
12175TIP3    H158016   0.411   6.529  16.934 -1.4857 -0.1222 -2.0311
12175TIP3    H258017   0.268   6.573  16.915 -1.9605 -0.0391  1.2263
12176TIP3   OH258018   1.922   6.230  12.054 -0.0494 -0.1125  0.1275
12176TIP3    H158019   1.883   6.191  12.133  1.5032  2.5457  2.3615
12176TIP3    H258020   1.901   6.323  12.060  0.3225  0.2279 -2.5440
12177TIP3   OH258021   0.321   6.423  15.176 -0.0316  0.5302  0.2790
12177TIP3    H158022   0.332   6.444  15.269  1.5714  0.6791  0.0766
12177TIP3    H258023   0.349   6.502  15.130  3.0517 -0.8219 -0.4056
12178TIP3   OH258024   4.088   2.898   1.048 -0.4116  0.3800 -0.2480
12178TIP3    H158025   3.998   2.871   1.029 -0.0989 -0.0656 -1.1776
12178TIP3    H258026   4.081   2.989   1.075 -1.1974  0.2007  0.1614
12179TIP3   OH258027   4.248   5.955   1.514  0.3680 -0.2285  0.7438
12179TIP3    H158028   4.344   5.955   1.509  0.3968 -1.1702  1.0907
12179TIP3    H258029   4.229   5.924   1.602 -0.2628  0.2812  0.7934
12180TIP3   OH258030   4.761   4.469  13.422 -0.1776  0.1872  0.2148
12180TIP3    H158031   4.682   4.418  13.437  0.9571 -1.5735  0.3982
12180TIP3    H258032   4.797   4.434  13.340  0.4953  0.8540  0.2130
12181TIP3   OH258033   4.694   0.803   0.089 -0.3348  0.1093 -0.2664
12181TIP3    H158034   4.712   0.808  -0.005 -0.2196  1.2623 -0.1982
12181TIP3    H258035   4.600   0.819   0.096 -0.1987  0.8548 -0.1267
12182TIP3   OH258036   3.241   0.173   5.666 -0.1702 -0.4861 -0.3676
12182TIP3    H158037   3.172   0.124   5.621  1.1379  0.0304 -3.1780
12182TIP3    H258038   3.306   0.107   5.689 -0.1201 -0.5525 -0.6989
12183TIP3   OH258039   3.726   6.292   1.537  0.2505  0.1981 -0.2834
12183TIP3    H158040   3.767   6.375   1.514  0.6678 -0.0425 -0.4284
12183TIP3    H258041   3.633   6.305   1.522  0.1415  1.0732  0.9911
12184TIP3   OH258042   1.858   2.984   5.542  0.4694  0.1699 -0.2643
12184TIP3    H158043   1.900   2.978   5.456 -0.4706 -0.9421 -0.6676
12184TIP3    H258044   1.818   2.899   5.555  0.1937  0.4838  1.0845
12185TIP3   OH258045   6.263   5.785   3.741  0.4191  0.3298 -0.4576
12185TIP3    H158046   6.233   5.732   3.814  0.4559  1.5379  0.4643
12185TIP3    H258047   6.195   5.774   3.674 -0.3015  0.2681  0.2691
12186TIP3   OH258048   3.805   3.117   0.711  0.1301 -0.7816  0.7386
12186TIP3    H158049   3.735   3.135   0.648  1.7828 -0.2303 -1.0461
12186TIP3    H258050   3.777   3.160   0.792 -2.3474 -2.0223  0.6127
12187TIP3   OH258051   6.181   1.528  14.064  0.5882 -0.1779 -0.5466
12187TIP3    H158052   6.194   1.610  14.017  0.1072 -0.1425 -0.6205
12187TIP3    H258053   6.212   1.545  14.153  0.7753 -0.0104 -0.6450
12188TIP3   OH258054   2.248   2.161   6.345 -0.7772 -0.6921 -0.2675
12188TIP3    H158055   2.334   2.190   6.312 -0.7918  1.3621  1.2878
12188TIP3    H258056   2.236   2.075   6.306  1.6700 -0.7553 -1.1131
12189TIP3   OH258057   5.204   3.380   1.489 -0.2324  0.2211  0.3070
12189TIP3    H158058   5.148   3.443   1.535 -0.3691 -0.2387  0.7895
12189TIP3    H258059   5.190   3.398   1.396  0.9119  1.9270  0.4315
12190TIP3   OH258060   2.089   4.215   6.788 -0.3866 -0.5722 -0.3834
12190TIP3    H158061   2.090   4.120   6.775 -0.9553 -0.2705 -3.0529
12190TIP3    H258062   1.996   4.238   6.792 -0.2529 -0.1299  0.4457
12191TIP3   OH258063   4.801   4.809  16.313  0.4556  0.4164 -0.1451
12191TIP3    H158064   4.732   4.863  16.274  0.0633 -0.6383 -0.9811
12191TIP3    H258065   4.758   4.764  16.386  0.1020 -0.5933 -0.9499
12192TIP3   OH258066   5.980   1.439   0.833 -0.3875  0.2574  0.2842
12192TIP3    H158067   6.062   1.488   0.833 -0.6769  0.7970 -1.1835
12192TIP3    H258068   5.917   1.498   0.791 -1.1023 -0.8171 -0.2033
12193TIP3   OH258069   5.637   1.001   1.205 -0.0112  0.2930  0.8161
12193TIP3    H158070   5.635   1.064   1.277  0.0337 -0.1068  1.1722
12193TIP3    H258071   5.730   0.989   1.186 -0.0593  1.6253 -0.4104
12194TIP3   OH258072   2.747   4.597   2.290 -1.1603 -0.1275 -0.4923
12194TIP3    H158073   2.668   4.586   2.238 -1.0724  1.2683 -0.9722
12194TIP3    H258074   2.741   4.687   2.323 -0.4972 -0.5002  0.6913
12195TIP3   OH258075   3.509   4.226   5.623  0.0386  0.4752 -0.4273
12195TIP3    H158076   3.604   4.232   5.638 -0.3993  0.3521  3.0123
12195TIP3    H258077   3.490   4.133   5.626 -0.5050  0.6225  1.6044
12196TIP3   OH258078   4.427   0.932   0.527 -0.1960  0.2289 -0.0940
12196TIP3    H158079   4.355   0.943   0.589 -0.4981  0.9279 -0.5495
12196TIP3    H258080   4.402   0.856   0.474  1.0785 -1.7378  1.9736
12197TIP3   OH258081   3.369   1.057   0.736  0.4106 -0.2402 -0.2882
12197TIP3    H158082   3.287   1.050   0.786 -0.3326 -0.9939 -1.5407
12197TIP3    H258083   3.362   0.988   0.670  1.3023  0.7763 -1.4891
12198TIP3   OH258084   2.931   5.154   3.273  0.0970 -0.1289 -0.5752
12198TIP3    H158085   3.012   5.173   3.320 -0.7835 -1.6204  1.7177
12198TIP3    H258086   2.957   5.145   3.181  2.4231 -0.0703  0.0400
12199TIP3   OH258087   1.361   1.918  14.012  0.0359 -0.4484 -0.7736
12199TIP3    H158088   1.314   1.892  14.091  0.4414 -1.6318 -0.9045
12199TIP3    H258089   1.452   1.928  14.041 -0.2420  1.9693 -0.4887
12200TIP3   OH258090   0.640   3.067  12.598  0.1984  0.4498 -0.0972
12200TIP3    H158091   0.613   3.047  12.688  1.5034  2.0874  0.7239
12200TIP3    H258092   0.563   3.106  12.558 -0.4793 -0.5228  0.2119
12201TIP3   OH258093   5.145   1.613   0.647 -0.3750  0.5411  0.3086
12201TIP3    H158094   5.077   1.583   0.586  1.0790 -0.8707 -0.6973
12201TIP3    H258095   5.166   1.702   0.618 -0.0254  0.0557 -1.0201
12202TIP3   OH258096   6.536   4.321  15.924  0.2063  0.6563 -0.3399
12202TIP3    H158097   6.564   4.365  16.004 -0.9099 -0.6499  0.8257
12202TIP3    H258098   6.553   4.384  15.854  0.6469  2.0574  0.9834
12203TIP3   OH258099   6.582   4.829   0.632 -0.0534  0.6446  0.2957
12203TIP3    H158100   6.561   4.761   0.696  0.7143  0.0268 -0.1001
12203TIP3    H258101   6.676   4.846   0.644  0.6538 -1.0978 -2.1665
12204TIP3   OH258102   5.982   6.144  14.427  0.4272 -0.0438 -0.4771
12204TIP3    H158103   6.033   6.185  14.357  0.5300 -0.0618 -0.4128
12204TIP3    H258104   5.940   6.069  14.386  1.2482 -0.6224 -0.3030
12205TIP3   OH258105   0.973   3.914   0.774  0.0115 -0.4874  0.1242
12205TIP3    H158106   0.909   3.846   0.796  1.5774 -1.6018  1.5018
12205TIP3    H258107   0.988   3.903   0.680 -1.3539 -0.5892 -0.1013
12206TIP3   OH258108   1.565   4.424   4.569 -0.2593 -0.5464 -0.0148
12206TIP3    H158109   1.486   4.402   4.520 -2.4117  1.4086  2.2816
12206TIP3    H258110   1.601   4.500   4.523 -0.9165 -0.1778  0.0677
12207TIP3   OH258111   6.636   1.796  16.216  0.6844 -0.1026 -0.2168
12207TIP3    H158112   6.644   1.891  16.226 -1.3751  0.3781 -2.2705
12207TIP3    H258113   6.609   1.783  16.125 -0.7734 -2.5246  0.4640
12208TIP3   OH258114   1.476   1.325   1.428 -0.1114 -0.4887  0.0851
12208TIP3    H158115   1.396   1.302   1.381 -0.6252  0.5681  0.4178
12208TIP3    H258116   1.539   1.348   1.359 -0.0150 -1.5227 -0.1851
12209TIP3   OH258117   3.664   0.603  12.626  0.1510  0.4778 -0.0646
12209TIP3    H158118   3.711   0.528  12.590  1.5988  1.1643  0.3494
12209TIP3    H258119   3.581   0.566  12.658  0.7773 -0.9159  0.0091
12210TIP3   OH258120   3.410   2.176  11.953 -0.1619  0.6126  0.1317
12210TIP3    H158121   3.342   2.216  12.008 -0.4609  0.9225 -0.4445
12210TIP3    H258122   3.387   2.083  11.951 -2.4757  1.0834 -2.5522
12211TIP3   OH258123   5.858   4.339   1.572  0.0487 -0.0025 -0.1708
12211TIP3    H158124   5.841   4.382   1.488 -1.0746  0.3434  0.2183
12211TIP3    H258125   5.928   4.277   1.553 -1.0257 -0.8287 -1.6636
12212TIP3   OH258126   3.644   5.627   2.161  0.1677  0.2462 -0.3268
12212TIP3    H158127   3.550   5.644   2.153  0.1939  0.1606 -0.8036
12212TIP3    H258128   3.650   5.556   2.224 -0.0934  0.1888 -0.3654
12213TIP3   OH258129   3.716   0.707   1.124 -0.5177  0.3831 -0.0062
12213TIP3    H158130   3.748   0.728   1.211  0.0107  0.2010 -0.1524
12213TIP3    H258131   3.687   0.791   1.088  0.6161  0.7123 -0.1981
12214TIP3   OH258132   4.519   3.716  15.652 -0.2339 -0.2285  0.3583
12214TIP3    H158133   4.533   3.809  15.669  0.3652 -0.3158  0.3606
12214TIP3    H258134   4.499   3.679  15.738  1.6727 -0.4692  0.7416
12215TIP3   OH258135   6.129   2.620   5.078 -0.3058 -0.5340 -0.4287
12215TIP3    H158136   6.181   2.654   5.151 -0.5406 -4.5546  1.8898
12215TIP3    H258137   6.189   2.617   5.004  0.1250  3.0353 -0.3776
12216TIP3   OH258138   1.370   0.009   1.107  0.3115  0.3928  0.0522
12216TIP3    H158139   1.432  -0.045   1.155  2.0571  0.7532 -1.6687
12216TIP3    H258140   1.380   0.096   1.145  1.6673  0.6691 -0.8349
12217TIP3   OH258141   4.731   0.586  12.088  0.4577  0.5464  0.0703
12217TIP3    H158142   4.767   0.618  12.006 -0.3678  1.9389  0.2134
12217TIP3    H258143   4.690   0.502  12.066 -0.2419  1.1658 -1.0737
12218TIP3   OH258144   1.516   3.878   0.353  0.1933 -0.0841 -0.3297
12218TIP3    H158145   1.556   3.792   0.340  0.3270 -0.6485  2.9941
12218TIP3    H258146   1.543   3.904   0.441 -0.5804  3.0058 -0.8840
12219TIP3   OH258147   0.978   5.181  13.547 -0.4279 -0.5523 -0.8574
12219TIP3    H158148   1.064   5.152  13.517  0.0100  0.1784 -0.3346
12219TIP3    H258149   0.976   5.275  13.529  0.3555  0.2269  2.3620
12220TIP3   OH258150   1.491   0.401  15.637 -0.1054  0.2170  0.5419
12220TIP3    H158151   1.414   0.419  15.582  0.2494  2.6998  0.7269
12220TIP3    H258152   1.499   0.306  15.636 -2.2297 -0.0313 -0.7787
12221TIP3   OH258153   0.138   2.597   0.629  0.4970  0.2516 -0.1108
12221TIP3    H158154   0.097   2.588   0.543  1.1673  0.2607 -0.4409
12221TIP3    H258155   0.067   2.621   0.688  0.0446  0.3103 -0.6770
12222TIP3   OH258156   0.005   3.779   0.162 -0.1854  0.1492 -0.5051
12222TIP3    H158157   0.091   3.775   0.120  0.7276 -1.2346  1.3464
12222TIP3    H258158  -0.010   3.872   0.178  0.4247  0.5063 -1.8708
12223TIP3   OH258159   3.901   6.736  15.546  0.0074  0.1327 -0.4086
12223TIP3    H158160   3.864   6.653  15.579 -1.7149  0.9518 -0.1589
12223TIP3    H258161   3.962   6.709  15.478  2.5127 -1.5438  2.2701
12224TIP3   OH258162   6.590   4.284  13.055  0.0712  0.0847 -0.1637
12224TIP3    H158163   6.660   4.231  13.092  1.2337 -0.2580 -2.6959
12224TIP3    H258164   6.602   4.278  12.960 -3.0743  0.4467 -0.6999
12225TIP3   OH258165   0.022   1.622  14.881  0.1048  0.1945  0.7828
12225TIP3    H158166   0.031   1.549  14.820 -0.2763  1.3366 -0.7095
12225TIP3    H258167   0.109   1.662  14.883  0.5632 -0.8094  2.3206
12226TIP3   OH258168   6.697   1.465  13.718 -0.2430  0.1575  0.6354
12226TIP3    H158169   6.719   1.387  13.769  1.0003  1.6033  2.3898
12226TIP3    H258170   6.760   1.466  13.646  1.9184  1.2453  2.4613
12227TIP3   OH258171   4.169   6.785   1.045  0.0022  0.0120  0.1317
12227TIP3    H158172   4.188   6.871   1.007 -1.1639  0.0831 -0.3428
12227TIP3    H258173   4.254   6.741   1.050  0.5752  1.0953  0.1463
12228TIP3   OH258174   5.486   3.217   1.779  0.3572  0.6535  0.0342
12228TIP3    H158175   5.425   3.164   1.831 -0.4991  1.3707 -0.2121
12228TIP3    H258176   5.573   3.190   1.809 -0.0880  0.0082  0.7871
12229TIP3   OH258177   0.460   4.914   1.666  0.0137 -0.4288 -0.2944
12229TIP3    H158178   0.494   4.918   1.755  0.0553  2.1007 -0.3593
12229TIP3    H258179   0.417   4.999   1.653  1.2210 -0.1487 -3.1544
12230TIP3   OH258180   6.213   5.036   4.319  0.2118 -0.1097  0.1866
12230TIP3    H158181   6.263   5.076   4.390 -0.7486  0.3106  0.6476
12230TIP3    H258182   6.202   5.106   4.255  1.6270 -0.6661 -0.6975
12231TIP3   OH258183   4.438   5.216   5.760  0.0397 -0.6034  0.8910
12231TIP3    H158184   4.446   5.235   5.853  0.6996  0.9967  0.5483
12231TIP3    H258185   4.528   5.199   5.730  0.1161  0.8123  0.2106
12232TIP3   OH258186   5.105   5.216  13.359 -0.4297  0.5148 -0.4078
12232TIP3    H158187   5.022   5.263  13.368 -0.5364  0.4003 -0.7631
12232TIP3    H258188   5.166   5.281  13.323  0.5515  1.5666  2.8393
12233TIP3   OH258189   1.735   3.764  16.642  0.2219 -0.1456  0.2452
12233TIP3    H158190   1.816   3.815  16.651  0.9671 -1.4213  1.1928
12233TIP3    H258191   1.697   3.765  16.730 -0.6914  0.2437 -0.1430
12234TIP3   OH258192   4.206   0.851  13.149 -0.2775 -0.3448  0.0584
12234TIP3    H158193   4.224   0.775  13.205 -0.2114 -1.1162 -0.9766
12234TIP3    H258194   4.197   0.814  13.061 -0.4713  0.8291 -0.4316
12235TIP3   OH258195   2.438   3.541   5.601 -0.3404  0.0318 -0.3394
12235TIP3    H158196   2.467   3.537   5.692 -1.9768 -2.4877  0.1612
12235TIP3    H258197   2.443   3.634   5.578  2.4718  0.4437  1.4737
12236TIP3   OH258198   1.903   3.508  14.122 -0.3515  0.2345 -0.1593
12236TIP3    H158199   1.859   3.518  14.038 -3.3498  0.6467  1.3287
12236TIP3    H258200   1.904   3.596  14.160  1.1006  0.0827  0.2053
12237TIP3   OH258201   5.488   6.538  15.325 -0.3113  0.0692 -0.1765
12237TIP3    H158202   5.425   6.482  15.369 -2.7403  0.7591 -2.4997
12237TIP3    H258203   5.445   6.623  15.317  0.7975  0.5322 -2.0116
12238TIP3   OH258204   2.598   6.730   1.432  0.4504 -0.0505  0.0038
12238TIP3    H158205   2.612   6.707   1.524 -0.0952 -1.7382 -0.2935
12238TIP3    H258206   2.604   6.825   1.429 -0.0783  0.0708  1.8786
12239TIP3   OH258207   4.532   5.334  15.769  0.2805 -0.1385  0.3189
12239TIP3    H158208   4.570   5.420  15.750 -1.9121  0.7808 -0.3002
12239TIP3    H258209   4.569   5.276  15.703  0.1958  0.8268 -0.6033
12240TIP3   OH258210   4.471   5.552   0.641  0.4863  0.0438  0.1257
12240TIP3    H158211   4.492   5.464   0.672  1.3730  0.8353  1.9288
12240TIP3    H258212   4.377   5.550   0.624  0.0319 -0.6457  2.4110
12241TIP3   OH258213   2.844   0.242  16.129  0.2994  0.6122 -0.4272
12241TIP3    H158214   2.766   0.297  16.137  0.0083  0.0977  0.4361
12241TIP3    H258215   2.901   0.270  16.201  0.3099  0.0530 -0.2113
12242TIP3   OH258216   5.148   0.391   4.858  0.4984 -0.2411  0.5587
12242TIP3    H158217   5.241   0.396   4.836  0.5463  2.8456  0.9998
12242TIP3    H258218   5.103   0.424   4.780 -0.2496 -1.4806  0.4407
12243TIP3   OH258219   1.148   5.994   2.628 -0.4928 -0.0889  0.2350
12243TIP3    H158220   1.153   5.910   2.674 -0.8541 -0.0429  0.3567
12243TIP3    H258221   1.154   6.059   2.698  1.0996  0.0125  0.0421
12244TIP3   OH258222   4.047   6.778   3.391  0.6715  0.5066 -0.7494
12244TIP3    H158223   3.955   6.795   3.414  0.3000 -0.3465 -1.5412
12244TIP3    H258224   4.047   6.687   3.360  1.9164  0.2764 -0.1153
12245TIP3   OH258225   1.743   2.831  15.509 -0.1437 -0.6446 -0.4170
12245TIP3    H158226   1.749   2.840  15.604  0.0101 -1.5508 -0.3329
12245TIP3    H258227   1.767   2.917  15.475  1.0988 -0.6758  0.3251
12246TIP3   OH258228   3.640   4.515  13.151 -0.2989 -0.4461 -0.3351
12246TIP3    H158229   3.653   4.609  13.142 -1.3192 -0.3152 -0.5361
12246TIP3    H258230   3.727   4.477  13.137  0.0049  0.4194 -0.8490
12247TIP3   OH258231   3.658   2.009   0.804  0.3904  0.5642 -0.2510
12247TIP3    H158232   3.651   1.922   0.844 -1.7828  1.0165  0.4986
12247TIP3    H258233   3.688   1.992   0.715 -1.5720 -1.1444 -0.6560
12248TIP3   OH258234   4.010   1.307  15.949  0.8581  0.0837 -0.1262
12248TIP3    H158235   3.931   1.360  15.952  0.7978  0.0023 -0.2940
12248TIP3    H258236   4.021   1.275  16.039  1.1913  0.8155  0.0952
12249TIP3   OH258237   4.888   3.505   4.249  0.2795  0.1532  0.5944
12249TIP3    H158238   4.846   3.472   4.169  0.4516 -0.1056  0.6102
12249TIP3    H258239   4.834   3.580   4.274 -0.6243 -0.6139  1.0250
12250TIP3   OH258240   5.203   3.820   3.318 -0.1683 -0.1601 -0.4610
12250TIP3    H158241   5.260   3.880   3.366 -0.0689  0.5597 -1.4237
12250TIP3    H258242   5.145   3.783   3.384  0.7617 -0.1366  0.3814
12251TIP3   OH258243   4.640   4.861   0.689 -0.2480 -0.6317 -0.3883
12251TIP3    H158244   4.632   4.770   0.716 -0.5294 -0.7843 -0.9794
12251TIP3    H258245   4.735   4.875   0.678 -0.2959 -1.3320 -1.9047
12252TIP3   OH258246   2.807   1.640   1.065 -0.2874  0.2294  0.0077
12252TIP3    H158247   2.743   1.709   1.077  0.1967  0.5901  0.5726
12252TIP3    H258248   2.755   1.559   1.061 -0.8796  0.6458 -1.0248
12253TIP3   OH258249   0.090   1.143   6.155  0.5329  0.1395  0.5782
12253TIP3    H158250   0.030   1.211   6.184 -0.7150 -0.9777  0.6805
12253TIP3    H258251   0.107   1.090   6.233 -0.2944 -0.9791  0.0231
12254TIP3   OH258252   5.095   1.118   1.845 -0.4433  0.2460  0.1976
12254TIP3    H158253   5.048   1.187   1.893 -0.1260  0.7789 -0.2521
12254TIP3    H258254   5.033   1.088   1.779 -1.1289 -0.9548  1.3361
12255TIP3   OH258255   3.059   2.846  10.997  0.2883  0.0340 -0.2515
12255TIP3    H158256   3.116   2.769  10.991  1.9415  1.0860  1.2198
12255TIP3    H258257   3.094   2.906  10.931  0.6610  0.5215  0.3780
12256TIP3   OH258258   1.823   5.165   0.978 -0.0592  0.6539  0.0678
12256TIP3    H158259   1.853   5.238   0.923  0.2119  0.6707  0.2396
12256TIP3    H258260   1.800   5.096   0.915  1.4102  0.2222 -0.0347
12257TIP3   OH258261   1.846   3.079  15.389  0.1914  0.4019 -0.1117
12257TIP3    H158262   1.807   3.073  15.302  0.7136  0.3789 -0.3443
12257TIP3    H258263   1.818   3.165  15.422 -0.0653  0.3806 -0.2695
12258TIP3   OH258264   0.440   1.039  14.177 -0.2759 -0.0917 -0.5237
12258TIP3    H158265   0.448   1.098  14.252 -0.3372 -0.7242 -0.0111
12258TIP3    H258266   0.416   1.097  14.104 -0.3571  0.5139 -0.0302
12259TIP3   OH258267   3.870   2.621  13.553  0.4161 -0.3257  0.3330
12259TIP3    H158268   3.860   2.586  13.464  0.3084  0.7920 -0.1210
12259TIP3    H258269   3.949   2.675  13.548  0.0140  0.3197  0.7043
12260TIP3   OH258270   2.917   5.971   3.172 -0.6810 -0.1088 -0.1036
12260TIP3    H158271   2.838   6.014   3.139 -1.0896  1.1770  2.2889
12260TIP3    H258272   2.884   5.896   3.222 -0.5590  1.0054  1.7592
12261TIP3   OH258273   2.653   1.582  16.189  0.4207  0.1405 -0.0903
12261TIP3    H158274   2.729   1.524  16.195 -0.2158 -0.6396  0.5892
12261TIP3    H258275   2.681   1.663  16.233  1.3335  0.4002 -1.1057
12262TIP3   OH258276   4.999   3.200  17.103  0.1972 -0.4893 -0.5668
12262TIP3    H158277   4.975   3.287  17.134  0.3777  0.1417 -2.1062
12262TIP3    H258278   4.962   3.140  17.168  0.0875  0.7190  0.5280
12263TIP3   OH258279   1.182   4.247  17.047 -0.0572 -0.1185 -0.6212
12263TIP3    H158280   1.132   4.224  16.968  0.7969 -0.2815 -1.1234
12263TIP3    H258281   1.119   4.238  17.118 -1.1630  1.1527 -1.3900
12264TIP3   OH258282   2.309   5.141   3.544  0.3365  0.3029  0.1827
12264TIP3    H158283   2.376   5.179   3.487  1.7530 -1.9306  0.2153
12264TIP3    H258284   2.309   5.048   3.522 -0.1235 -0.3948  2.7754
12265TIP3   OH258285   1.095   1.756   0.650 -0.0752 -0.1366 -0.1043
12265TIP3    H158286   1.042   1.678   0.637  1.2802 -0.9396 -1.0927
12265TIP3    H258287   1.034   1.829   0.638 -1.6802 -0.9768  2.2593
12266TIP3   OH258288   1.250   6.688   3.837  0.2332 -0.5095 -0.3226
12266TIP3    H158289   1.160   6.657   3.847  0.9014 -2.1372  1.0171
12266TIP3    H258290   1.291   6.673   3.922  1.9701 -0.4322 -1.0969
12267TIP3   OH258291   0.914   6.199   0.410 -0.7325  0.1293  0.4800
12267TIP3    H158292   0.973   6.270   0.436  1.3429 -1.6573  0.9605
12267TIP3    H258293   0.841   6.243   0.366  1.3828  2.4545 -0.9911
12268TIP3   OH258294   6.778   1.389   3.810  0.1209 -0.2304 -0.5620
12268TIP3    H158295   6.838   1.377   3.737  0.1997 -0.6415 -0.4297
12268TIP3    H258296   6.747   1.301   3.831  1.1254 -0.2894  0.7711
12269TIP3   OH258297   3.109   6.440  13.126 -0.1733 -0.6981  0.3448
12269TIP3    H158298   3.174   6.506  13.102 -0.8611 -0.6932 -1.7317
12269TIP3    H258299   3.147   6.357  13.096 -0.7687 -0.7998 -0.1386
12270TIP3   OH258300   4.586   5.759   0.994 -0.7766  0.2376 -0.1169
12270TIP3    H158301   4.598   5.734   1.086  0.2036 -0.6037 -0.4491
12270TIP3    H258302   4.667   5.805   0.971  0.0993 -1.7182 -1.2111
12271TIP3   OH258303   2.320   4.253  15.073  0.2598  0.7990 -0.1206
12271TIP3    H158304   2.401   4.204  15.090  0.8852  2.1255  0.8706
12271TIP3    H258305   2.350   4.341  15.052 -0.8924  0.9779 -1.1166
12272TIP3   OH258306   2.672   2.347   0.414 -0.6667  0.4462  0.1305
12272TIP3    H158307   2.737   2.276   0.416 -2.5265 -1.3359  0.5546
12272TIP3    H258308   2.618   2.327   0.337 -2.1054  0.5296  1.0744
12273TIP3   OH258309   6.373   4.776  14.269  0.3987  0.1894  0.1432
12273TIP3    H158310   6.464   4.776  14.298  0.0943  0.4816  1.1481
12273TIP3    H258311   6.322   4.794  14.349 -0.5158  0.3812 -0.4639
12274TIP3   OH258312   2.073   6.019   1.319 -0.1878  0.4333 -1.1927
12274TIP3    H158313   1.990   6.040   1.278 -1.1673 -4.1106 -2.0698
12274TIP3    H258314   2.118   5.964   1.255  2.9464  1.5368 -0.1389
12275TIP3   OH258315   0.394   4.413   4.683 -0.8263  0.0529 -0.4437
12275TIP3    H158316   0.370   4.439   4.772  0.8306  1.6228 -0.3896
12275TIP3    H258317   0.312   4.416   4.634 -1.9664 -1.7884  1.1834
12276TIP3   OH258318   4.364   6.203  14.232  0.1654 -0.5271  0.7548
12276TIP3    H158319   4.325   6.283  14.198  0.7600  0.0599  1.4307
12276TIP3    H258320   4.380   6.221  14.325  1.4609 -0.9628  0.6419
12277TIP3   OH258321   4.288   3.035  11.388 -0.3092  0.3896 -0.7143
12277TIP3    H158322   4.297   3.095  11.314  1.4750  1.6157  0.4156
12277TIP3    H258323   4.268   3.092  11.463  0.8663 -0.4518  0.2895
12278TIP3   OH258324   2.816   0.403  15.539 -0.2141  0.6157 -0.1338
12278TIP3    H158325   2.780   0.315  15.542  0.2944  0.3079 -1.9058
12278TIP3    H258326   2.906   0.394  15.570  0.0441  0.3704 -0.9246
12279TIP3   OH258327   2.592   1.387  13.757 -0.1370 -0.2195  0.0385
12279TIP3    H158328   2.524   1.442  13.716  0.1392  0.4033  0.3970
12279TIP3    H258329   2.551   1.301  13.767 -1.1903  0.3815  1.0594
12280TIP3   OH258330   1.969   0.927   2.368  0.8659 -0.2737 -0.0533
12280TIP3    H158331   1.925   1.000   2.412  1.8042 -0.2582  0.8887
12280TIP3    H258332   2.000   0.963   2.285 -0.9827 -0.3210 -0.8140
12281TIP3   OH258333   1.746   2.045  17.164  0.1865 -0.3790  0.3902
12281TIP3    H158334   1.729   2.033  17.071 -1.1004 -1.1441  0.7084
12281TIP3    H258335   1.742   2.140  17.177  1.1636 -0.2005 -0.4540
12282TIP3   OH258336   0.559   6.580  14.411 -0.1305  0.4181  0.0648
12282TIP3    H158337   0.638   6.526  14.404 -0.6660 -0.4145  0.4383
12282TIP3    H258338   0.494   6.536  14.357 -0.2633  1.2815 -0.5065
12283TIP3   OH258339   3.291   2.503  11.791 -0.5949  0.5920  0.2206
12283TIP3    H158340   3.305   2.504  11.886 -0.7092 -1.5904  0.3178
12283TIP3    H258341   3.379   2.506  11.754  0.0621 -4.3861  0.6351
12284TIP3   OH258342   1.882   3.317   6.087  0.0235 -0.3912  0.3143
12284TIP3    H158343   1.903   3.392   6.143  0.5723 -0.4050  0.1363
12284TIP3    H258344   1.829   3.260   6.142  1.2164 -0.7831  1.0959
12285TIP3   OH258345   1.498   4.575   0.980  0.1541 -0.3601 -0.0684
12285TIP3    H158346   1.441   4.508   1.018 -0.0660 -0.3406 -0.3589
12285TIP3    H258347   1.442   4.621   0.917  0.7670 -0.9812 -1.0705
12286TIP3   OH258348   0.724   1.593   5.678  0.2276  0.3389  0.1412
12286TIP3    H158349   0.634   1.602   5.648  0.4466  1.2988 -0.2502
12286TIP3    H258350   0.752   1.508   5.643 -0.4440  0.1505  0.0566
12287TIP3   OH258351   4.547   5.033   1.225  0.1983  0.5328 -0.5885
12287TIP3    H158352   4.574   5.099   1.162 -1.5598  0.5900 -1.3464
12287TIP3    H258353   4.619   4.969   1.225  0.0480  0.2672 -3.0619
12288TIP3   OH258354   4.099   0.736  12.921  0.1081  0.4160  0.3362
12288TIP3    H158355   4.161   0.718  12.851 -0.1862  0.5334  0.0430
12288TIP3    H258356   4.049   0.655  12.931 -1.7097  1.2127 -1.4804
12289TIP3   OH258357   1.241   3.865   0.363 -0.2927 -0.2055  0.0005
12289TIP3    H158358   1.259   3.846   0.270 -0.4297 -1.1804  0.1655
12289TIP3    H258359   1.321   3.907   0.394 -0.5872  0.9828 -0.7875
12290TIP3   OH258360   0.286   1.311  17.096 -0.0869  0.2180 -0.1849
12290TIP3    H158361   0.211   1.257  17.121 -1.4764  1.0469 -2.3413
12290TIP3    H258362   0.311   1.279  17.010  0.0721  1.9293 -0.8145
12291TIP3   OH258363   5.462   0.820  15.069  0.0897  0.1629  0.4406
12291TIP3    H158364   5.492   0.899  15.024  1.1161  0.8030  2.1433
12291TIP3    H258365   5.537   0.793  15.122 -1.4783  0.3020  2.8578
12292TIP3   OH258366   0.302   2.165   3.962  0.1108  0.1390 -0.1178
12292TIP3    H158367   0.369   2.167   4.031  1.1639  0.5912 -1.1254
12292TIP3    H258368   0.293   2.257   3.936  0.7890 -0.1880 -1.5763
12293TIP3   OH258369   6.567   1.915   3.796 -0.2633  0.0788 -0.1102
12293TIP3    H158370   6.548   1.831   3.754  0.0532 -0.7542  1.3443
12293TIP3    H258371   6.510   1.917   3.873  0.7686  0.5250  0.6720
12294TIP3   OH258372   1.898   2.153  13.370 -0.0995 -0.1663 -0.1050
12294TIP3    H158373   1.850   2.092  13.314 -1.8663 -0.3817  1.5374
12294TIP3    H258374   1.957   2.097  13.421  0.8656 -0.0588 -1.0459
12295TIP3   OH258375   3.021   2.529  14.440 -0.0233 -1.3001  0.0715
12295TIP3    H158376   2.933   2.563  14.422  0.0205 -0.3612  1.4609
12295TIP3    H258377   3.011   2.482  14.523  1.0061 -0.1988  0.8428
12296TIP3   OH258378   1.632   2.002   2.829 -0.6463 -0.0354  0.2086
12296TIP3    H158379   1.609   1.935   2.765 -0.9539 -0.8146  1.1173
12296TIP3    H258380   1.714   2.039   2.796 -1.4714  0.5401 -1.3524
12297TIP3   OH258381   0.811   1.422   4.303 -0.0575 -0.4180  0.0277
12297TIP3    H158382   0.766   1.378   4.231 -0.1136 -0.5780  0.1604
12297TIP3    H258383   0.855   1.496   4.262 -1.9908  0.8681  0.1734
12298TIP3   OH258384   3.977   2.347  13.338 -0.0137  0.1876 -0.0115
12298TIP3    H158385   3.957   2.363  13.246  2.4927  0.2155 -0.6150
12298TIP3    H258386   3.951   2.256  13.353  1.6957 -0.5919 -1.4532
12299TIP3   OH258387   0.500   6.309   1.848  0.0841 -0.2918 -0.6423
12299TIP3    H158388   0.514   6.302   1.754  0.5153  0.7057 -0.6547
12299TIP3    H258389   0.424   6.366   1.857  0.5539  0.3031 -0.3704
12300TIP3   OH258390   0.409   4.776   1.371  0.4232  0.0375 -0.1006
12300TIP3    H158391   0.381   4.721   1.298 -0.4897 -0.7136  0.7864
12300TIP3    H258392   0.444   4.856   1.330 -2.4299  0.7591 -1.3172
12301TIP3   OH258393   2.490   6.564  13.944 -0.1830 -0.3469  0.5242
12301TIP3    H158394   2.565   6.549  14.001  0.0291 -1.5225 -0.0324
12301TIP3    H258395   2.501   6.654  13.913  0.0185  0.1069  1.8392
12302TIP3   OH258396   6.714   0.656   3.237  0.1183  0.6991 -0.0849
12302TIP3    H158397   6.704   0.602   3.315 -0.5301  0.4392 -0.3410
12302TIP3    H258398   6.626   0.687   3.218  0.0256 -0.3008 -1.4581
12303TIP3   OH258399   5.842   5.761  17.116 -0.0456  0.2378  0.1206
12303TIP3    H158400   5.813   5.697  17.050  1.6441  0.4796 -0.9097
12303TIP3    H258401   5.902   5.713  17.172 -0.0751  0.5028  0.3836
12304TIP3   OH258402   2.257   3.691   1.752 -0.2691  0.1615  0.6138
12304TIP3    H158403   2.200   3.702   1.828  1.6202 -0.6662  2.2314
12304TIP3    H258404   2.270   3.780   1.719 -2.8610  0.3358 -0.1640
12305TIP3   OH258405   3.050   3.462   0.090  0.5938  0.3642 -0.3406
12305TIP3    H158406   2.957   3.483   0.090  0.1093 -1.5922 -0.9349
12305TIP3    H258407   3.081   3.490   0.003  0.8438  1.9831  0.2320
12306TIP3   OH258408   0.886   1.092  15.938  0.0274 -0.2013 -0.7176
12306TIP3    H158409   0.885   1.187  15.936 -0.1295 -0.1371  0.9906
12306TIP3    H258410   0.899   1.066  15.847 -0.3467  1.4328 -1.2624
12307TIP3   OH258411   2.484   4.532   1.737 -0.8482  0.8116 -0.4010
12307TIP3    H158412   2.540   4.481   1.795  0.2996  1.6915 -0.6810
12307TIP3    H258413   2.396   4.499   1.752 -0.2722 -0.5311  0.1532
12308TIP3   OH258414   2.875   1.643   5.795  0.0769  0.0497  1.0950
12308TIP3    H158415   2.856   1.630   5.702 -0.1940 -0.6420  1.2416
12308TIP3    H258416   2.807   1.594   5.840  0.7207 -0.3378  1.6538
12309TIP3   OH258417   6.424   0.467  12.435 -0.0118 -0.0091  0.4786
12309TIP3    H158418   6.414   0.492  12.344 -0.1547  1.7259  0.9423
12309TIP3    H258419   6.519   0.465  12.448  0.0517 -1.4145  0.0293
12310TIP3   OH258420   4.801   5.463  16.212  0.0768 -0.3998  0.5477
12310TIP3    H158421   4.833   5.374  16.221  1.8692  0.2837  1.4539
12310TIP3    H258422   4.771   5.487  16.300  1.8280  0.6341  0.9244
12311TIP3   OH258423   1.527   3.236   5.132 -0.4714 -0.0874  0.3287
12311TIP3    H158424   1.509   3.211   5.041  0.1011 -1.1784  0.5004
12311TIP3    H258425   1.616   3.206   5.148  0.0549  1.5727  0.7645
12312TIP3   OH258426   0.432   3.592   6.831 -0.2817  0.4557  0.1713
12312TIP3    H158427   0.451   3.579   6.923 -0.9201  0.7157  0.3496
12312TIP3    H258428   0.349   3.546   6.817  1.0548 -1.8079 -0.8865
12313TIP3   OH258429   5.237   0.445   5.796  0.1718  0.0006  0.3055
12313TIP3    H158430   5.328   0.416   5.794 -0.5136 -2.2791 -0.5765
12313TIP3    H258431   5.193   0.382   5.853 -1.5927 -1.4732 -2.5171
12314TIP3   OH258432   5.989   6.579  11.254 -0.4064 -0.4140 -0.5613
12314TIP3    H158433   5.943   6.642  11.310 -1.9049 -1.5925 -0.3932
12314TIP3    H258434   5.988   6.619  11.167  0.6454  0.7701 -0.0656
12315TIP3   OH258435   4.446   1.140   2.688  0.7285  0.0490 -0.1642
12315TIP3    H158436   4.355   1.146   2.657  0.3438 -1.0078  0.7118
12315TIP3    H258437   4.454   1.210   2.753  0.0885 -0.7512  0.8045
12316TIP3   OH258438   2.610   2.551  10.918  0.2793 -0.0631  0.3719
12316TIP3    H158439   2.522   2.584  10.900  1.3384  2.5793 -0.4897
12316TIP3    H258440   2.621   2.478  10.856 -0.7304  0.6447 -0.6912
12317TIP3   OH258441   3.382   2.441  14.083  0.3334 -0.3115 -0.0479
12317TIP3    H158442   3.449   2.506  14.102 -1.6729  1.9026 -0.0699
12317TIP3    H258443   3.332   2.434  14.165  0.7996 -2.2551  0.1162
12318TIP3   OH258444   5.291   4.225  14.403  0.1969 -0.1614 -0.0887
12318TIP3    H158445   5.200   4.213  14.427  0.3615 -0.7463  0.2601
12318TIP3    H258446   5.296   4.200  14.310  0.1036 -0.6372  0.0341
12319TIP3   OH258447   5.241   3.201   0.439  0.1659 -0.0326  0.4682
12319TIP3    H158448   5.203   3.260   0.374  1.3913  0.5952  0.3028
12319TIP3    H258449   5.166   3.170   0.490 -1.1031 -1.8778 -2.2777
12320TIP3   OH258450   0.188   0.903   1.084  0.0080  0.3602 -0.2166
12320TIP3    H158451   0.142   0.959   1.147  0.2160 -0.6002  0.8420
12320TIP3    H258452   0.125   0.888   1.013  0.0166  2.0487 -0.6033
12321TIP3   OH258453   5.400   5.668  14.304  0.7668  0.6435 -0.3743
12321TIP3    H158454   5.455   5.614  14.246  0.2429 -0.7855  0.3992
12321TIP3    H258455   5.312   5.659  14.267  0.5100  0.1083  0.3422
12322TIP3   OH258456   2.613   3.551  11.550  0.4631  0.0349  0.0432
12322TIP3    H158457   2.571   3.622  11.501  1.8637  0.8330 -0.0554
12322TIP3    H258458   2.656   3.595  11.624  1.3506 -0.6954 -0.0202
12323TIP3   OH258459   0.935   6.548   0.437  0.0145 -0.1547 -0.5255
12323TIP3    H158460   0.920   6.642   0.449 -1.5946 -0.4275 -0.2021
12323TIP3    H258461   0.915   6.533   0.344  1.7911  0.0520 -0.9890
12324TIP3   OH258462   6.751   4.266  11.623  0.3731 -0.9226  0.2834
12324TIP3    H158463   6.672   4.319  11.619  0.8947 -0.1928 -0.9516
12324TIP3    H258464   6.819   4.322  11.585  1.5551 -1.4080  1.6057
12325TIP3   OH258465   6.464   1.528   5.200 -0.2123  0.3238  0.2359
12325TIP3    H158466   6.469   1.611   5.249 -1.4748  0.7596 -0.3071
12325TIP3    H258467   6.533   1.473   5.237  1.0484  1.8233  0.2072
12326TIP3   OH258468   4.013   2.737   4.192 -0.2790 -0.3013  0.1994
12326TIP3    H158469   4.087   2.680   4.214  0.1561 -0.3716 -1.3236
12326TIP3    H258470   4.053   2.821   4.171 -0.7826  0.1068  0.8259
12327TIP3   OH258471   4.542   0.593  10.343 -0.3811 -0.0431 -0.1421
12327TIP3    H158472   4.589   0.605  10.425  0.5047  2.1643 -0.8912
12327TIP3    H258473   4.455   0.631  10.359 -0.2118  0.3788 -0.2058
12328TIP3   OH258474   6.569   6.030   0.234  0.0405  0.0244  0.1318
12328TIP3    H158475   6.569   6.041   0.139  1.2752  2.5090  0.3443
12328TIP3    H258476   6.504   6.093   0.265 -1.5165 -1.8728  0.8995
12329TIP3   OH258477   4.503   2.424  14.377  0.0965  0.1615  0.0818
12329TIP3    H158478   4.532   2.514  14.395 -3.6637  1.2898  1.4435
12329TIP3    H258479   4.563   2.369  14.428  3.1515  1.6517 -1.5836
12330TIP3   OH258480   0.899   0.342  11.259  0.1412  0.0068  0.2624
12330TIP3    H158481   0.831   0.300  11.311  0.5327  0.6534  1.3475
12330TIP3    H258482   0.934   0.272  11.203 -0.4603 -0.6548  0.7022
12331TIP3   OH258483   3.951   3.054  16.602  0.4512 -0.8374  0.3236
12331TIP3    H158484   3.998   3.017  16.527 -3.0513 -0.6480 -2.2273
12331TIP3    H258485   3.931   3.144  16.576 -1.8625 -1.1225  0.8701
12332TIP3   OH258486   4.274   4.754   5.241 -0.1255  0.0183 -0.1179
12332TIP3    H158487   4.268   4.835   5.292  0.5768  1.0149 -1.5370
12332TIP3    H258488   4.201   4.701   5.271 -0.9333  1.4132  0.4643
12333TIP3   OH258489   3.259   0.063   2.006  0.2584  0.3146 -0.0779
12333TIP3    H158490   3.338   0.039   1.958 -0.2429 -0.2874 -0.6180
12333TIP3    H258491   3.289   0.078   2.096  0.5949 -2.6120  0.3740
12334TIP3   OH258492   6.040   6.728  16.664  0.7463 -0.1738 -0.4126
12334TIP3    H158493   6.080   6.650  16.625 -0.5327 -1.0671 -0.0189
12334TIP3    H258494   5.946   6.710  16.663  0.5330  0.5984  1.2808
12335TIP3   OH258495   1.243   5.976  15.558 -0.0227 -0.1153 -0.2767
12335TIP3    H158496   1.209   6.009  15.641  0.5712  0.6991 -0.3568
12335TIP3    H258497   1.172   5.990  15.496 -0.7294 -1.3389  0.2049
12336TIP3   OH258498   0.556   2.253  14.849  0.1279 -0.2637  0.1882
12336TIP3    H158499   0.541   2.183  14.913 -0.3043 -1.3200 -1.0159
12336TIP3    H258500   0.471   2.297  14.843 -0.3122 -1.1927 -0.8013
12337TIP3   OH258501   5.400   5.303  16.513 -0.1801  0.4560 -0.0092
12337TIP3    H158502   5.376   5.393  16.535  0.3070 -0.0465  2.9801
12337TIP3    H258503   5.493   5.298  16.533 -0.4277 -0.9704  0.8671
12338TIP3   OH258504   0.374   0.796  15.714 -0.0375  0.2025  0.5048
12338TIP3    H158505   0.428   0.824  15.640 -1.5547 -0.9419 -1.1085
12338TIP3    H258506   0.300   0.857  15.714  0.3669  0.7399  1.6826
12339TIP3   OH258507   0.226   1.565   2.183 -0.2804 -0.3394 -0.2546
12339TIP3    H158508   0.139   1.603   2.194 -0.9031 -1.9752  0.7802
12339TIP3    H258509   0.278   1.603   2.255  0.2434  1.5193 -1.5352
12340TIP3   OH258510   4.520   1.135   4.715  0.0650  0.0653  0.8111
12340TIP3    H158511   4.479   1.211   4.756 -0.8833  0.4868 -0.8716
12340TIP3    H258512   4.614   1.149   4.728 -0.1420  0.9239  1.5081
12341TIP3   OH258513   1.038   0.998   4.387  0.3823  0.5126  0.0323
12341TIP3    H158514   1.095   1.073   4.403  0.8159  0.4669 -1.1525
12341TIP3    H258515   1.070   0.930   4.446  0.4554  1.0279  0.5876
12342TIP3   OH258516   5.757   2.647  10.843 -0.2539 -0.4019  0.0833
12342TIP3    H158517   5.794   2.731  10.868 -1.8832  0.5146 -0.4383
12342TIP3    H258518   5.813   2.582  10.886 -0.1358  0.9941  2.1686
12343TIP3   OH258519   2.007   3.058  11.405  0.1794  0.0286  0.3263
12343TIP3    H158520   1.971   3.144  11.425  1.0385  0.3726  0.4460
12343TIP3    H258521   1.963   3.032  11.324  0.8101  1.1531 -0.4180
12344TIP3   OH258522   6.226   4.442   2.325 -0.0016  0.3975 -0.0617
12344TIP3    H158523   6.273   4.385   2.265  0.3659  0.0172  0.5804
12344TIP3    H258524   6.291   4.506   2.354 -0.1380  0.4897  0.0463
12345TIP3   OH258525   3.289   1.353  14.232  0.9608  0.4524  0.1855
12345TIP3    H158526   3.241   1.423  14.189  0.1592  0.3310  0.8465
12345TIP3    H258527   3.377   1.389  14.246  0.4271  1.5167  0.9439
12346TIP3   OH258528   6.764   3.256  16.112  0.2340  0.0294 -0.0502
12346TIP3    H158529   6.736   3.198  16.183 -1.4092  0.3434 -0.3996
12346TIP3    H258530   6.836   3.210  16.070  1.0126 -0.3153  1.5973
12347TIP3   OH258531   0.726   3.346   2.003 -0.0961  0.1878 -0.3649
12347TIP3    H158532   0.785   3.389   1.940  1.0341 -0.3243  0.3092
12347TIP3    H258533   0.689   3.272   1.955  1.1182 -0.4745 -0.3268
12348TIP3   OH258534   3.174   3.822  15.632 -0.4298  0.2979  0.0501
12348TIP3    H158535   3.152   3.834  15.724 -1.3428 -2.6556  0.3130
12348TIP3    H258536   3.090   3.811  15.588  0.0688 -1.1339 -0.6153
12349TIP3   OH258537   2.937   2.046  15.753 -0.2885  0.0563 -0.5108
12349TIP3    H158538   2.851   2.020  15.720  0.1911  1.3985 -3.0493
12349TIP3    H258539   2.927   2.137  15.780 -0.1018 -0.3610  1.1089
12350TIP3   OH258540   2.393   1.253  13.090 -0.3306  0.3365 -0.1305
12350TIP3    H158541   2.372   1.160  13.081  0.0900  0.2388 -0.1383
12350TIP3    H258542   2.319   1.290  13.136 -0.0375 -0.2060  0.8115
12351TIP3   OH258543   4.916   2.255  14.960  0.4925 -0.4659 -0.2104
12351TIP3    H158544   4.860   2.212  14.894  1.2459 -1.8777  0.0226
12351TIP3    H258545   4.862   2.257  15.039 -0.3281  1.0158 -0.7619
12352TIP3   OH258546   4.867   3.688  12.893  0.9401  0.0340  0.0689
12352TIP3    H158547   4.847   3.698  12.800 -1.1264  1.7953  0.6144
12352TIP3    H258548   4.809   3.617  12.921  0.1733  0.7626  0.3598
12353TIP3   OH258549   5.588   0.663   4.123  0.0474  0.5003  0.3293
12353TIP3    H158550   5.588   0.628   4.034  1.1637  0.8484  0.1676
12353TIP3    H258551   5.515   0.725   4.125  0.8888  1.5917 -0.8165
12354TIP3   OH258552   1.347   0.422  16.884 -0.1801  0.0236 -0.0911
12354TIP3    H158553   1.363   0.424  16.789 -0.4077 -0.5820 -0.1402
12354TIP3    H258554   1.321   0.332  16.902  0.2078  0.0482  0.6059
12355TIP3   OH258555   6.360   3.316   5.532 -0.3304 -0.1025 -0.8486
12355TIP3    H158556   6.418   3.241   5.543  0.8928  0.5450 -2.4749
12355TIP3    H258557   6.277   3.288   5.570  0.8989 -1.2115  1.1413
12356TIP3   OH258558   5.013   1.491   0.855  0.1641 -0.3452  0.3722
12356TIP3    H158559   5.059   1.521   0.776 -1.5538 -0.0181 -0.5509
12356TIP3    H258560   5.027   1.396   0.854 -1.2166 -0.5863 -1.3103
12357TIP3   OH258561   0.349   3.382  15.161 -0.2991  0.2881  0.2600
12357TIP3    H158562   0.347   3.384  15.066 -2.7339 -1.0860  0.2047
12357TIP3    H258563   0.411   3.312  15.182 -0.3744  0.0311 -0.3482
12358TIP3   OH258564   4.421   0.690   2.316 -0.0691 -0.0693 -0.0894
12358TIP3    H158565   4.421   0.658   2.407  0.0420  1.2814  0.4060
12358TIP3    H258566   4.347   0.643   2.275 -0.7123 -0.0078  0.9547
12359TIP3   OH258567   4.198   1.873  11.990  0.9397  0.5069 -0.3159
12359TIP3    H158568   4.119   1.905  12.034  1.1387 -1.2519  1.4662
12359TIP3    H258569   4.249   1.952  11.972 -1.4819  1.7644 -2.2043
12360TIP3   OH258570   5.435   1.072   3.194 -0.3049  0.0186 -0.1803
12360TIP3    H158571   5.392   1.122   3.263 -0.8515  1.8641 -1.7818
12360TIP3    H258572   5.365   1.050   3.132  0.7736  2.6534 -2.5848
12361TIP3   OH258573   0.915   5.780   1.832  0.0919 -0.2516 -0.7456
12361TIP3    H158574   0.863   5.806   1.756 -1.1568 -1.0506 -0.1916
12361TIP3    H258575   0.908   5.684   1.833  0.8717 -0.3072 -0.1590
12362TIP3   OH258576   3.173   4.001   0.115 -0.2142  0.2417  0.0060
12362TIP3    H158577   3.122   3.943   0.058 -0.6104  0.7559 -0.1682
12362TIP3    H258578   3.167   4.087   0.073 -0.6623  0.6638  0.9318
12363TIP3   OH258579   2.703   4.736  15.469 -0.0343 -0.2079  0.4840
12363TIP3    H158580   2.761   4.734  15.545 -1.7321 -1.2724  1.8440
12363TIP3    H258581   2.640   4.666  15.485 -3.2653  2.4043  0.4306
12364TIP3   OH258582   4.809   2.463  11.689 -0.3546 -0.2256  0.0742
12364TIP3    H158583   4.755   2.418  11.754  0.6863 -1.8673 -0.1471
12364TIP3    H258584   4.771   2.439  11.605 -0.4828  0.2475 -0.0057
12365TIP3   OH258585   1.612   3.860   1.926  0.5015 -0.5315 -0.0817
12365TIP3    H158586   1.690   3.912   1.945 -0.0914  0.8238 -1.2349
12365TIP3    H258587   1.552   3.921   1.883 -0.6482 -1.9018 -0.4855
12366TIP3   OH258588   6.623   5.738  16.006 -0.0261  0.2076  0.0580
12366TIP3    H158589   6.673   5.685  16.068 -1.5388 -1.9525 -0.4599
12366TIP3    H258590   6.583   5.807  16.059  1.1053  0.2068  0.9431
12367TIP3   OH258591   3.047   4.125   0.367 -0.0111 -0.8681  0.5725
12367TIP3    H158592   3.131   4.079   0.360 -0.5519 -1.8927  0.6254
12367TIP3    H258593   3.013   4.127   0.278  1.5529  2.5186 -0.0901
12368TIP3   OH258594   3.978   4.746  12.316 -0.0039  0.1132  0.3020
12368TIP3    H158595   3.963   4.835  12.348 -1.9682 -0.6722  1.7558
12368TIP3    H258596   3.962   4.752  12.222 -0.2372  1.2625  0.3997
12369TIP3   OH258597   0.279   2.977   1.980  0.2357  0.2776  0.3571
12369TIP3    H158598   0.340   2.984   1.907  1.3546 -1.0743  1.1230
12369TIP3    H258599   0.204   3.030   1.953  1.2789  1.1194 -1.0664
12370TIP3   OH258600   5.296   1.283   1.687 -0.2287  0.4417  0.6901
12370TIP3    H158601   5.320   1.213   1.748  0.2443  0.3781  0.4385
12370TIP3    H258602   5.264   1.237   1.610  2.9465  0.3526 -0.7077
12371TIP3   OH258603   1.550   4.310  15.289 -0.0046 -0.2627  0.0508
12371TIP3    H158604   1.607   4.243  15.251  0.1595  0.6087 -1.3441
12371TIP3    H258605   1.462   4.273  15.282  0.2415 -1.0440  0.9271
12372TIP3   OH258606   6.338   1.902  12.720  0.0334 -0.0794  0.7185
12372TIP3    H158607   6.361   1.989  12.687 -1.6175  1.0444  2.3107
12372TIP3    H258608   6.364   1.905  12.812 -0.7891 -0.9891  0.9880
12373TIP3   OH258609   0.679   4.230   2.270  0.3115  0.3015  0.0412
12373TIP3    H158610   0.716   4.298   2.327  1.9282  1.1019 -1.8254
12373TIP3    H258611   0.609   4.275   2.223 -0.1805 -0.0037  0.4752
12374TIP3   OH258612   1.376   0.609  15.789  0.1365 -0.0238 -0.2377
12374TIP3    H158613   1.445   0.558  15.746  0.1077 -0.4887  0.2545
12374TIP3    H258614   1.401   0.610  15.882  0.1815  0.9343 -0.2493
12375TIP3   OH258615   2.181   3.424  14.326 -0.3980 -0.6511  0.2589
12375TIP3    H158616   2.207   3.495  14.385 -2.4419  0.6344 -0.2679
12375TIP3    H258617   2.254   3.415  14.265 -0.8132  2.4470 -0.8843
12376TIP3   OH258618   0.777   3.617  11.937  0.5544  0.2673 -0.7307
12376TIP3    H158619   0.849   3.557  11.920  0.1978 -0.0402 -1.1820
12376TIP3    H258620   0.814   3.684  11.995  1.0158 -0.2614 -0.4041
12377TIP3   OH258621   5.871   0.837  15.581 -0.0573 -0.4004  0.2485
12377TIP3    H158622   5.810   0.868  15.648 -0.8396 -0.6360 -0.3320
12377TIP3    H258623   5.851   0.891  15.504  1.1381  0.1763  0.3263
12378TIP3   OH258624   6.804   4.536   6.525 -0.3849  0.3682  0.3650
12378TIP3    H158625   6.728   4.592   6.506 -1.4310 -1.0547  0.2407
12378TIP3    H258626   6.861   4.591   6.579 -0.3075  2.3372 -1.5793
12379TIP3   OH258627   5.153   1.737  17.226  0.2550  0.1458  0.2871
12379TIP3    H158628   5.155   1.670  17.158  0.0392  1.6161 -1.2244
12379TIP3    H258629   5.184   1.817  17.183 -0.3575  1.2550  1.7846
12380TIP3   OH258630   5.400   0.479  15.338  0.0572 -0.3153 -0.0560
12380TIP3    H158631   5.485   0.509  15.371  0.2879 -1.0109 -0.0144
12380TIP3    H258632   5.390   0.524  15.254 -0.7212  1.8048  1.0750
12381TIP3   OH258633   3.649   3.390   3.017  0.4640 -0.4245  0.3560
12381TIP3    H158634   3.678   3.305   3.052 -0.4979 -0.6506  0.6192
12381TIP3    H258635   3.565   3.406   3.060  1.2144  1.2814  1.2991
12382TIP3   OH258636   2.927   1.022   4.415 -0.0367  0.4142  0.2744
12382TIP3    H158637   2.865   0.979   4.474  0.6212 -0.2470  0.4955
12382TIP3    H258638   2.958   1.098   4.464  0.2584  0.0522  0.6532
12383TIP3   OH258639   4.440   6.623   4.833  0.2179  0.5224 -0.0631
12383TIP3    H158640   4.528   6.611   4.871  0.0753  0.1615  0.1541
12383TIP3    H258641   4.392   6.545   4.860  0.4352 -0.3031 -1.9559
12384TIP3   OH258642   6.259   2.391   5.746 -0.2474 -0.5064  0.1816
12384TIP3    H158643   6.277   2.350   5.830 -0.9978 -1.0499  0.0861
12384TIP3    H258644   6.337   2.374   5.694 -0.5245 -1.7922  0.1575
12385TIP3   OH258645   2.660   4.942  10.916  0.1612  0.1574  0.1211
12385TIP3    H158646   2.657   4.878  10.845  0.3107 -0.1128  0.3575
12385TIP3    H258647   2.568   4.960  10.935  0.1179  0.4340 -0.3196
12386TIP3   OH258648   6.144   3.031  16.333  0.4161  0.1241 -0.1752
12386TIP3    H158649   6.202   3.082  16.389  1.9647  0.5165 -2.0438
12386TIP3    H258650   6.182   2.944  16.330 -0.2953 -0.2056  0.2812
12387TIP3   OH258651   5.707   2.114  11.856 -0.2540 -0.3322  0.1454
12387TIP3    H158652   5.632   2.097  11.800 -0.5402 -0.5136  0.5752
12387TIP3    H258653   5.669   2.131  11.943  0.1824 -0.1359  0.3014
12388TIP3   OH258654   2.638   0.053   6.127  0.5230  0.3154  0.5052
12388TIP3    H158655   2.666  -0.014   6.190 -0.6249 -0.1049  0.5945
12388TIP3    H258656   2.644   0.135   6.176  0.5924  0.1125  0.8475
12389TIP3   OH258657   5.904   1.387  13.844 -0.0394 -0.1505 -0.0838
12389TIP3    H158658   5.932   1.360  13.932  0.2888  1.6465  0.3932
12389TIP3    H258659   5.985   1.411  13.799 -0.2668 -0.5263 -0.7052
12390TIP3   OH258660   3.563   5.838  15.500  0.3059  0.1038 -0.6469
12390TIP3    H158661   3.573   5.933  15.495 -0.1486  0.3085  1.2538
12390TIP3    H258662   3.511   5.815  15.423  1.3286  1.2321 -1.7057
12391TIP3   OH258663   5.568   4.406  11.515 -0.4021 -0.4881  0.1792
12391TIP3    H158664   5.524   4.491  11.504  1.5371  0.6052  0.3639
12391TIP3    H258665   5.617   4.394  11.434  0.3084 -0.8253  0.6550
12392TIP3   OH258666   5.954   6.435   1.518 -0.0062  0.3279 -0.2272
12392TIP3    H158667   5.942   6.370   1.448  0.0187  1.5257 -1.3915
12392TIP3    H258668   6.011   6.391   1.582 -0.9789 -1.2216 -0.3593
12393TIP3   OH258669   6.185   6.736   4.387 -0.3508 -0.7271 -0.3272
12393TIP3    H158670   6.223   6.677   4.322 -0.6522 -1.0884 -0.1776
12393TIP3    H258671   6.180   6.820   4.342  0.5902 -0.6806 -0.3611
12394TIP3   OH258672   5.482   3.789   5.888  0.3642 -0.2193  0.0567
12394TIP3    H158673   5.419   3.821   5.952 -0.0091  0.6153 -0.6963
12394TIP3    H258674   5.561   3.841   5.903  0.8258 -1.1207  0.8631
12395TIP3   OH258675   4.337   4.888  16.330 -0.0635  0.1126 -0.2410
12395TIP3    H158676   4.349   4.840  16.248 -1.3154 -0.7098  0.0276
12395TIP3    H258677   4.289   4.828  16.386  1.4261  0.3728  1.3936
12396TIP3   OH258678   0.788   2.499  11.300 -0.4510 -0.1639 -0.5222
12396TIP3    H158679   0.722   2.521  11.367  1.2484 -0.9515  1.5259
12396TIP3    H258680   0.847   2.573  11.299 -0.6010 -0.0483 -1.3787
12397TIP3   OH258681   5.570   1.857   1.861 -0.0751  0.1532 -0.6853
12397TIP3    H158682   5.610   1.943   1.864  1.8897 -0.6871 -1.2418
12397TIP3    H258683   5.638   1.800   1.826 -1.0462 -1.7809  0.4009
12398TIP3   OH258684   0.950   5.870   2.437 -0.4656  0.3232  0.1965
12398TIP3    H158685   1.004   5.914   2.503 -0.8101  0.6219  0.2821
12398TIP3    H258686   0.921   5.940   2.379  0.5998 -0.0586 -0.8304
12399TIP3   OH258687   0.601   1.218  12.165  0.2805  0.5653  0.5104
12399TIP3    H158688   0.646   1.144  12.123 -1.5242  0.4097 -1.2875
12399TIP3    H258689   0.666   1.254  12.225  1.2669 -2.4186  1.4259
12400TIP3   OH258690   3.515   6.452   1.506  0.2846  0.1836  0.3336
12400TIP3    H158691   3.484   6.479   1.420  0.4897 -0.0804  0.1763
12400TIP3    H258692   3.529   6.534   1.554  1.4887  0.4017 -0.3433
12401TIP3   OH258693   1.571   2.748   0.094  0.0020  0.0380 -0.2491
12401TIP3    H158694   1.663   2.773   0.105 -0.2510  0.8925  0.0444
12401TIP3    H258695   1.543   2.793   0.015 -0.8170  1.8379  0.9878
12402TIP3   OH258696   5.113   2.354   6.235  0.0896  0.4172 -0.3993
12402TIP3    H158697   5.037   2.299   6.216  0.9912 -0.1202 -2.8672
12402TIP3    H258698   5.184   2.292   6.251  0.5584  0.8670 -0.7002
12403TIP3   OH258699   3.051   6.164   2.794 -0.2885  0.2164 -0.1307
12403TIP3    H158700   3.033   6.215   2.714  1.5091 -0.8399 -1.2772
12403TIP3    H258701   3.131   6.116   2.774  0.6653  0.4820  2.6118
12404TIP3   OH258702   4.327   1.413   5.401  0.3012  0.4987 -0.3224
12404TIP3    H158703   4.272   1.481   5.363 -0.6650 -0.2257 -0.2463
12404TIP3    H258704   4.331   1.345   5.334 -2.3125 -1.2853  1.1546
12405TIP3   OH258705   0.395   2.754  14.631  0.3046  0.3076 -0.1518
12405TIP3    H158706   0.380   2.744  14.725  0.5080 -0.6633 -0.2134
12405TIP3    H258707   0.467   2.817  14.625 -0.0498  0.7645  0.3203
12406TIP3   OH258708   0.194   3.850  15.866  0.5783 -0.3485  0.2537
12406TIP3    H158709   0.223   3.762  15.842  0.2563 -0.2767 -0.4043
12406TIP3    H258710   0.111   3.862  15.819  0.8019  0.4462  0.0546
12407TIP3   OH258711   5.475   4.426  12.078 -0.0784 -0.5660  0.3202
12407TIP3    H158712   5.521   4.437  11.994  0.0200 -1.5949  0.2360
12407TIP3    H258713   5.387   4.399  12.054 -0.5957  0.8472  0.5072
12408TIP3   OH258714   0.032   1.803  13.553 -0.3414  0.2257  0.1358
12408TIP3    H158715  -0.053   1.839  13.579 -0.0187 -0.1043  1.7626
12408TIP3    H258716   0.026   1.710  13.574  0.5989  0.2957  0.7439
12409TIP3   OH258717   5.850   0.546  13.290 -0.0691 -0.3998  0.1648
12409TIP3    H158718   5.894   0.462  13.277  2.2557  0.9983 -2.1429
12409TIP3    H258719   5.829   0.575  13.201 -0.6275  1.5192  0.8762
12410TIP3   OH258720   2.293   5.014  12.531  0.3758 -0.1843 -0.7664
12410TIP3    H158721   2.371   5.019  12.586  0.3807 -2.8176 -0.4044
12410TIP3    H258722   2.219   5.016  12.592  0.2686 -0.2039 -0.8935
12411TIP3   OH258723   2.015   4.407  13.442  0.0303  0.2884  0.1499
12411TIP3    H158724   1.936   4.418  13.388 -0.1772 -0.1666  0.3489
12411TIP3    H258725   1.986   4.350  13.513 -0.0474  1.8990  1.4780
12412TIP3   OH258726   4.926   5.864   5.828 -0.1365 -0.2572  0.2350
12412TIP3    H158727   4.860   5.923   5.793 -0.2792  0.2352  1.2922
12412TIP3    H258728   5.007   5.889   5.783 -0.4275 -0.0344 -0.1651
12413TIP3   OH258729   1.431   1.678   3.036 -0.2169 -0.5585  0.0946
12413TIP3    H158730   1.482   1.748   3.077  0.4507 -0.0187 -1.5730
12413TIP3    H258731   1.342   1.690   3.071  0.2823 -0.0653  1.2512
12414TIP3   OH258732   0.355   5.003  15.975  0.1171 -0.4017 -0.1189
12414TIP3    H158733   0.260   5.008  15.982  0.0341  1.5057 -1.8388
12414TIP3    H258734   0.386   5.009  16.066 -1.3566 -0.0382  0.3879
12415TIP3   OH258735   4.674   2.106   4.538  0.5286 -0.0568 -0.5409
12415TIP3    H158736   4.726   2.164   4.594 -0.8367 -0.1126  0.8217
12415TIP3    H258737   4.639   2.164   4.470 -1.4261  0.9343  1.2259
12416TIP3   OH258738   2.399   6.406   5.655  0.7777  0.1340 -0.2801
12416TIP3    H158739   2.306   6.402   5.632  0.0315 -0.4552  2.4998
12416TIP3    H258740   2.438   6.331   5.610 -0.2165 -0.0069 -0.9312
12417TIP3   OH258741   3.867   6.208  12.019  0.3661  0.6680 -0.0249
12417TIP3    H158742   3.950   6.223  12.065  0.4527  2.2211 -0.6178
12417TIP3    H258743   3.893   6.177  11.932  0.2657 -0.4403  0.3367
12418TIP3   OH258744   3.494   6.236  13.486 -0.0986 -0.7670  0.1057
12418TIP3    H158745   3.518   6.301  13.552 -1.0532  0.7124 -0.9327
12418TIP3    H258746   3.566   6.173  13.486  2.6599  2.1197 -1.1808
12419TIP3   OH258747   4.404   0.866  12.679  0.3495  0.4159 -0.4974
12419TIP3    H158748   4.404   0.927  12.605 -1.4741  0.3987 -0.5549
12419TIP3    H258749   4.423   0.920  12.755  1.9546  0.4837 -0.9206
12420TIP3   OH258750   2.923   6.804   3.858  0.8357 -0.2013 -0.0763
12420TIP3    H158751   2.967   6.735   3.908  1.2646  0.9707  1.1967
12420TIP3    H258752   2.869   6.756   3.795  1.0174 -1.7048  0.8645
12421TIP3   OH258753   2.073   1.489   0.469  0.1593  0.6428 -0.0927
12421TIP3    H158754   2.133   1.466   0.398  1.1574  0.8527  0.6624
12421TIP3    H258755   2.125   1.542   0.529 -1.3661  2.6970 -0.4678
12422TIP3   OH258756   5.222   3.103  15.976  0.0178  0.1334 -0.2362
12422TIP3    H158757   5.307   3.147  15.970  0.1046  0.0159  0.0912
12422TIP3    H258758   5.178   3.125  15.894  0.0239  0.9155 -0.0421
12423TIP3   OH258759   4.660   4.428   5.644 -0.2373 -0.0345 -0.5802
12423TIP3    H158760   4.596   4.396   5.581 -2.4355  0.3983  1.2797
12423TIP3    H258761   4.610   4.483   5.704  2.1005  1.1999  0.3997
12424TIP3   OH258762   6.721   2.544  12.616  0.2320  1.1803 -0.0348
12424TIP3    H158763   6.755   2.516  12.701  2.5075  1.0755 -0.9163
12424TIP3    H258764   6.750   2.635  12.607  0.3971  1.0534 -0.8799
12425TIP3   OH258765   1.223   0.899   1.451  0.5825 -0.5549  1.0322
12425TIP3    H158766   1.242   0.872   1.541  0.0613 -0.0586  1.2961
12425TIP3    H258767   1.128   0.897   1.444  0.6405 -1.5627  0.1761
12426TIP3   OH258768   3.152   1.833  14.470 -0.1005  0.2509 -0.4591
12426TIP3    H158769   3.161   1.886  14.548  0.2598  0.3157 -0.5415
12426TIP3    H258770   3.143   1.743  14.502 -0.5625  0.3446 -0.3260
12427TIP3   OH258771   5.842   3.257   5.303 -0.2801 -0.2081 -0.4187
12427TIP3    H158772   5.807   3.324   5.245 -0.1694 -0.5858 -0.9233
12427TIP3    H258773   5.908   3.211   5.251 -0.5863 -0.9223 -0.1959
12428TIP3   OH258774   0.453   5.211  10.705 -1.1064 -0.0208  0.1035
12428TIP3    H158775   0.413   5.296  10.723 -0.7185  0.6300 -1.8434
12428TIP3    H258776   0.535   5.232  10.660 -2.1948 -1.3594 -2.8175
12429TIP3   OH258777   1.380   2.310  16.163 -0.5956 -0.1437  0.2701
12429TIP3    H158778   1.315   2.378  16.182 -0.4404  0.0546  0.1056
12429TIP3    H258779   1.439   2.351  16.099 -0.1023 -0.1969  0.6888
12430TIP3   OH258780   5.498   5.765  11.760 -0.4186 -0.1369 -0.3496
12430TIP3    H158781   5.486   5.672  11.778 -0.0627  0.1036  1.2986
12430TIP3    H258782   5.443   5.810  11.825  0.8124  0.8063  0.0962
12431TIP3   OH258783   6.104   0.868   3.736  0.1426  0.0585 -0.4353
12431TIP3    H158784   6.103   0.941   3.798  1.9126 -0.4319  0.2646
12431TIP3    H258785   6.147   0.903   3.658  1.5440 -0.3483  0.1222
12432TIP3   OH258786   4.132   6.461  12.715 -0.6200 -0.1061  0.2135
12432TIP3    H158787   4.106   6.461  12.623  0.7067  0.5801 -0.1878
12432TIP3    H258788   4.067   6.406  12.759  0.9449 -3.8320 -1.7307
12433TIP3   OH258789   5.131   0.117  17.101  0.2553 -0.0893  0.3281
12433TIP3    H158790   5.175   0.164  17.030 -0.6775  1.7232  0.9061
12433TIP3    H258791   5.151   0.167  17.180 -0.0176 -1.1987  1.1331
12434TIP3   OH258792   6.125   1.147  14.498  0.2455 -0.5864 -0.2821
12434TIP3    H158793   6.058   1.209  14.527  0.9655  0.6748 -1.2410
12434TIP3    H258794   6.207   1.193  14.512  0.8418 -1.5677 -0.4769
12435TIP3   OH258795   0.126   1.319  13.032 -0.2962  0.1429 -0.2006
12435TIP3    H158796   0.117   1.403  12.988 -1.6003  0.0062 -0.2279
12435TIP3    H258797   0.209   1.326  13.080 -0.7873  1.7580  0.4827
12436TIP3   OH258798   0.944   2.623   0.755  0.2002 -0.4058  0.3103
12436TIP3    H158799   0.972   2.632   0.664 -0.8000 -0.5346 -0.0259
12436TIP3    H258800   0.893   2.703   0.772 -3.1296 -2.1596 -0.5892
12437TIP3   OH258801   4.662   3.131   2.432 -0.0019  0.1717 -0.0867
12437TIP3    H158802   4.718   3.058   2.460 -0.4030  0.2374  0.9052
12437TIP3    H258803   4.578   3.090   2.412  0.7461 -0.1620 -3.0276
12438TIP3   OH258804   5.766   0.269   0.207 -0.7453  0.1774 -0.2285
12438TIP3    H158805   5.801   0.247   0.121 -0.2937  1.8782 -0.5311
12438TIP3    H258806   5.675   0.295   0.191 -0.8521 -0.1175 -0.0999
12439TIP3   OH258807   2.949   6.549  12.089  0.6108  0.0739 -0.1234
12439TIP3    H158808   2.864   6.575  12.124  1.0745 -1.0864  2.1009
12439TIP3    H258809   2.956   6.594  12.005 -2.6124 -0.6218 -0.8717
12440TIP3   OH258810   3.522   5.206  12.958  0.2432  0.4147 -0.0935
12440TIP3    H158811   3.575   5.136  12.997  1.3880  1.8993  1.1564
12440TIP3    H258812   3.436   5.197  12.999  0.6284  0.2268  0.6982
12441TIP3   OH258813   0.769   0.014   0.072  0.8440  0.0972 -0.3819
12441TIP3    H158814   0.769   0.107   0.097  1.4453  0.1447 -0.5405
12441TIP3    H258815   0.838   0.007   0.006 -0.3298 -0.1372 -1.6247
12442TIP3   OH258816   0.566   1.448  16.075 -0.5891  0.1995  0.4359
12442TIP3    H158817   0.655   1.468  16.104 -1.5371  2.9529  1.7754
12442TIP3    H258818   0.517   1.435  16.156 -1.8285  0.8110 -0.1982
12443TIP3   OH258819   6.201   6.465  11.368  0.3201 -0.5718 -0.6409
12443TIP3    H158820   6.232   6.523  11.437 -0.4239 -0.4581 -0.3901
12443TIP3    H258821   6.120   6.507  11.337  0.3807 -0.8867 -1.2308
12444TIP3   OH258822   0.217   3.329   2.713  0.3432  0.5381  0.0442
12444TIP3    H158823   0.156   3.256   2.700  1.6856 -0.4977 -0.5789
12444TIP3    H258824   0.210   3.349   2.806  0.0810 -0.5048  0.2613
12445TIP3   OH258825   0.557   2.123   0.676  0.4922  0.7002  0.3794
12445TIP3    H158826   0.586   2.047   0.728  2.9910  0.9567 -0.5397
12445TIP3    H258827   0.516   2.181   0.740 -0.3201 -0.8397  1.3186
12446TIP3   OH258828   1.308   2.345   1.232  0.2289 -0.8104  0.2155
12446TIP3    H158829   1.327   2.431   1.267  0.0319  0.0664 -1.6981
12446TIP3    H258830   1.393   2.301   1.228  0.0648 -1.6380  3.3005
12447TIP3   OH258831   0.332   0.294   4.368 -0.3131 -0.1367 -0.1601
12447TIP3    H158832   0.307   0.317   4.278  1.2869  0.7705 -0.4213
12447TIP3    H258833   0.401   0.229   4.357  0.2032  0.3028  0.3827
12448TIP3   OH258834   0.218   3.529   4.006 -0.1568 -0.1504  0.2872
12448TIP3    H158835   0.148   3.471   3.975 -0.0338  0.2908 -0.8928
12448TIP3    H258836   0.281   3.529   3.934  0.2472  0.7766  0.6350
12449TIP3   OH258837   6.810   3.724  13.891 -0.2381 -0.1109 -0.1802
12449TIP3    H158838   6.807   3.800  13.950 -0.6708 -1.3528  1.4658
12449TIP3    H258839   6.888   3.675  13.919 -1.1319 -1.3531  0.2323
12450TIP3   OH258840   2.376   1.054  14.994  0.4653 -0.4024 -0.9737
12450TIP3    H158841   2.351   1.085  14.907 -0.7682  3.7174  0.6207
12450TIP3    H258842   2.298   1.068  15.048  2.3645  1.2147  1.6263
12451TIP3   OH258843   4.496   3.729   0.739  0.3790  0.1727 -0.1052
12451TIP3    H158844   4.482   3.817   0.774  0.4378  0.3760 -0.5845
12451TIP3    H258845   4.491   3.740   0.644 -0.7375 -0.5200 -0.1552
12452TIP3   OH258846   6.821   1.416  12.438  0.1376  0.2665  1.0325
12452TIP3    H158847   6.747   1.453  12.487 -0.0031 -2.7116  3.4047
12452TIP3    H258848   6.887   1.485  12.439 -2.5041  3.1461 -1.3677
12453TIP3   OH258849   4.629   6.356  11.912 -0.4036  0.0774 -1.1116
12453TIP3    H158850   4.635   6.374  12.006  0.1166  1.3742 -1.3772
12453TIP3    H258851   4.656   6.265  11.904 -0.3606 -0.0261 -0.0125
12454TIP3   OH258852   4.858   4.194  15.312  0.6692  0.0781 -0.4151
12454TIP3    H158853   4.829   4.284  15.299  0.9965  0.3371  0.5718
12454TIP3    H258854   4.952   4.201  15.328  0.8682 -0.5345 -1.2675
12455TIP3   OH258855   3.540   6.349   0.138  0.0410  0.0337  0.0858
12455TIP3    H158856   3.511   6.295   0.211 -0.2298  0.5663  0.3667
12455TIP3    H258857   3.632   6.369   0.158  0.0735 -0.1216  0.0967
12456TIP3   OH258858   4.064   2.985  17.136 -0.2079 -0.0475  0.2882
12456TIP3    H158859   4.137   3.048  17.138  0.3636 -0.6691  3.1815
12456TIP3    H258860   4.026   2.990  17.224 -2.1620 -1.4809 -0.4197
12457TIP3   OH258861   1.998   3.061  12.403  0.0813  0.2691  0.0235
12457TIP3    H158862   2.044   2.978  12.410  1.7254  1.0785 -0.6642
12457TIP3    H258863   1.920   3.050  12.459 -0.4189 -2.1269 -1.0193
12458TIP3   OH258864   6.729   4.623  11.848  0.6666  0.3006 -0.4127
12458TIP3    H158865   6.655   4.565  11.833  1.2817 -0.3750 -0.8744
12458TIP3    H258866   6.695   4.689  11.909 -0.4390  0.2667 -0.9613
12459TIP3   OH258867   5.789   6.101   2.341  0.2407 -0.1108  0.0032
12459TIP3    H158868   5.839   6.157   2.400 -0.9420  1.2340 -0.2356
12459TIP3    H258869   5.751   6.034   2.399  0.8797 -0.1251  0.4238
12460TIP3   OH258870   5.970   5.269   5.333  0.2817 -0.3956  0.0503
12460TIP3    H158871   5.963   5.255   5.238 -1.6940 -0.3647  0.1464
12460TIP3    H258872   5.947   5.185   5.371  0.2309 -0.1745  0.5077
12461TIP3   OH258873   2.849   2.281   2.986  0.2539  0.0562 -0.3825
12461TIP3    H158874   2.805   2.270   3.070  3.5400 -2.7285  1.2195
12461TIP3    H258875   2.800   2.224   2.926 -0.8418  0.4038  0.1558
12462TIP3   OH258876   4.270   4.116   0.158 -0.2678  0.0903  0.2467
12462TIP3    H158877   4.305   4.172   0.089 -1.7311  1.8839  0.8768
12462TIP3    H258878   4.253   4.175   0.231  0.1343 -1.5628  1.7589
12463TIP3   OH258879   4.220   3.582   3.883  0.0665 -0.0677 -0.3459
12463TIP3    H158880   4.205   3.669   3.920 -0.1643 -0.6474  0.9736
12463TIP3    H258881   4.176   3.584   3.798 -2.6585  0.1359  0.9657
12464TIP3   OH258882   1.193   0.930   3.834 -0.0507 -0.2275 -0.1987
12464TIP3    H158883   1.258   0.918   3.904 -0.7406  1.2075  0.7236
12464TIP3    H258884   1.129   0.860   3.849  2.0451 -2.7971 -2.1592
12465TIP3   OH258885   3.075   0.814   2.202 -0.2644  0.1370  0.3075
12465TIP3    H158886   3.058   0.879   2.270 -0.7088  0.8666 -0.4835
12465TIP3    H258887   2.993   0.764   2.195 -0.5053  0.5863 -0.2284
12466TIP3   OH258888   2.857   0.721  15.328 -0.5417 -0.2013 -0.1656
12466TIP3    H158889   2.886   0.739  15.238  0.1869 -0.5894 -0.0124
12466TIP3    H258890   2.912   0.649  15.357  0.2776  0.8899  1.1234
12467TIP3   OH258891   5.298   3.223   2.884  0.4502  0.6480 -0.6543
12467TIP3    H158892   5.363   3.228   2.814  2.1757 -0.9006  0.7307
12467TIP3    H258893   5.237   3.155   2.854  1.3215 -0.1914 -0.5906
12468TIP3   OH258894   3.684   2.586   3.464  0.0584  0.2073  0.4885
12468TIP3    H158895   3.723   2.670   3.487  0.8514 -0.2640  0.8990
12468TIP3    H258896   3.642   2.602   3.380  1.7664  0.5671 -0.3512
12469TIP3   OH258897   1.641   4.305   5.429 -1.1358  0.6846  0.2321
12469TIP3    H158898   1.716   4.252   5.452 -0.1644  2.5449  1.6087
12469TIP3    H258899   1.613   4.271   5.344 -0.2988 -1.6478  0.8183
12470TIP3   OH258900   3.655   2.958  13.898  0.2096  0.5571  0.5214
12470TIP3    H158901   3.646   2.920  13.811 -0.9864  2.5762 -0.2980
12470TIP3    H258902   3.741   2.929  13.928  0.0314 -1.3718 -0.6956
12471TIP3   OH258903   2.089   3.013   5.023  0.4023  0.0475  0.2249
12471TIP3    H158904   2.172   2.967   5.017  1.6065  2.1587 -0.4144
12471TIP3    H258905   2.106   3.087   5.082 -0.9248  0.6936 -0.1498
12472TIP3   OH258906   5.412   4.671  14.044  0.2571 -0.7160 -0.0194
12472TIP3    H158907   5.448   4.709  14.124 -0.8115  1.3299 -0.4175
12472TIP3    H258908   5.482   4.616  14.009  2.8029  2.4063 -0.3537
12473TIP3   OH258909   6.608   4.496   1.664  0.3405 -0.1942 -0.2971
12473TIP3    H158910   6.629   4.426   1.602 -1.0178 -1.2579  0.3963
12473TIP3    H258911   6.597   4.451   1.748 -1.2340  0.7468  0.0280
12474TIP3   OH258912   3.839   3.788   0.147  0.3717 -0.2836 -0.4309
12474TIP3    H158913   3.754   3.771   0.187 -1.0385  2.5436 -1.8990
12474TIP3    H258914   3.902   3.776   0.218 -1.1406 -2.6412  0.6584
12475TIP3   OH258915   6.519   4.541  12.777 -0.1830  0.1009 -0.0656
12475TIP3    H158916   6.584   4.484  12.818 -0.0462  0.3468  0.0614
12475TIP3    H258917   6.503   4.610  12.841  0.4136  0.7777 -0.6175
12476TIP3   OH258918   6.230   4.025  15.884 -0.2926  0.4749 -0.4216
12476TIP3    H158919   6.171   4.100  15.881 -1.5248 -0.4458  0.0655
12476TIP3    H258920   6.223   3.991  15.973  0.8476  0.2333 -0.4018
12477TIP3   OH258921   2.993   4.303  13.929  0.1161  0.1564 -0.4767
12477TIP3    H158922   2.965   4.234  13.869  1.0765 -2.0646  1.4649
12477TIP3    H258923   2.918   4.361  13.936 -1.3809 -1.6386 -0.9027
12478TIP3   OH258924   5.452   2.137   0.926  0.0476  0.5395 -0.0066
12478TIP3    H158925   5.373   2.149   0.874  0.2924  0.5417 -0.3889
12478TIP3    H258926   5.423   2.092   1.005 -0.2689  0.1581 -0.3352
12479TIP3   OH258927   4.673   5.046  11.766  0.0819  0.3995  0.3225
12479TIP3    H158928   4.709   5.029  11.853  2.4018 -3.2199 -1.0853
12479TIP3    H258929   4.585   5.009  11.769 -0.5325  1.8380  1.5089
12480TIP3   OH258930   1.305   3.435   5.806 -0.3306  0.2530  0.4716
12480TIP3    H158931   1.344   3.376   5.742 -0.4058  1.1243 -0.4008
12480TIP3    H258932   1.216   3.402   5.818 -0.4462  0.3092 -0.1822
12481TIP3   OH258933   0.253   4.018   2.830  0.4100  0.2716  0.3179
12481TIP3    H158934   0.309   4.024   2.908  0.2404  2.0464  0.3466
12481TIP3    H258935   0.240   3.924   2.817 -0.1086 -0.0814  2.8262
12482TIP3   OH258936   2.089   3.594   0.265  0.3860  0.4156 -0.2578
12482TIP3    H158937   2.094   3.512   0.314 -1.5088  0.4695  0.0880
12482TIP3    H258938   2.143   3.655   0.316  0.8170 -0.2941  0.1520
12483TIP3   OH258939   2.575   2.716   4.504  0.5078 -0.4797  0.0614
12483TIP3    H158940   2.534   2.661   4.571  0.4945  1.0133  1.3456
12483TIP3    H258941   2.504   2.774   4.473  0.6056 -0.9003 -0.9889
12484TIP3   OH258942   4.406   2.312   2.906  0.0558  0.3477  0.4896
12484TIP3    H158943   4.363   2.331   2.989 -1.4925 -1.0626  0.0565
12484TIP3    H258944   4.341   2.263   2.856  0.3105  2.5388 -2.2234
12485TIP3   OH258945   6.252   0.452   4.937 -0.8759 -0.2283  0.2286
12485TIP3    H158946   6.302   0.492   5.008 -0.4999  0.5222 -0.4407
12485TIP3    H258947   6.315   0.444   4.865 -1.6101  0.4288 -0.5148
12486TIP3   OH258948   3.581   4.288  15.801  0.4551 -0.6826 -0.4086
12486TIP3    H158949   3.601   4.371  15.844 -1.9569 -0.9897  1.5824
12486TIP3    H258950   3.650   4.229  15.830  0.7566  0.0023  0.3040
12487TIP3   OH258951   0.462   2.615  11.927  0.1870 -0.6378 -0.2056
12487TIP3    H158952   0.492   2.649  12.011 -1.2629  0.5530 -0.1209
12487TIP3    H258953   0.366   2.619  11.932  0.0652  0.0424 -2.1331
12488TIP3   OH258954   5.121   6.209   2.533  0.0505  0.0411 -0.1935
12488TIP3    H158955   5.050   6.148   2.517 -0.4323  0.0002  1.8401
12488TIP3    H258956   5.199   6.166   2.498 -0.3122 -1.6882  1.0065
12489TIP3   OH258957   5.422   6.473  13.304 -0.3568  0.3087 -0.7747
12489TIP3    H158958   5.367   6.396  13.292  0.4997 -0.4942  0.2075
12489TIP3    H258959   5.511   6.438  13.310 -0.2502  0.6301  4.6435
12490TIP3   OH258960   0.491   2.146   2.889 -0.1816 -0.3365 -0.3344
12490TIP3    H158961   0.489   2.221   2.950 -1.1000 -0.4007 -0.2767
12490TIP3    H258962   0.467   2.184   2.805  0.6078 -0.3391 -0.5626
12491TIP3   OH258963   6.284   5.133   2.342 -0.2383  0.3428  0.0008
12491TIP3    H158964   6.370   5.173   2.330 -1.0887  2.2444 -0.1862
12491TIP3    H258965   6.294   5.043   2.311  1.7620  0.4191  0.3354
12492TIP3   OH258966   5.399   0.622   3.484  0.8090  0.2435  0.4106
12492TIP3    H158967   5.409   0.583   3.398 -0.9080 -0.2984  0.4249
12492TIP3    H258968   5.431   0.712   3.474  0.2632  0.3049 -0.8913
12493TIP3   OH258969   1.254   5.002   6.413 -0.0365 -0.5918 -0.4450
12493TIP3    H158970   1.240   4.928   6.471  0.4953 -0.2827  0.0868
12493TIP3    H258971   1.348   5.002   6.394  0.1365  0.4671  0.2999
12494TIP3   OH258972   1.741   3.334  15.473 -0.3968  0.2486  0.0514
12494TIP3    H158973   1.664   3.284  15.446  0.4120 -2.0158  1.6161
12494TIP3    H258974   1.705   3.417  15.506 -1.9013  0.2828 -1.5244
12495TIP3   OH258975   1.156   4.026  11.450  0.1004  0.1249 -0.1618
12495TIP3    H158976   1.181   3.934  11.459 -2.0453 -0.5798 -0.8349
12495TIP3    H258977   1.154   4.041  11.355  0.6435  0.9563 -0.0534
12496TIP3   OH258978   5.081   4.915  16.764  0.0931 -1.0468 -0.8345
12496TIP3    H158979   5.100   4.825  16.790 -0.5441 -0.7242  0.9068
12496TIP3    H258980   4.985   4.921  16.766  0.1351 -0.2769 -0.6606
12497TIP3   OH258981   2.621   0.889   4.695 -0.4350 -0.2759  0.3053
12497TIP3    H158982   2.526   0.896   4.706 -0.6357  1.6315 -1.8476
12497TIP3    H258983   2.656   0.896   4.784 -2.2135  2.4095  0.9249
12498TIP3   OH258984   6.428   1.250   5.930 -0.2056  0.0160  0.0656
12498TIP3    H158985   6.458   1.314   5.866  0.7457 -1.1578 -0.7043
12498TIP3    H258986   6.508   1.208   5.961 -0.7641 -0.3883  1.0222
12499TIP3   OH258987   6.252   3.028   5.353  0.6314 -0.1613 -0.5332
12499TIP3    H158988   6.262   2.963   5.422  0.5307 -1.0275 -1.3128
12499TIP3    H258989   6.259   3.113   5.398 -0.4235 -0.6927  0.6737
12500TIP3   OH258990   6.765   1.884   1.926 -0.4065  0.3752  0.0771
12500TIP3    H158991   6.712   1.953   1.887 -1.7878 -0.0489  1.1392
12500TIP3    H258992   6.711   1.806   1.921  1.8042 -1.1713 -2.7714
12501TIP3   OH258993   5.111   3.840   4.538 -0.3615 -0.4023 -0.0780
12501TIP3    H158994   5.048   3.911   4.538  0.8772  0.7661 -1.5791
12501TIP3    H258995   5.060   3.762   4.518 -1.4484  0.3560 -0.3347
12502TIP3   OH258996   5.811   0.729  12.128 -0.2749  0.8009  0.3704
12502TIP3    H158997   5.822   0.817  12.162  0.8150  0.6860  0.3296
12502TIP3    H258998   5.810   0.673  12.205  0.6367  0.6980  0.3180
12503TIP3   OH258999   3.579   2.005   5.090  0.4709 -0.1816 -0.3544
12503TIP3    H159000   3.528   1.954   5.152 -0.2255 -0.4420 -1.1139
12503TIP3    H259001   3.568   2.096   5.118 -2.5594  0.0790 -1.8934
12504TIP3   OH259002   3.791   4.679   4.514  0.4442 -0.6424  0.1201
12504TIP3    H159003   3.867   4.629   4.482  0.0363 -0.7140 -0.7820
12504TIP3    H259004   3.732   4.683   4.438 -0.3515 -0.3909  0.7431
12505TIP3   OH259005   1.172   4.728   0.410  0.5947 -0.5889  0.0751
12505TIP3    H159006   1.180   4.806   0.355 -2.5178  0.9409  1.5363
12505TIP3    H259007   1.163   4.655   0.348 -1.2369  0.8662 -1.4937
12506TIP3   OH259008   4.407   3.327   0.038  0.1569 -0.6951 -0.3341
12506TIP3    H159009   4.470   3.313  -0.032 -0.5871 -0.3308 -1.0866
12506TIP3    H259010   4.455   3.376   0.104  0.5326 -0.0176 -1.1042
12507TIP3   OH259011   1.449   0.990  16.084  0.4673 -0.5750  0.2706
12507TIP3    H159012   1.363   0.963  16.050 -0.2199  1.2523  0.4385
12507TIP3    H259013   1.488   1.039  16.011  0.9729 -0.6205  0.5127
12508TIP3   OH259014   4.340   1.209   4.185  0.4193  0.4648 -0.1871
12508TIP3    H159015   4.356   1.241   4.274  0.5830  0.8906 -0.3695
12508TIP3    H259016   4.290   1.129   4.198 -0.0409  0.8181  0.2749
12509TIP3   OH259017   5.837   2.131   2.965  0.1969  0.1361 -0.3835
12509TIP3    H159018   5.893   2.148   3.041  0.2094  0.7361 -0.5227
12509TIP3    H259019   5.748   2.149   2.996  0.1797  0.1553 -0.4430
12510TIP3   OH259020   6.516   3.405   3.875 -0.5920 -0.1940  0.2114
12510TIP3    H159021   6.573   3.387   3.950 -0.1135  2.2549  0.5326
12510TIP3    H259022   6.427   3.397   3.911 -0.3710  1.4274  1.2373
12511TIP3   OH259023   2.737   1.268  12.136 -0.2179  0.7538  0.2341
12511TIP3    H159024   2.828   1.274  12.165 -0.3204  0.7871  0.5484
12511TIP3    H259025   2.735   1.312  12.051  0.2324  0.0387 -0.1597
12512TIP3   OH259026   3.437   5.034  11.983 -0.4207  0.0693 -0.3539
12512TIP3    H159027   3.463   4.962  11.925 -1.8408 -0.0652 -0.8780
12512TIP3    H259028   3.510   5.096  11.978  0.6023 -1.0882 -0.2943
12513TIP3   OH259029   6.212   3.744   3.711  0.1590  0.1332  0.4892
12513TIP3    H159030   6.230   3.826   3.665 -0.4733  0.6548  1.1484
12513TIP3    H259031   6.222   3.766   3.804  1.8237 -1.0014  0.6172
12514TIP3   OH259032   4.109   0.990   0.058 -0.2762 -0.2437 -0.1571
12514TIP3    H159033   4.091   1.084   0.062 -0.4798 -0.3176  1.5542
12514TIP3    H259034   4.103   0.968  -0.035 -2.1958  1.0394 -0.3883
12515TIP3   OH259035   3.135   0.021   5.020 -0.0519  0.6453 -0.2260
12515TIP3    H159036   3.103  -0.034   5.092 -3.6030  0.1500 -1.9690
12515TIP3    H259037   3.182   0.092   5.063 -1.3074 -0.0687  2.5428
12516TIP3   OH259038   3.121   1.981   2.767  0.5010 -0.5991 -0.1352
12516TIP3    H159039   3.150   2.072   2.771 -0.2541 -0.4033  1.7159
12516TIP3    H259040   3.202   1.931   2.752  1.0114  0.3201 -0.5002
12517TIP3   OH259041   3.449   5.135   0.034 -0.4253 -0.1444  0.4814
12517TIP3    H159042   3.510   5.130   0.108 -0.2737 -0.5503  0.3338
12517TIP3    H259043   3.489   5.198  -0.026 -0.5960  0.2587  0.7877
12518TIP3   OH259044   5.406   0.153   0.866  0.2507  0.0205  1.1250
12518TIP3    H159045   5.435   0.170   0.777 -0.4344  1.0200  1.0844
12518TIP3    H259046   5.332   0.093   0.857 -1.1321  1.6939  0.8543
12519TIP3   OH259047   1.569   4.874  10.952 -0.4931  0.0700  0.5228
12519TIP3    H159048   1.579   4.807  10.885  0.8778 -0.2449  1.0147
12519TIP3    H259049   1.583   4.957  10.906 -1.6698  0.0157  0.0209
12520TIP3   OH259050   2.306   2.117   5.557  1.0246  0.2314  0.4394
12520TIP3    H159051   2.331   2.063   5.632  1.3140 -0.7567 -0.3387
12520TIP3    H259052   2.229   2.074   5.520  0.6201  0.9563  0.4193
12521TIP3   OH259053   4.104   1.946  15.633 -0.4400  0.2985  0.0099
12521TIP3    H159054   4.067   1.936  15.545  0.8724  2.0369 -0.8030
12521TIP3    H259055   4.130   1.857  15.658 -1.0207 -0.2631 -1.2786
12522TIP3   OH259056   1.471   4.162   3.328  0.2534 -0.7891  0.1673
12522TIP3    H159057   1.413   4.233   3.352 -0.7775 -1.2992 -0.7225
12522TIP3    H259058   1.486   4.113   3.409 -1.1302 -1.0447  0.2924
12523TIP3   OH259059   6.131   3.148  13.576 -0.6423 -0.5054 -0.2125
12523TIP3    H159060   6.175   3.072  13.538  1.7665  1.0487 -0.7857
12523TIP3    H259061   6.068   3.176  13.510  0.1219 -0.6422 -1.0090
12524TIP3   OH259062   2.096   2.684   2.748 -0.3303  0.1491 -0.0145
12524TIP3    H159063   2.080   2.691   2.842 -0.8089 -1.8578  0.0858
12524TIP3    H259064   2.143   2.602   2.737 -1.5583 -0.3904 -1.6599
12525TIP3   OH259065   1.524   1.253  16.155 -0.5609 -0.2765 -0.1320
12525TIP3    H159066   1.432   1.275  16.170 -0.4091 -0.6008  1.5216
12525TIP3    H259067   1.524   1.159  16.141 -0.3716 -0.5417  1.4041
12526TIP3   OH259068   1.089   3.909  16.935  0.1302 -0.4481 -0.5705
12526TIP3    H159069   1.037   3.937  17.010  0.1311  0.7228 -0.9829
12526TIP3    H259070   1.041   3.834  16.899 -0.1567 -0.6781  0.2684
12527TIP3   OH259071   1.747   3.418  11.617  0.2230  0.0522 -0.2429
12527TIP3    H159072   1.750   3.358  11.542  0.5134  0.4381 -0.5502
12527TIP3    H259073   1.738   3.362  11.693  3.3315 -0.6136 -0.2381
12528TIP3   OH259074   4.234   3.902  15.130  0.3133  0.2319  0.4578
12528TIP3    H159075   4.287   3.880  15.206 -0.9578 -1.6364  0.8602
12528TIP3    H259076   4.273   3.983  15.096  3.1792 -0.8441  0.9276
12529TIP3   OH259077   2.367   4.227  11.346  0.0968  0.1025  0.2812
12529TIP3    H159078   2.362   4.314  11.385  0.3229 -0.3320  1.3025
12529TIP3    H259079   2.275   4.204  11.327  0.1877  1.8292 -2.9729
12530TIP3   OH259080   4.616   6.088  12.005 -0.2261 -0.3073  0.2405
12530TIP3    H159081   4.674   6.084  12.081 -1.3546  0.9773  1.2147
12530TIP3    H259082   4.589   5.997  11.991  1.0460 -0.7540  0.5068
12531TIP3   OH259083   0.046   2.383   4.259 -0.0477 -0.2342 -0.0474
12531TIP3    H159084   0.032   2.325   4.185 -2.1958  1.4927 -1.0939
12531TIP3    H259085   0.033   2.327   4.336  0.5991 -1.6836 -0.9541
12532TIP3   OH259086   1.259   5.493  16.555  0.1039  0.1356  0.1336
12532TIP3    H159087   1.174   5.511  16.516  0.2600  1.4925  0.3950
12532TIP3    H259088   1.322   5.508  16.485  0.1356 -1.2929 -0.1888
12533TIP3   OH259089   3.409   4.281  13.804  0.5995  0.1507  0.1208
12533TIP3    H159090   3.352   4.309  13.876  1.3600  1.7400  0.1452
12533TIP3    H259091   3.353   4.285  13.726  0.1107 -0.3975  0.4285
12534TIP3   OH259092   6.110   0.229   5.642 -0.0257  0.3109  0.2967
12534TIP3    H159093   6.048   0.297   5.668  1.0349  1.0460  1.0021
12534TIP3    H259094   6.137   0.253   5.554  0.0618  0.5979  0.4008
12535TIP3   OH259095   2.428   5.536  10.935 -0.2998 -0.2061 -0.1764
12535TIP3    H159096   2.346   5.582  10.922 -0.3641 -0.3834 -0.4087
12535TIP3    H259097   2.491   5.583  10.879  0.5109  1.8677  2.2788
12536TIP3   OH259098   4.985   3.445  16.245  0.4976  0.9002 -0.0549
12536TIP3    H159099   5.010   3.512  16.308 -0.1358  0.6686  0.4532
12536TIP3    H259100   4.947   3.494  16.172  0.5637  1.1249  0.0613
12537TIP3   OH259101   4.154   4.468   0.612 -0.0982 -0.0289 -0.5522
12537TIP3    H159102   4.149   4.512   0.696 -1.2660  0.8796 -1.0569
12537TIP3    H259103   4.192   4.533   0.553  0.5177 -0.5832 -0.7759
12538TIP3   OH259104   0.903   0.227  15.461 -0.3312 -0.0075  0.2990
12538TIP3    H159105   0.822   0.187  15.429  0.1404 -1.8944  1.2750
12538TIP3    H259106   0.876   0.280  15.536 -0.6619 -0.8039  0.7582
12539TIP3   OH259107   1.887   1.176  15.069 -0.1641 -0.6925  0.0087
12539TIP3    H159108   1.913   1.265  15.046 -0.9418 -0.8915 -1.7420
12539TIP3    H259109   1.881   1.177  15.165  1.8950  0.5355  0.1802
12540TIP3   OH259110   0.226   4.667  14.884 -0.4688 -0.4503 -0.1617
12540TIP3    H159111   0.228   4.694  14.792  0.9085  0.4927  0.1030
12540TIP3    H259112   0.208   4.748  14.932 -1.0272 -0.9074  0.4144
12541TIP3   OH259113   1.547   5.693   3.346  0.6341 -0.0845  0.0126
12541TIP3    H159114   1.579   5.659   3.430 -1.9929  1.2811  1.6836
12541TIP3    H259115   1.452   5.690   3.353  0.3073  2.1378 -2.0700
12542TIP3   OH259116   2.336   0.534   4.605  0.4331  0.3369 -0.2083
12542TIP3    H159117   2.303   0.472   4.541 -0.3789  0.5868 -0.0405
12542TIP3    H259118   2.428   0.545   4.582  0.0945  0.6332 -1.5026
12543TIP3   OH259119   3.271   2.370  16.173 -0.2674  0.1427  0.0822
12543TIP3    H159120   3.278   2.372  16.078  0.2086 -0.8926  0.0771
12543TIP3    H259121   3.213   2.295  16.191  2.3485 -1.8919  0.6744
12544TIP3   OH259122   3.933   3.782   0.396  0.1522 -0.4495  0.7819
12544TIP3    H159123   3.867   3.817   0.457  0.5347  2.1516 -0.1519
12544TIP3    H259124   4.013   3.778   0.448  0.0587 -0.0611  0.9638
12545TIP3   OH259125   1.063   6.499  14.692 -0.0836  0.2450  0.7056
12545TIP3    H159126   1.077   6.590  14.669  1.2395  0.4655  2.1965
12545TIP3    H259127   1.106   6.488  14.777 -1.6620 -1.3588  1.3718
12546TIP3   OH259128   1.239   2.996  16.916 -0.5055  0.2022 -0.3480
12546TIP3    H159129   1.172   3.062  16.935 -0.4709  0.8135 -2.1148
12546TIP3    H259130   1.322   3.045  16.917  0.1514 -0.7543  2.9447
12547TIP3   OH259131   2.197   0.845  17.165  0.4856 -0.3964 -0.1609
12547TIP3    H159132   2.233   0.830  17.077 -4.2186  0.7735 -2.6124
12547TIP3    H259133   2.247   0.920  17.198  0.9495  0.6151 -2.8547
12548TIP3   OH259134   1.298   5.684  17.227 -0.1009 -0.0397 -0.5607
12548TIP3    H159135   1.307   5.621  17.299 -0.5741  0.1015 -0.3729
12548TIP3    H259136   1.344   5.644  17.154 -0.8140 -0.8304 -0.5943
12549TIP3   OH259137   0.771   6.798   2.400 -0.6617  0.1118 -0.1403
12549TIP3    H159138   0.766   6.754   2.485  1.3471 -0.2327 -0.1441
12549TIP3    H259139   0.697   6.763   2.351 -0.5693 -1.3832  0.7154
12550TIP3   OH259140   0.151   1.073   2.951 -0.0345 -0.5779  0.5071
12550TIP3    H159141   0.163   1.159   2.910 -1.5121 -0.8940 -0.7018
12550TIP3    H259142   0.236   1.031   2.943  0.6500  0.6849  0.9075
12551TIP3   OH259143   4.580   4.642  11.161 -0.3537  0.1365  0.5866
12551TIP3    H159144   4.516   4.596  11.216  0.0137 -1.4779 -0.2601
12551TIP3    H259145   4.634   4.692  11.222 -1.8709  0.8708  1.3925
12552TIP3   OH259146   3.261   3.123   0.061  0.0853 -0.0961  0.2822
12552TIP3    H159147   3.222   3.156   0.142 -0.6373  1.4954 -0.6666
12552TIP3    H259148   3.188   3.114   0.001  0.4096 -2.5609  0.1508
12553TIP3   OH259149   4.355   6.701  14.073  0.0570 -0.0626  0.4814
12553TIP3    H159150   4.398   6.786  14.064  0.6800 -0.3120  1.0741
12553TIP3    H259151   4.414   6.640  14.029 -0.4240 -0.1803 -0.0038
12554TIP3   OH259152   4.404   0.699   9.983  0.0217  0.1689  0.1760
12554TIP3    H159153   4.318   0.714  10.022 -0.8069  0.3565 -1.6277
12554TIP3    H259154   4.444   0.633  10.039  0.5448  3.0786  3.6594
12555TIP3   OH259155   3.651   4.078  16.869 -0.3875 -0.2433 -0.2463
12555TIP3    H159156   3.647   4.173  16.864  0.6745 -0.2164 -0.8146
12555TIP3    H259157   3.744   4.058  16.875 -0.6321 -1.2256  0.4871
12556TIP3   OH259158   0.694   0.065  12.564 -0.3022 -0.1010 -0.3070
12556TIP3    H159159   0.674   0.108  12.481 -0.7539 -1.8348 -1.1507
12556TIP3    H259160   0.786   0.083  12.579 -0.7560  2.2344  0.0854
12557TIP3   OH259161   6.545   5.641  12.861 -0.5253  0.0080 -0.2530
12557TIP3    H159162   6.640   5.633  12.868 -0.3869  0.5989 -1.2354
12557TIP3    H259163   6.530   5.666  12.770 -1.7691 -1.9282 -0.6250
12558TIP3   OH259164   0.626   4.186  15.694 -0.5605  0.0032  0.0694
12558TIP3    H159165   0.714   4.222  15.679 -0.4385 -0.0207  0.7075
12558TIP3    H259166   0.586   4.245  15.757 -0.7621 -0.3577  0.2825
12559TIP3   OH259167   5.732   3.953   2.676 -0.5539 -0.4227  0.3562
12559TIP3    H159168   5.731   3.894   2.751 -2.0733 -1.1870 -0.2280
12559TIP3    H259169   5.794   3.914   2.615 -0.2812 -0.4851  0.6692
12560TIP3   OH259170   3.729   3.284   2.252  0.0863  0.8985 -0.1960
12560TIP3    H159171   3.676   3.219   2.297  0.0364  1.2751  0.2879
12560TIP3    H259172   3.818   3.269   2.284  0.3842 -0.0659 -1.3801
12561TIP3   OH259173   5.734   1.361   1.217  0.3636 -0.1573  0.4355
12561TIP3    H159174   5.642   1.372   1.194 -0.0442  3.2815  2.8543
12561TIP3    H259175   5.734   1.302   1.292  0.3588 -1.3277 -0.4560
12562TIP3   OH259176   5.827   5.914  14.481 -0.4775 -0.2534 -0.2163
12562TIP3    H159177   5.791   5.855  14.415 -1.6934  0.1850  0.0272
12562TIP3    H259178   5.761   5.982  14.492  0.6572  0.8713 -0.0898
12563TIP3   OH259179   2.684   0.525  14.100 -0.8694  0.4699 -0.6446
12563TIP3    H159180   2.728   0.462  14.043 -0.7995  1.8558 -2.2237
12563TIP3    H259181   2.692   0.609  14.053 -1.7035  1.4969  0.9466
12564TIP3   OH259182   2.649   1.312  11.527 -0.0615 -0.3924  0.8896
12564TIP3    H159183   2.731   1.273  11.495 -0.0014 -1.0237  1.7624
12564TIP3    H259184   2.651   1.402  11.494  1.0876 -0.3347  1.0428
12565TIP3   OH259185   1.159   3.763   6.660 -0.1829 -0.3271 -0.0290
12565TIP3    H159186   1.117   3.677   6.668  0.3260 -0.5597  0.2225
12565TIP3    H259187   1.223   3.765   6.732  0.2745 -0.0062 -0.4399
12566TIP3   OH259188   3.410   1.675  17.090  0.0336 -0.5512  0.0371
12566TIP3    H159189   3.493   1.720  17.100  0.4968 -1.2036 -0.7960
12566TIP3    H259190   3.344   1.738  17.119  0.8599 -0.3123  1.4900
12567TIP3   OH259191   1.180   4.583  12.195  0.1974 -0.0357 -0.6125
12567TIP3    H159192   1.266   4.547  12.175 -0.6857 -2.1638 -0.8583
12567TIP3    H259193   1.136   4.589  12.111 -0.3936 -0.3669 -0.3348
12568TIP3   OH259194   1.374   0.813  14.028 -0.3665  0.2490  0.2317
12568TIP3    H159195   1.356   0.838  14.119 -2.2497  1.5132 -0.4374
12568TIP3    H259196   1.417   0.890  13.990  0.5231 -0.3184  0.0623
12569TIP3   OH259197   2.143   1.961   4.352  0.3254 -0.2157 -0.0351
12569TIP3    H159198   2.079   1.900   4.389 -0.6215  1.2893  0.8919
12569TIP3    H259199   2.113   1.973   4.261 -1.6035  1.5050  0.7423
12570TIP3   OH259200   1.418   1.539   1.733  0.4972 -0.0654  1.0934
12570TIP3    H159201   1.340   1.535   1.678  1.1969 -3.4726  0.1037
12570TIP3    H259202   1.450   1.629   1.723 -1.2735  0.3949 -1.4142
12571TIP3   OH259203   1.259   3.536  11.838  0.4165 -0.5644 -0.0847
12571TIP3    H159204   1.334   3.553  11.896 -0.3605 -3.7226  2.1264
12571TIP3    H259205   1.182   3.550  11.893 -0.3909 -2.3537 -0.6627
12572TIP3   OH259206   6.621   4.825  16.892 -0.5429 -0.4050 -0.3171
12572TIP3    H159207   6.559   4.768  16.846  3.2237 -3.6115 -1.9866
12572TIP3    H259208   6.670   4.869  16.822  0.3639  0.5182  0.8534
12573TIP3   OH259209   0.739   1.485  13.775 -0.4312  0.5131  0.0690
12573TIP3    H159210   0.785   1.527  13.702 -1.0465  0.4343 -0.3727
12573TIP3    H259211   0.671   1.433  13.734 -0.8448  0.5363  0.7045
12574TIP3   OH259212   4.476   6.166   1.992  0.1830 -0.1669  0.1809
12574TIP3    H159213   4.388   6.178   1.955  0.0914  0.0706  0.4685
12574TIP3    H259214   4.473   6.213   2.075  0.1515 -1.3317  0.8565
12575TIP3   OH259215   4.274   6.620   0.802 -1.0087 -0.2663 -0.3862
12575TIP3    H159216   4.240   6.703   0.768 -0.3895  0.4069  0.5855
12575TIP3    H259217   4.204   6.557   0.784 -0.9632  0.1678 -2.2926
12576TIP3   OH259218   5.922   0.528  15.365 -0.5849 -0.0957  0.5011
12576TIP3    H159219   5.967   0.538  15.449 -0.8264 -0.4788  0.6827
12576TIP3    H259220   5.944   0.606  15.316 -0.9300  0.4248  1.1525
12577TIP3   OH259221   4.864   0.639  11.083 -0.4250  0.2939  0.4913
12577TIP3    H159222   4.958   0.619  11.074 -0.4208  0.5120  0.0041
12577TIP3    H259223   4.838   0.598  11.165 -0.2686 -1.1655 -0.1639
12578TIP3   OH259224   3.574   1.863  13.735  0.0851  0.1538 -0.1487
12578TIP3    H159225   3.608   1.941  13.778 -1.3407  0.8081 -0.1621
12578TIP3    H259226   3.491   1.846  13.779  0.7477 -1.8593  0.4174
12579TIP3   OH259227   5.401   5.993   4.893  0.1466  0.5876 -0.0090
12579TIP3    H159228   5.462   5.941   4.946  0.6321  0.3769 -0.7642
12579TIP3    H259229   5.449   6.072   4.870  0.3027  0.2322 -0.9617
12580TIP3   OH259230   3.787   4.118   5.718  0.4721 -0.0344  0.1382
12580TIP3    H159231   3.801   4.059   5.793 -1.8173  1.3862  1.8029
12580TIP3    H259232   3.870   4.164   5.708  1.2064 -1.1254  0.9966
12581TIP3   OH259233   5.116   6.010   3.219 -0.1135 -0.3519 -0.3203
12581TIP3    H159234   5.111   6.058   3.136 -1.1817  0.4737  0.1982
12581TIP3    H259235   5.028   5.974   3.231  0.6213 -2.4087 -0.6397
12582TIP3   OH259236   5.101   4.454  13.605  0.5311  0.6240  0.2716
12582TIP3    H159237   5.085   4.511  13.680  2.3050 -0.1728  1.3307
12582TIP3    H259238   5.188   4.418  13.620  0.0622 -1.2660 -1.0823
12583TIP3   OH259239   6.813   1.828   0.163 -0.7032  0.3281  0.1826
12583TIP3    H159240   6.850   1.754   0.213  0.1313 -0.4279 -1.4744
12583TIP3    H259241   6.836   1.905   0.215 -0.5267 -0.4723  1.3417
12584TIP3   OH259242   1.452   4.712   2.635  0.5747  0.3406  0.0332
12584TIP3    H159243   1.420   4.757   2.713  0.7177  1.5401 -0.5840
12584TIP3    H259244   1.519   4.652   2.668  1.4965  1.7042  0.7110
12585TIP3   OH259245   2.479   3.918  14.492 -0.2632  0.0654  0.2843
12585TIP3    H159246   2.540   3.957  14.555  0.0948 -0.0462  0.0130
12585TIP3    H259247   2.413   3.985  14.477 -0.4557  0.0245  0.9167
12586TIP3   OH259248   0.758   3.426   4.443 -0.8792  0.2092  0.1715
12586TIP3    H159249   0.853   3.420   4.446 -0.8539 -1.5855 -1.8022
12586TIP3    H259250   0.727   3.346   4.485 -1.4480 -0.0152 -0.6428
12587TIP3   OH259251   0.827   2.915  14.488  0.0013 -0.8715  0.1185
12587TIP3    H159252   0.786   2.957  14.412  1.3310 -0.2608 -0.3076
12587TIP3    H259253   0.865   2.834  14.453  0.3122 -0.7632  0.2002
12588TIP3   OH259254   6.584   1.455  15.918 -0.2177 -0.5095 -0.0130
12588TIP3    H159255   6.568   1.431  16.010 -2.0259  2.1841  0.4859
12588TIP3    H259256   6.508   1.421  15.871 -0.0765 -0.5041 -0.2452
12589TIP3   OH259257   0.414   6.763   3.251 -0.0134  0.2638 -0.7321
12589TIP3    H159258   0.473   6.702   3.296  0.0220  0.7992 -0.0249
12589TIP3    H259259   0.367   6.808   3.322 -0.1608  0.9364 -1.2372
12590TIP3   OH259260   4.429   4.891  11.730  0.6167  0.7410  0.2813
12590TIP3    H159261   4.467   4.806  11.749 -1.1855 -0.6204 -1.7217
12590TIP3    H259262   4.364   4.874  11.662 -0.2422  3.6367  0.2222
12591TIP3   OH259263   1.215   1.254   5.956  0.2309 -0.1194  0.0334
12591TIP3    H159264   1.148   1.322   5.958  0.7107  0.3730  2.4111
12591TIP3    H259265   1.285   1.291   5.903 -1.1874 -0.5228 -2.2388
12592TIP3   OH259266   1.784   0.379   1.810 -0.4856  0.4403  0.4379
12592TIP3    H159267   1.767   0.406   1.901  1.2327  1.6717  0.4328
12592TIP3    H259268   1.830   0.296   1.817  3.2615  2.3418  1.0048
12593TIP3   OH259269   5.828   3.922  14.274 -0.1487 -0.1780 -0.5046
12593TIP3    H159270   5.888   3.895  14.345  1.1522  1.8719 -0.7521
12593TIP3    H259271   5.851   4.013  14.256 -2.1845  0.1360 -1.8625
12594TIP3   OH259272   1.199   4.059  16.361  0.3732  0.1291 -0.2765
12594TIP3    H159273   1.263   4.008  16.410  1.9738  1.9914 -0.3260
12594TIP3    H259274   1.192   4.142  16.409 -1.0401  0.4756 -1.0037
12595TIP3   OH259275   5.454   1.389   2.877  0.3794 -0.1247  0.0311
12595TIP3    H159276   5.523   1.442   2.915  0.1824  0.7276 -0.7669
12595TIP3    H259277   5.441   1.425   2.789 -0.0001 -1.2699 -0.4065
12596TIP3   OH259278   5.265   2.458  16.782  0.0069 -0.0540 -0.1844
12596TIP3    H159279   5.279   2.440  16.875  0.3826 -0.1884 -0.2622
12596TIP3    H259280   5.265   2.553  16.775  0.6718 -0.0498 -0.1463
12597TIP3   OH259281   1.072   2.628   5.189  0.3215  0.2266  0.0842
12597TIP3    H159282   1.153   2.663   5.226  0.5760  0.4784 -0.6924
12597TIP3    H259283   1.077   2.534   5.207  0.7256  0.2574  0.1621
12598TIP3   OH259284   1.796   4.124  14.748 -0.2589  0.0389 -0.6328
12598TIP3    H159285   1.724   4.183  14.726 -2.0135 -0.6516  2.6116
12598TIP3    H259286   1.753   4.042  14.773  1.6632 -0.6413  0.6809
12599TIP3   OH259287   3.666   1.481   4.367  0.2588  0.0382  0.2118
12599TIP3    H159288   3.670   1.414   4.435  1.8629  0.9623  1.1032
12599TIP3    H259289   3.757   1.490   4.337 -0.5393 -1.0720 -2.8343
12600TIP3   OH259290   5.150   5.993   1.652 -0.3313  0.4955  0.3699
12600TIP3    H159291   5.224   6.016   1.595  0.0592  1.3598  1.2077
12600TIP3    H259292   5.171   5.905   1.683 -1.0069 -0.3928 -1.5253
12601TIP3   OH259293   3.891   5.701   2.390 -0.0401  0.5553  0.3551
12601TIP3    H159294   3.827   5.631   2.372  0.2932 -0.4953  2.8028
12601TIP3    H259295   3.849   5.781   2.359 -2.0768 -0.2680  0.8424
12602TIP3   OH259296   3.887   5.625  12.424  0.2291  0.0214  0.1489
12602TIP3    H159297   3.856   5.539  12.453 -0.4011 -0.3067 -1.3863
12602TIP3    H259298   3.851   5.687  12.487 -0.0037 -0.7737  0.8043
12603TIP3   OH259299   6.257   4.217   0.350  0.5460  0.3540 -0.1979
12603TIP3    H159300   6.247   4.181   0.439 -1.4214 -0.8727 -0.8301
12603TIP3    H259301   6.292   4.305   0.363 -0.3144  0.4516  1.8485
12604TIP3   OH259302   0.286   3.571  16.504  0.2612 -0.0818 -0.1387
12604TIP3    H159303   0.236   3.579  16.423  0.5684 -0.1720 -0.3404
12604TIP3    H259304   0.352   3.641  16.499 -0.3471  0.5542  0.4932
12605TIP3   OH259305   3.947   5.830  17.120 -0.2150  0.8114 -0.4637
12605TIP3    H159306   3.961   5.776  17.041 -0.5741  0.4235 -0.2664
12605TIP3    H259307   3.980   5.916  17.095 -0.7052  0.8040 -1.1908
12606TIP3   OH259308   6.287   5.452   0.775  0.2484 -0.3314  0.2109
12606TIP3    H159309   6.199   5.419   0.759 -0.1224  0.8212 -0.2165
12606TIP3    H259310   6.277   5.546   0.784  1.3594 -0.2435  0.7820
12607TIP3   OH259311   3.311   0.779   1.478  0.2376 -0.0755  0.4581
12607TIP3    H159312   3.267   0.716   1.536  0.0527 -0.4175 -0.0416
12607TIP3    H259313   3.292   0.864   1.517 -1.2732 -0.1736  0.0267
12608TIP3   OH259314   5.790   2.882   1.012 -0.1112 -0.9888  0.4120
12608TIP3    H159315   5.721   2.851   0.953  1.6353 -3.3123 -0.5724
12608TIP3    H259316   5.770   2.840   1.095  0.2381 -1.9006  0.0503
12609TIP3   OH259317   2.463   0.221  15.277  0.4148 -0.4356  0.4058
12609TIP3    H159318   2.399   0.189  15.213 -0.6879  2.0885  0.0920
12609TIP3    H259319   2.529   0.267  15.225 -1.4337  3.2254  0.9484
12610TIP3   OH259320   1.831   4.906   3.620 -0.1900  0.0624  0.5352
12610TIP3    H159321   1.878   4.987   3.638 -0.2634 -0.1323  1.6853
12610TIP3    H259322   1.782   4.888   3.701  1.5360 -2.3030  1.1741
12611TIP3   OH259323   5.345   2.929  11.578 -0.1643 -0.4731 -0.1685
12611TIP3    H159324   5.378   2.905  11.492  3.3192  2.4821  0.1029
12611TIP3    H259325   5.416   2.904  11.638 -0.5091  1.5876  1.1959
12612TIP3   OH259326   2.429   2.630   4.249  0.1562 -0.6194 -0.5262
12612TIP3    H159327   2.507   2.627   4.193  0.8639  2.9908  0.0096
12612TIP3    H259328   2.367   2.684   4.201 -0.1184  0.5832  1.0889
12613TIP3   OH259329   1.985   0.659   2.032  1.0372  0.2133 -0.6778
12613TIP3    H159330   1.918   0.663   2.100  1.7921 -1.1952  0.2093
12613TIP3    H259331   1.961   0.727   1.969  0.7050  2.0645  1.3569
12614TIP3   OH259332   1.467   2.376   5.479 -0.3400  0.4128  0.8683
12614TIP3    H159333   1.408   2.442   5.443  0.2261 -0.2205 -1.3657
12614TIP3    H259334   1.437   2.293   5.441 -0.0878 -0.4266  2.4145
12615TIP3   OH259335   2.604   4.265   2.324 -0.2228  0.4325 -0.4068
12615TIP3    H159336   2.551   4.340   2.351 -0.0530  0.8899 -1.3016
12615TIP3    H259337   2.596   4.203   2.396 -1.8742  0.5323 -0.4554
12616TIP3   OH259338   0.956   2.299  15.587  0.0834  0.2083 -0.0443
12616TIP3    H159339   0.974   2.305  15.494  2.4221  1.6683  0.4302
12616TIP3    H259340   0.897   2.224  15.595  2.1564 -1.8697 -2.3985
12617TIP3   OH259341   5.725   4.565   4.704  0.5912  0.5604 -0.1785
12617TIP3    H159342   5.820   4.565   4.699  0.6840 -0.7411  0.9938
12617TIP3    H259343   5.705   4.517   4.785 -1.0373  1.5312  0.0462
12618TIP3   OH259344   1.836   0.758  14.302  0.3644  0.7157  0.6019
12618TIP3    H159345   1.861   0.690  14.240  0.6558  0.7287  0.7018
12618TIP3    H259346   1.876   0.730  14.385 -0.9093  0.1404  1.0454
12619TIP3   OH259347   3.645   6.708   2.192  0.0247  0.5550  0.0308
12619TIP3    H159348   3.683   6.623   2.170  1.5223  1.4289 -1.0025
12619TIP3    H259349   3.698   6.739   2.266 -0.3716  0.6921  0.2597
12620TIP3   OH259350   4.965   0.954   5.935  0.5139 -0.1734 -0.1260
12620TIP3    H159351   4.944   1.044   5.909 -1.8134 -0.6106 -0.0280
12620TIP3    H259352   4.936   0.900   5.861  0.0495 -0.9638  0.6050
12621TIP3   OH259353   4.801   1.113   4.785  0.1107 -0.3431 -0.1587
12621TIP3    H159354   4.831   1.024   4.800  1.1474  0.2042  1.2637
12621TIP3    H259355   4.880   1.161   4.761 -0.0652  0.5725  0.9940
12622TIP3   OH259356   6.646   6.055   5.344 -0.3498  0.2066 -0.6533
12622TIP3    H159357   6.723   6.040   5.397 -1.8394 -4.5346  0.6556
12622TIP3    H259358   6.581   6.090   5.405 -0.7765 -1.1069 -0.3165
12623TIP3   OH259359   6.647   5.126  14.151 -0.3943 -0.9986 -0.4019
12623TIP3    H159360   6.559   5.164  14.141  0.5435  0.9920 -1.8002
12623TIP3    H259361   6.671   5.145  14.241 -0.4368  0.7924 -0.7302
12624TIP3   OH259362   5.351   6.756  11.207 -0.4868  0.0327 -0.3078
12624TIP3    H159363   5.281   6.733  11.267 -3.6098  2.1564 -2.7743
12624TIP3    H259364   5.381   6.673  11.170 -2.4808 -0.8919  0.0762
12625TIP3   OH259365   6.589   4.145   3.452  0.5450 -0.1186 -0.4804
12625TIP3    H159366   6.582   4.063   3.404 -3.2438  1.9643 -4.1759
12625TIP3    H259367   6.632   4.205   3.391 -0.0256  1.5188  0.6379
12626TIP3   OH259368   0.823   3.510   3.840 -0.0189  0.1522  0.8924
12626TIP3    H159369   0.848   3.432   3.890  1.2509  1.2649  2.0589
12626TIP3    H259370   0.902   3.534   3.792  0.0339  1.4844  1.6049
12627TIP3   OH259371   3.649   5.895  16.714 -0.2388 -0.4753  0.2153
12627TIP3    H159372   3.639   5.985  16.684 -0.2625 -0.4786  0.2150
12627TIP3    H259373   3.586   5.845  16.662  0.3404 -0.6192 -0.3661
12628TIP3   OH259374   5.965   0.713   5.354 -0.3173 -0.2423  0.0232
12628TIP3    H159375   6.054   0.734   5.382 -1.0602  0.2427  2.2777
12628TIP3    H259376   5.960   0.618   5.359  0.5272 -0.4070 -1.7393
12629TIP3   OH259377   3.635   0.175  14.201 -0.0151 -0.8844 -0.1239
12629TIP3    H159378   3.545   0.141  14.201  0.0476 -1.1573  1.4528
12629TIP3    H259379   3.668   0.153  14.288  0.1739  2.8685  0.9356
12630TIP3   OH259380   6.413   1.991   4.237 -0.2447 -0.1533  0.9960
12630TIP3    H159381   6.475   2.013   4.306 -0.9893  1.7553  1.1185
12630TIP3    H259382   6.369   2.073   4.217 -0.1342 -0.6543 -1.7002
12631TIP3   OH259383   3.473   1.151   0.020 -0.3165 -0.3356 -1.1513
12631TIP3    H159384   3.495   1.167  -0.072  3.7416  1.7799 -0.0855
12631TIP3    H259385   3.548   1.102   0.055 -0.3182  1.3192  1.5285
12632TIP3   OH259386   1.167   0.415   1.763 -0.1090  0.0708  0.2334
12632TIP3    H159387   1.229   0.427   1.835  0.7656  1.8142 -0.7370
12632TIP3    H259388   1.082   0.440   1.800  0.2022  0.2357  0.8504
12633TIP3   OH259389   3.120   4.871   5.697 -0.0391 -0.3241  0.3392
12633TIP3    H159390   3.139   4.777   5.704  1.2322 -0.1226 -0.0768
12633TIP3    H259391   3.048   4.876   5.634 -2.3038 -1.1944  2.6967
12634TIP3   OH259392   0.910   0.356   1.216  0.3738 -0.2772  0.0407
12634TIP3    H159393   0.871   0.428   1.267 -0.2036  0.5045 -1.4068
12634TIP3    H259394   0.846   0.341   1.146 -0.1437 -3.1143  1.0034
12635TIP3   OH259395   6.413   0.997  11.813 -0.0669 -1.0125  0.0951
12635TIP3    H159396   6.343   1.020  11.751 -0.9808 -2.5472  0.5218
12635TIP3    H259397   6.493   1.022  11.767 -0.8608  0.9028 -0.3597
12636TIP3   OH259398   1.274   3.103   4.416 -0.1056  0.3272 -0.2064
12636TIP3    H159399   1.318   3.143   4.492  0.5762  0.5548 -0.7154
12636TIP3    H259400   1.333   3.033   4.388 -2.2323 -2.6079  1.9934
12637TIP3   OH259401   2.807   0.039   2.518 -0.2692 -0.0090  0.0637
12637TIP3    H159402   2.859   0.043   2.438  0.8602  0.0309  0.7802
12637TIP3    H259403   2.753  -0.039   2.508  1.3584 -1.1900  0.1347
12638TIP3   OH259404   2.344   0.694   2.789  0.4709  0.3669  0.3676
12638TIP3    H159405   2.411   0.727   2.850  0.4561 -0.5063  0.8720
12638TIP3    H259406   2.315   0.612   2.828 -0.6714  0.5751 -0.0218
12639TIP3   OH259407   2.221   0.746   2.366 -0.4620  0.7246 -0.1374
12639TIP3    H159408   2.310   0.764   2.395 -0.9644  0.5802  1.6021
12639TIP3    H259409   2.177   0.832   2.368 -1.0131  0.4313  1.4626
12640TIP3   OH259410   3.440   1.266   1.048 -0.3742  0.4024  0.2031
12640TIP3    H159411   3.347   1.245   1.044 -0.2169 -0.3253  0.2369
12640TIP3    H259412   3.466   1.244   1.138  0.2682 -1.3446 -0.3718
12641TIP3   OH259413   1.302   2.927   5.629 -0.2267 -0.0044  0.1608
12641TIP3    H159414   1.275   2.954   5.717  0.5033 -0.5981  0.5742
12641TIP3    H259415   1.336   2.838   5.640 -1.8552 -0.8459 -1.0398
12642TIP3   OH259416   3.775   2.311   0.108 -0.6729 -0.6423  0.0916
12642TIP3    H159417   3.808   2.227   0.075  0.8259  0.1162 -0.4515
12642TIP3    H259418   3.825   2.327   0.188 -0.6264 -0.0740 -0.0424
12643TIP3   OH259419   0.838   4.863  12.871  0.5290  0.1893  0.1169
12643TIP3    H159420   0.744   4.872  12.860  0.7886  1.2890 -1.4762
12643TIP3    H259421   0.853   4.768  12.875 -0.6526  0.0118  0.7465
12644TIP3   OH259422   4.582   0.038  14.568  0.1004  0.4590 -0.1101
12644TIP3    H159423   4.587   0.133  14.575  0.3239  0.5341 -1.0765
12644TIP3    H259424   4.524   0.011  14.639  0.4051  1.2678  0.4531
12645TIP3   OH259425   2.558   3.657   3.616  0.4123 -0.3593  0.3466
12645TIP3    H159426   2.576   3.604   3.694  2.4334  2.2446  1.8229
12645TIP3    H259427   2.641   3.703   3.598 -0.5586  0.5935 -2.1865
12646TIP3   OH259428   1.320   5.638   2.487 -0.2768  0.6670  0.0411
12646TIP3    H159429   1.239   5.654   2.440 -0.6268 -0.7936  0.0940
12646TIP3    H259430   1.384   5.697   2.446 -1.3719  1.9303  0.0938
12647TIP3   OH259431   6.472   0.920   4.314  0.5870  0.2745  0.2069
12647TIP3    H159432   6.425   0.839   4.334  1.9363 -0.6299 -0.1821
12647TIP3    H259433   6.487   0.916   4.219 -0.9322  1.8930 -0.1766
12648TIP3   OH259434   1.470   2.767   2.417  0.0001 -0.1454  0.3006
12648TIP3    H159435   1.449   2.742   2.327 -1.1404  1.0548  0.1966
12648TIP3    H259436   1.557   2.806   2.412  0.2804 -0.8254 -0.1424
12649TIP3   OH259437   3.414   5.512   0.174  0.1476 -0.0557  0.1426
12649TIP3    H159438   3.455   5.533   0.258 -0.6136  0.5583  0.3734
12649TIP3    H259439   3.459   5.433   0.144 -0.3648 -0.9682  1.6939
12650TIP3   OH259440   2.824   2.017  12.632 -0.6586  0.5108  0.3721
12650TIP3    H159441   2.800   2.061  12.550  0.2823  0.5685  0.1120
12650TIP3    H259442   2.882   1.946  12.605  0.8808  1.4381  1.0702
12651TIP3   OH259443   6.709   4.051  11.992 -0.0351 -0.7134 -0.7272
12651TIP3    H159444   6.627   4.048  11.943 -0.6535  2.3744 -0.1207
12651TIP3    H259445   6.771   4.094  11.932  0.4042 -0.7528 -0.3051
12652TIP3   OH259446   2.473   3.787  11.698 -0.0895 -0.4650 -0.5292
12652TIP3    H159447   2.428   3.853  11.750  0.6191 -1.0108  0.8158
12652TIP3    H259448   2.402   3.731  11.665 -0.5409 -0.3005  0.1309
12653TIP3   OH259449   3.356   3.168   3.539  0.0148  0.5932 -0.0010
12653TIP3    H159450   3.276   3.217   3.521  0.2138  0.2322 -2.1808
12653TIP3    H259451   3.329   3.076   3.537  0.5477  0.4423 -1.3906
12654TIP3   OH259452   2.562   0.561  12.021 -0.8062  1.1485 -0.0355
12654TIP3    H159453   2.657   0.569  12.032 -0.7439 -0.5953  1.2276
12654TIP3    H259454   2.526   0.613  12.093 -0.7192  0.0409  0.8369
12655TIP3   OH259455   5.513   6.567   3.928  0.1795 -0.6409  0.2454
12655TIP3    H159456   5.503   6.656   3.893 -0.8531 -0.9807 -0.4042
12655TIP3    H259457   5.426   6.528   3.917 -0.0039 -1.0068  2.6041
12656TIP3   OH259458   1.331   5.074   3.859  0.3560  0.5543  0.9861
12656TIP3    H159459   1.367   5.048   3.774  0.1384  0.6944  0.8507
12656TIP3    H259460   1.326   4.993   3.909 -1.2175  0.1705  0.2418
12657TIP3   OH259461   5.918   5.355  15.991 -0.4242 -0.1989  0.5005
12657TIP3    H159462   5.922   5.348  16.086 -2.1320  0.0757  0.6204
12657TIP3    H259463   5.878   5.273  15.962  0.5935 -0.5236 -0.0505
12658TIP3   OH259464   6.532   6.775  12.430 -0.2382 -0.5355 -0.3047
12658TIP3    H159465   6.494   6.860  12.452  0.4765 -0.0223 -0.9874
12658TIP3    H259466   6.598   6.760  12.498 -1.2370 -1.1572  0.5491
12659TIP3   OH259467   5.970   2.775   6.365 -0.1720  0.0240 -0.3067
12659TIP3    H159468   5.952   2.713   6.295  0.8117 -0.5981 -0.0155
12659TIP3    H259469   5.906   2.754   6.433 -1.7997  1.2748 -1.3644
12660TIP3   OH259470   4.095   0.273  16.660  0.3471 -0.1891  0.6741
12660TIP3    H159471   4.040   0.349  16.676  3.2108  2.3799 -0.7004
12660TIP3    H259472   4.180   0.309  16.634  1.3803 -3.8621 -1.9012
12661TIP3   OH259473   1.193   1.124  14.549  0.5672  0.3731  0.0771
12661TIP3    H159474   1.185   1.218  14.568  1.4636  0.3919  0.3937
12661TIP3    H259475   1.117   1.105  14.495  0.4181  1.3081 -0.0700
12662TIP3   OH259476   5.702   4.200  10.962  0.4857 -0.2507 -0.4398
12662TIP3    H159477   5.777   4.176  11.016  0.7772  0.1206 -0.6778
12662TIP3    H259478   5.687   4.293  10.982 -0.2312 -0.4497 -0.0074
12663TIP3   OH259479   4.726   3.969   1.413 -0.4711 -0.0185  0.2566
12663TIP3    H159480   4.643   3.926   1.393 -0.8662  0.5702  0.6261
12663TIP3    H259481   4.763   3.990   1.327 -0.9286  0.1389  0.0947
12664TIP3   OH259482   1.119   5.443   1.260  0.0128  0.4688  0.5164
12664TIP3    H159483   1.138   5.380   1.330 -1.3411 -0.9607 -0.3145
12664TIP3    H259484   1.056   5.503   1.299 -1.1090 -0.6072  0.4446
12665TIP3   OH259485   1.542   6.343  13.290  0.3172 -0.1805 -0.3801
12665TIP3    H159486   1.612   6.312  13.347 -0.0837 -2.3166 -0.9542
12665TIP3    H259487   1.463   6.338  13.345  0.3390  0.5009 -0.2782
12666TIP3   OH259488   1.971   0.414  16.578  0.0757 -0.0980 -0.7979
12666TIP3    H159489   1.967   0.496  16.530 -3.2848  0.2859 -0.1146
12666TIP3    H259490   2.030   0.431  16.651 -0.8919  1.9227 -0.4155
12667TIP3   OH259491   4.734   3.063  17.048 -0.0873 -0.0180  0.0034
12667TIP3    H159492   4.816   3.036  17.091  0.5988  1.3910 -0.3454
12667TIP3    H259493   4.752   3.152  17.017 -0.5058 -0.9708 -3.3108
12668TIP3   OH259494   3.029   0.963  10.240 -0.4355 -0.0499 -0.2590
12668TIP3    H159495   2.980   0.941  10.319 -1.9690  1.5510 -0.6915
12668TIP3    H259496   2.994   1.049  10.214  1.3807  0.3290 -1.6021
12669TIP3   OH259497   4.838   3.101  12.949  0.1806  0.4010 -0.4201
12669TIP3    H159498   4.791   3.020  12.963 -0.2276  0.2930 -2.1617
12669TIP3    H259499   4.919   3.075  12.905  0.9345  0.7796  0.6925
12670TIP3   OH259500   3.585   3.158  10.505 -0.1053  0.3599  1.0025
12670TIP3    H159501   3.534   3.130  10.581  1.7332 -1.9671  1.4815
12670TIP3    H259502   3.655   3.212  10.541  1.0641 -1.1541  1.0994
12671TIP3   OH259503   0.874   5.835  15.204 -0.6697  0.1709  0.8888
12671TIP3    H159504   0.781   5.859  15.209 -0.9867 -0.9641  0.9283
12671TIP3    H259505   0.921   5.918  15.204 -1.7355  0.8093 -0.3134
12672TIP3   OH259506   4.714   5.938  15.400  0.1085 -0.9315 -0.0249
12672TIP3    H159507   4.785   5.899  15.452  1.5727  0.3132 -0.9911
12672TIP3    H259508   4.692   5.870  15.336  2.3007 -0.4556 -1.3866
12673TIP3   OH259509   3.624   0.356   3.092 -0.2394 -0.0935  0.2831
12673TIP3    H159510   3.534   0.356   3.061 -0.3485  1.7199  0.5097
12673TIP3    H259511   3.670   0.415   3.033  0.6458 -0.4163  0.6244
12674TIP3   OH259512   3.714   0.230  13.767 -0.5130 -1.1075 -0.1629
12674TIP3    H159513   3.658   0.281  13.825 -0.1167 -0.3917 -0.3947
12674TIP3    H259514   3.656   0.198  13.698 -0.5269  0.2323 -0.8033
12675TIP3   OH259515   0.863   4.935  13.720  0.3275  0.0218  0.7318
12675TIP3    H159516   0.912   4.870  13.770  0.4565  0.1758  0.8051
12675TIP3    H259517   0.791   4.961  13.778 -0.9654 -1.5914 -0.0782
12676TIP3   OH259518   2.444   3.638  14.506  0.4092 -0.2624  0.6381
12676TIP3    H159519   2.454   3.732  14.524 -0.3694 -0.0989  0.2661
12676TIP3    H259520   2.436   3.632  14.411 -1.7085 -0.4475  0.7700
12677TIP3   OH259521   3.931   2.762   5.205  0.2448 -0.1543  0.2354
12677TIP3    H159522   3.883   2.755   5.288 -0.3664 -1.2786 -0.1987
12677TIP3    H259523   4.023   2.767   5.231  0.0277  0.0290  0.9969
12678TIP3   OH259524   3.842   6.268  16.299  0.9631 -0.2143 -0.5966
12678TIP3    H159525   3.817   6.254  16.208 -1.4391 -0.1943 -0.0076
12678TIP3    H259526   3.927   6.226  16.308 -0.1478 -3.0233 -2.0918
12679TIP3   OH259527   4.365   2.659  15.500  0.8067 -0.2122  0.3952
12679TIP3    H159528   4.331   2.726  15.559  0.5108 -1.3325  1.5620
12679TIP3    H259529   4.442   2.624  15.545  2.1314  0.6541 -1.1068
12680TIP3   OH259530   6.393   4.610   1.250  0.6199 -0.0292 -0.1774
12680TIP3    H159531   6.433   4.629   1.165  1.4194 -0.3220  0.1199
12680TIP3    H259532   6.458   4.639   1.314  0.7704 -1.3436  0.3048
12681TIP3   OH259533   6.559   3.559   4.858  0.1597  0.4083  0.3680
12681TIP3    H159534   6.582   3.621   4.927 -3.0614  1.6711  0.4342
12681TIP3    H259535   6.547   3.476   4.903  0.5754  0.6362  0.9045
12682TIP3   OH259536   4.017   5.408  13.657 -0.7339  0.0540  0.3852
12682TIP3    H159537   3.969   5.332  13.691 -0.6228 -0.7200 -1.1232
12682TIP3    H259538   4.088   5.420  13.720 -0.6031 -1.2572  0.5250
12683TIP3   OH259539   6.468   2.529  16.878  0.6125  0.3519  0.0506
12683TIP3    H159540   6.486   2.435  16.872  1.8696  0.6219 -0.9234
12683TIP3    H259541   6.539   2.563  16.932  0.3298  0.7907  0.1431
12684TIP3   OH259542   1.162   1.783   1.875  0.5297  0.1205 -0.1350
12684TIP3    H159543   1.238   1.785   1.817 -0.0600  3.2426 -0.9535
12684TIP3    H259544   1.143   1.875   1.894 -1.5952 -0.6516  2.0156
12685TIP3   OH259545   0.683   1.730   5.929  0.7316  0.5631  0.0995
12685TIP3    H159546   0.677   1.698   5.840  1.7014 -0.7511  0.4827
12685TIP3    H259547   0.602   1.700   5.971  0.6498  0.4828 -0.1146
12686TIP3   OH259548   2.908   4.505   0.861 -0.5623  0.0316  0.2431
12686TIP3    H159549   2.906   4.551   0.776 -2.6786 -1.2445 -0.4733
12686TIP3    H259550   2.943   4.570   0.922  1.0192  0.9914 -1.5847
12687TIP3   OH259551   0.089   5.235  16.463  0.5418  0.4977  0.2892
12687TIP3    H159552   0.166   5.274  16.422 -0.4404  0.0665 -2.1430
12687TIP3    H259553   0.090   5.144  16.435 -0.4327  0.2804  0.8940
12688TIP3   OH259554   3.836   2.907   3.113  0.1429 -0.1580  0.0031
12688TIP3    H159555   3.924   2.934   3.084  0.4146  0.2971  1.2085
12688TIP3    H259556   3.777   2.957   3.057  0.6181 -1.2238 -1.5229
12689TIP3   OH259557   2.913   5.739  10.648 -0.6215 -0.5684 -0.0971
12689TIP3    H159558   2.820   5.752  10.628 -0.2745 -1.2952 -2.4345
12689TIP3    H259559   2.952   5.708  10.566  1.3530 -2.0569  1.2996
12690TIP3   OH259560   0.592   0.161   2.867 -0.5745 -0.1777  0.1469
12690TIP3    H159561   0.686   0.169   2.881 -0.7940  0.3952  1.4379
12690TIP3    H259562   0.564   0.092   2.927 -0.8288 -1.1380 -1.0374
12691TIP3   OH259563   4.364   3.007  16.218  0.4331 -0.5356  0.7797
12691TIP3    H159564   4.367   2.916  16.246  1.8060 -0.9585 -0.6184
12691TIP3    H259565   4.456   3.030  16.202 -0.1384 -0.2889 -3.0178
12692TIP3   OH259566   4.576   5.010   5.497  0.0903 -0.2984 -0.2047
12692TIP3    H159567   4.545   5.100   5.488 -0.4196 -0.4075  0.3634
12692TIP3    H259568   4.542   4.982   5.582  1.1979 -0.6533  0.1286
12693TIP3   OH259569   0.639   3.839  11.809 -0.0003  0.0765  0.0388
12693TIP3    H159570   0.583   3.803  11.741 -0.6001 -3.0595  1.9700
12693TIP3    H259571   0.687   3.763  11.843  2.2143  1.9378  1.3761
12694TIP3   OH259572   4.644   2.441   3.305 -0.1413 -0.7830  0.8786
12694TIP3    H159573   4.735   2.409   3.301 -0.0319 -0.3301 -1.2067
12694TIP3    H259574   4.599   2.378   3.361  0.7531 -2.9152 -0.6845
12695TIP3   OH259575   4.175   6.689  14.900  0.2465 -0.0232  0.1247
12695TIP3    H159576   4.110   6.718  14.836 -1.3457 -2.7070  0.3863
12695TIP3    H259577   4.260   6.704  14.857 -0.6931  0.2618 -1.6984
12696TIP3   OH259578   1.817   3.985  11.298  0.5010  0.4951 -0.2587
12696TIP3    H159579   1.904   3.946  11.305 -0.3274 -1.3963  0.1331
12696TIP3    H259580   1.833   4.079  11.297  2.5565  0.1901 -0.4353
12697TIP3   OH259581   3.062   5.027  14.788 -0.3529  0.1321  0.1809
12697TIP3    H159582   3.008   5.030  14.709 -0.6491 -0.8564  0.3325
12697TIP3    H259583   3.001   5.003  14.857  0.3840 -1.6197  0.2504
12698TIP3   OH259584   5.067   4.446  13.327 -0.1322 -0.1391  0.5052
12698TIP3    H159585   5.102   4.535  13.319  1.6176 -0.9373 -1.3985
12698TIP3    H259586   5.042   4.439  13.419 -1.8146  2.8179  0.4100
12699TIP3   OH259587   5.309   6.139   4.472 -0.3206 -0.7090 -0.2300
12699TIP3    H159588   5.366   6.071   4.435  1.5155  1.5967 -1.8847
12699TIP3    H259589   5.256   6.169   4.399 -0.3113  0.3883  0.1906
12700TIP3   OH259590   4.081   3.145   6.677 -0.2958  0.2470  0.4772
12700TIP3    H159591   4.073   3.195   6.596 -0.1431  3.2645  2.2076
12700TIP3    H259592   3.996   3.153   6.719 -0.5583 -1.7732  0.4474
12701TIP3   OH259593   6.415   0.039  15.336 -0.4258  0.2919  0.3157
12701TIP3    H159594   6.348  -0.006  15.388  0.0881 -0.6337  0.1878
12701TIP3    H259595   6.490  -0.020  15.336 -0.0651  0.7213 -0.6605
12702TIP3   OH259596   5.150   2.123  14.319 -0.0899 -0.0663  0.1953
12702TIP3    H159597   5.105   2.149  14.399 -0.8096  0.6550 -0.4281
12702TIP3    H259598   5.161   2.028  14.327 -1.4313 -0.2049  0.5229
12703TIP3   OH259599   6.404   3.305   5.105 -0.0689  0.4211 -0.4955
12703TIP3    H159600   6.430   3.317   5.196  0.1829  1.6633 -0.7166
12703TIP3    H259601   6.487   3.292   5.058 -0.2982 -2.1788 -0.3135
12704TIP3   OH259602   1.891   6.696   2.285 -0.5152  0.3428 -0.6115
12704TIP3    H159603   1.949   6.716   2.212  0.7260  0.5141  0.4000
12704TIP3    H259604   1.925   6.746   2.358 -1.1921 -0.5247  0.3321
12705TIP3   OH259605   3.189   1.860  12.836  0.0122 -0.1084  0.0219
12705TIP3    H159606   3.186   1.774  12.879 -0.0489 -0.0859  0.0620
12705TIP3    H259607   3.272   1.898  12.865  0.2818 -0.3639 -0.3958
12706TIP3   OH259608   5.891   4.920   3.123  0.3781 -0.4862  0.2597
12706TIP3    H159609   5.966   4.863   3.107  1.5453  1.3844 -1.5373
12706TIP3    H259610   5.815   4.869   3.094  1.3887 -1.1119 -1.4602
12707TIP3   OH259611   1.042   0.812  13.497 -0.0290  0.0637 -0.3472
12707TIP3    H159612   0.985   0.884  13.471  0.1694  0.6770  0.8296
12707TIP3    H259613   1.043   0.816  13.593  0.7739 -0.8863 -0.2990
12708TIP3   OH259614   3.984   4.280   5.323  0.0519  0.2922  0.0777
12708TIP3    H159615   3.901   4.232   5.317  0.4798 -0.4028 -0.5092
12708TIP3    H259616   4.036   4.246   5.251  1.1247  0.1996  0.8726
12709TIP3   OH259617   5.662   6.178  11.168  0.1625 -0.1411 -0.1831
12709TIP3    H159618   5.685   6.136  11.085 -2.0702 -1.3932 -0.2469
12709TIP3    H259619   5.661   6.272  11.148  0.8379 -0.3433 -1.2335
12710TIP3   OH259620   0.129   0.866  16.513  0.0041  0.3088 -0.2341
12710TIP3    H159621   0.166   0.779  16.523 -0.1274  0.1365 -1.1456
12710TIP3    H259622   0.036   0.856  16.530  0.3714  0.8504  2.6498
12711TIP3   OH259623   3.733   4.606  14.316 -0.8581  0.4833  0.0689
12711TIP3    H159624   3.687   4.672  14.369  2.6604  0.8723  3.0554
12711TIP3    H259625   3.745   4.532  14.375 -0.1614 -0.7173 -1.5106
12712TIP3   OH259626   4.506   2.827  15.915 -0.1957 -0.4775  0.3454
12712TIP3    H159627   4.464   2.741  15.923 -3.8133  1.1083  0.3867
12712TIP3    H259628   4.496   2.867  16.001 -0.2331  0.6725 -0.1748
12713TIP3   OH259629   5.931   4.655   1.629  0.4089  0.3058  0.0960
12713TIP3    H159630   5.843   4.671   1.595 -0.9994 -2.4964  2.0693
12713TIP3    H259631   5.989   4.670   1.554 -2.1398 -1.8920 -2.5228
12714TIP3   OH259632   2.632   4.582   1.122 -0.0222  0.0765  0.1305
12714TIP3    H159633   2.565   4.517   1.144 -1.0004  0.9797 -0.0651
12714TIP3    H259634   2.616   4.602   1.029  0.5793  0.2413  0.0562
12715TIP3   OH259635   6.106   6.360   1.154 -0.3261 -0.3183 -0.0115
12715TIP3    H159636   6.125   6.440   1.104 -0.1722 -0.6352 -0.4616
12715TIP3    H259637   6.065   6.301   1.091  0.1536 -0.8399  0.1620
12716TIP3   OH259638   1.002   4.446  13.853  0.1724 -0.1355  0.4322
12716TIP3    H159639   1.053   4.373  13.817  0.5445 -0.3729  1.4194
12716TIP3    H259640   0.917   4.409  13.873  0.4029 -0.3261  1.0505
12717TIP3   OH259641   3.462   1.287  14.647  0.1318 -0.1833 -0.0485
12717TIP3    H159642   3.544   1.334  14.633  0.9812 -1.6789 -0.2024
12717TIP3    H259643   3.455   1.278  14.742 -0.7982  1.5005  0.0959
12718TIP3   OH259644   2.213   3.124  14.252  0.6648 -0.7444  0.1266
12718TIP3    H159645   2.171   3.064  14.191  0.0487  0.4638 -0.6769
12718TIP3    H259646   2.236   3.200  14.199  2.4573 -0.7062  0.8760
12719TIP3   OH259647   4.157   4.917   2.577  0.0439  0.3739 -0.2779
12719TIP3    H159648   4.144   4.846   2.640  1.1636  1.6164  1.4335
12719TIP3    H259649   4.088   4.981   2.599  1.7000  1.7667  1.1873
12720TIP3   OH259650   1.049   3.106  13.148 -0.0414 -0.3682  0.2976
12720TIP3    H159651   0.994   3.154  13.210  0.3715 -1.5547  1.6325
12720TIP3    H259652   1.114   3.170  13.120 -1.1062  0.5952 -0.0599
12721TIP3   OH259653   0.269   0.448  12.474  0.5330 -0.0145  0.6113
12721TIP3    H159654   0.220   0.510  12.528  1.6290  2.2099 -0.7926
12721TIP3    H259655   0.285   0.373  12.531 -0.9568  0.9219  2.3556
12722TIP3   OH259656   0.801   2.456   5.612 -0.1892 -0.3144 -0.2132
12722TIP3    H159657   0.737   2.395   5.650 -0.3309  1.0295  1.8698
12722TIP3    H259658   0.885   2.414   5.626 -0.4334 -1.1130 -1.0220
12723TIP3   OH259659   3.426   1.240   1.313  0.4138 -0.2219 -0.6197
12723TIP3    H159660   3.381   1.160   1.339  0.1649 -0.0931 -0.6524
12723TIP3    H259661   3.360   1.309   1.319  1.1121  0.3462  1.3983
12724TIP3   OH259662   1.164   4.977  13.660 -0.0611 -0.2860 -0.1078
12724TIP3    H159663   1.190   4.885  13.675 -0.3486 -0.0399  2.4317
12724TIP3    H259664   1.069   4.974  13.652  0.1491 -0.6281 -4.5658
12725TIP3   OH259665   1.976   2.480  17.000  0.3974  0.0323  0.2117
12725TIP3    H159666   2.047   2.509  16.943  0.2800  0.2813  0.1923
12725TIP3    H259667   1.989   2.529  17.081  0.7943 -0.6095  0.5444
12726TIP3   OH259668   4.668   2.751   3.423  0.0473 -0.9413  0.1588
12726TIP3    H159669   4.750   2.724   3.383  0.3327  0.6566 -0.4070
12726TIP3    H259670   4.658   2.694   3.499  0.9400 -2.1175 -0.5800
12727TIP3   OH259671   3.483   2.173   1.671 -0.3650  0.3538  0.5253
12727TIP3    H159672   3.433   2.181   1.751  0.0327  1.0983  0.7096
12727TIP3    H259673   3.445   2.238   1.612 -0.1656  0.3363  0.3761
12728TIP3   OH259674   6.678   6.162  12.727  0.1708  0.0475 -0.4190
12728TIP3    H159675   6.636   6.248  12.722  1.2606  0.5579 -1.0105
12728TIP3    H259676   6.656   6.119  12.644  0.6199  0.2282 -0.6343
12729TIP3   OH259677   5.756   6.082   4.327  0.1805  0.1712 -0.5100
12729TIP3    H159678   5.731   6.153   4.267  0.2192  0.4199 -0.2336
12729TIP3    H259679   5.846   6.101   4.351 -0.2832  0.8913  0.7687
12730TIP3   OH259680   5.873   1.958   2.254  0.3082 -0.1283  0.1752
12730TIP3    H159681   5.894   1.961   2.160  2.6482 -0.8765  0.6117
12730TIP3    H259682   5.831   1.872   2.266 -2.2030  0.9163 -0.5200
12731TIP3   OH259683   4.445   5.720  14.319 -0.4655  0.1308 -0.4454
12731TIP3    H159684   4.419   5.641  14.272  1.1304  0.1943 -1.4809
12731TIP3    H259685   4.411   5.707  14.408  1.4561 -2.6490 -0.0042
12732TIP3   OH259686   6.583   4.729   1.432  0.6109  0.7037 -0.5759
12732TIP3    H159687   6.516   4.796   1.445 -0.1665 -0.0274 -0.7877
12732TIP3    H259688   6.605   4.700   1.521 -1.4091 -1.0494 -0.5867
12733TIP3   OH259689   3.427   0.756   5.054 -0.0624  0.4006  0.0186
12733TIP3    H159690   3.394   0.746   4.965  0.7097  0.4531 -0.2831
12733TIP3    H259691   3.386   0.837   5.086  0.1029  0.6942 -0.5007
12734TIP3   OH259692   0.586   5.189   2.604 -0.3062  0.5282 -0.5561
12734TIP3    H159693   0.680   5.200   2.615 -0.2377  1.0199 -1.5519
12734TIP3    H259694   0.553   5.175   2.693  0.5553  1.5649 -0.0484
12735TIP3   OH259695   3.127   5.872   6.635 -0.0636  0.0111 -0.1956
12735TIP3    H159696   3.204   5.862   6.691  0.4715 -1.6209 -1.1405
12735TIP3    H259697   3.054   5.850   6.692  0.0183  2.4314  0.9582
12736TIP3   OH259698   6.090   3.411   3.357 -0.1462 -0.0306 -0.0531
12736TIP3    H159699   6.073   3.499   3.390 -2.1870 -0.4900  0.2665
12736TIP3    H259700   6.177   3.417   3.316 -1.1470  2.7100 -2.0733
12737TIP3   OH259701   5.588   2.937   3.178  0.2153  0.6541  0.0915
12737TIP3    H159702   5.596   2.841   3.175 -0.7337  0.5750 -2.1908
12737TIP3    H259703   5.520   2.953   3.242 -1.1268 -0.3783 -1.0111
12738TIP3   OH259704   6.381   6.397  16.646 -0.4619 -0.4349  0.3680
12738TIP3    H159705   6.476   6.398  16.634 -0.6048 -0.2946 -0.9708
12738TIP3    H259706   6.368   6.375  16.738  0.8602 -0.7432  0.4990
12739TIP3   OH259707   5.355   4.375  13.627  0.0815 -0.0244 -0.0419
12739TIP3    H159708   5.428   4.335  13.675  0.8077 -0.1227 -1.1960
12739TIP3    H259709   5.396   4.441  13.571 -0.8119  0.4699 -0.1428
12740TIP3   OH259710   4.930   5.256   3.578 -0.6520  0.2260 -0.1312
12740TIP3    H159711   4.863   5.253   3.510  0.1804  0.3424 -0.9753
12740TIP3    H259712   4.950   5.164   3.595 -0.4840  0.2114 -0.4166
12741TIP3   OH259713   0.758   4.744  13.469 -0.3485 -1.1306  0.0719
12741TIP3    H159714   0.741   4.689  13.392 -1.2884  0.0117 -0.5661
12741TIP3    H259715   0.708   4.704  13.539 -1.2414 -0.9436 -0.4510
12742TIP3   OH259716   6.074   0.827  15.765 -0.2211  0.0519  0.1249
12742TIP3    H159717   6.014   0.807  15.693 -1.3650  0.5215  0.9209
12742TIP3    H259718   6.160   0.830  15.724 -0.8462  0.2920 -1.2278
12743TIP3   OH259719   0.102   1.407   3.532 -0.0542  0.8930 -0.1824
12743TIP3    H159720   0.033   1.451   3.483  0.5155 -0.0261 -1.8766
12743TIP3    H259721   0.151   1.358   3.466  0.9004 -0.1985  1.2813
12744TIP3   OH259722   3.068   3.558  15.300 -0.1918 -0.5281  0.0287
12744TIP3    H159723   2.980   3.526  15.318 -0.9360  2.0297  1.4822
12744TIP3    H259724   3.116   3.547  15.381  0.8512 -1.8272 -0.7302
12745TIP3   OH259725   0.742   0.196  16.559  0.2057 -0.1918  0.4300
12745TIP3    H159726   0.797   0.245  16.498 -0.9339  1.3529  0.5840
12745TIP3    H259727   0.783   0.211  16.645 -0.3992  0.9027  0.5378
12746TIP3   OH259728   1.865   3.373  14.795 -0.1216  0.0632  0.0655
12746TIP3    H159729   1.936   3.351  14.735 -1.1011 -1.2380 -0.6501
12746TIP3    H259730   1.880   3.317  14.871 -1.1708 -1.3200 -0.6986
12747TIP3   OH259731   0.684   6.144  12.889  0.5686  0.1532 -0.2183
12747TIP3    H159732   0.777   6.125  12.899  0.0450 -2.4354  0.5612
12747TIP3    H259733   0.657   6.177  12.975  0.6172  0.2432 -0.2371
12748TIP3   OH259734   0.281   1.326  12.700 -0.5950 -0.5365  0.1625
12748TIP3    H159735   0.219   1.384  12.744 -1.8106 -0.2903 -1.7576
12748TIP3    H259736   0.230   1.249  12.676  0.5032 -1.5025  0.7906
12749TIP3   OH259737   1.776   5.181  11.355 -0.1196  0.2903  0.1853
12749TIP3    H159738   1.709   5.144  11.297 -1.4120  1.4205  0.8898
12749TIP3    H259739   1.734   5.183  11.441  1.4854 -0.6436  1.0396
12750TIP3   OH259740   4.534   2.837   3.800 -0.6216 -0.0924  0.2513
12750TIP3    H159741   4.500   2.779   3.868  0.5448  0.2471  1.1454
12750TIP3    H259742   4.599   2.785   3.754  0.1449  0.3606  0.8033
12751TIP3   OH259743   1.805   1.402   0.209 -0.3178  0.0174 -0.1571
12751TIP3    H159744   1.757   1.382   0.290 -0.1119 -0.2721 -0.1060
12751TIP3    H259745   1.872   1.335   0.204 -0.4867 -0.1129 -0.7028
12752TIP3   OH259746   4.899   5.696  10.613 -0.0012 -0.8058  0.3587
12752TIP3    H159747   4.864   5.780  10.583  0.6513 -1.0680 -1.2519
12752TIP3    H259748   4.826   5.655  10.660 -0.6470  0.2112  0.2773
12753TIP3   OH259749   4.997   4.444   0.648 -0.2764 -0.2848 -0.9384
12753TIP3    H159750   5.063   4.506   0.616 -0.4232  1.2952  1.5583
12753TIP3    H259751   5.033   4.409   0.730 -2.0824 -0.1130 -0.0068
12754TIP3   OH259752   3.216   4.142  14.581 -0.3679 -0.8849 -0.3328
12754TIP3    H159753   3.254   4.230  14.576 -0.1869 -0.8628  0.9969
12754TIP3    H259754   3.281   4.085  14.541 -0.2403 -0.4823 -0.7053
12755TIP3   OH259755   5.232   3.249   2.096 -0.2976  0.8412  0.0761
12755TIP3    H159756   5.189   3.263   2.013  0.1720  0.9837 -0.1476
12755TIP3    H259757   5.306   3.191   2.075  1.0797  2.5310 -0.0006
12756TIP3   OH259758   1.310   2.091   5.550  0.0081  0.4708 -0.3541
12756TIP3    H159759   1.261   2.008   5.549  1.7944 -0.6613  0.1456
12756TIP3    H259760   1.287   2.131   5.634  0.3572 -0.3446  0.1518
12757TIP3   OH259761   2.248   3.371   4.242  0.1736 -0.0429  0.0348
12757TIP3    H159762   2.285   3.328   4.165  0.7968 -2.0925  1.4090
12757TIP3    H259763   2.158   3.338   4.247 -0.2186  0.9058 -0.3553
12758TIP3   OH259764   2.808   5.903   0.082 -0.3297  0.1656 -0.0304
12758TIP3    H159765   2.754   5.825   0.074 -0.3211  0.2012 -0.4468
12758TIP3    H259766   2.849   5.913  -0.004 -2.5947  2.2825 -0.9859
12759TIP3   OH259767   1.802   2.405  11.462  0.1194 -0.4172 -0.2684
12759TIP3    H159768   1.831   2.461  11.390  1.3399 -0.4325  0.1819
12759TIP3    H259769   1.740   2.459  11.512 -0.0326 -0.0912 -0.8060
12760TIP3   OH259770   5.906   0.232  13.567  0.7226 -0.3917  0.2970
12760TIP3    H159771   5.989   0.280  13.569 -0.1074  1.0917  1.0567
12760TIP3    H259772   5.892   0.203  13.657  0.8023 -1.3528  0.0099
12761TIP3   OH259773   1.246   4.487   4.103 -0.3673 -0.0262  0.2220
12761TIP3    H159774   1.220   4.549   4.035  0.4736 -0.0126 -0.1017
12761TIP3    H259775   1.168   4.433   4.117 -1.0426  0.9609  0.3636
12762TIP3   OH259776   3.590   6.427   6.278  0.0126 -0.4640 -0.3830
12762TIP3    H159777   3.519   6.491   6.278 -0.1933 -0.6801 -0.9294
12762TIP3    H259778   3.589   6.389   6.365 -0.1743 -0.0641 -0.2079
12763TIP3   OH259779   5.605   1.034   5.057  0.1945 -0.4772 -0.7112
12763TIP3    H159780   5.644   0.965   5.111 -0.3495 -2.0929 -2.3055
12763TIP3    H259781   5.565   1.093   5.120  0.9752 -1.4165  0.7320
12764TIP3   OH259782   4.629   6.364   2.899 -0.0643 -0.2356 -0.4301
12764TIP3    H159783   4.535   6.354   2.910 -0.3076  0.5366 -1.6453
12764TIP3    H259784   4.648   6.325   2.813  0.3555  1.4881 -1.1708
12765TIP3   OH259785   5.728   2.535   5.178 -0.1782 -0.3691 -0.6099
12765TIP3    H159786   5.749   2.575   5.263  0.9763 -3.0987  0.4930
12765TIP3    H259787   5.791   2.574   5.117  1.3954 -0.9467  0.5724
12766TIP3   OH259788   5.342   6.099   6.861  0.4343  0.0446 -0.1432
12766TIP3    H159789   5.328   6.009   6.892  1.5973 -0.3256 -0.6369
12766TIP3    H259790   5.411   6.091   6.795 -0.4179  1.1309 -1.1880
12767TIP3   OH259791   2.256   3.993  13.882  0.0531 -0.0472  0.3237
12767TIP3    H159792   2.190   3.977  13.949 -1.4336  1.7341 -0.6246
12767TIP3    H259793   2.312   3.915  13.885 -1.7702 -1.4175  1.5172
12768TIP3   OH259794   0.742   0.104   3.392  0.1025 -0.5119  0.3107
12768TIP3    H159795   0.734   0.185   3.341  0.8812 -0.4290  0.3201
12768TIP3    H259796   0.737   0.131   3.483  0.0849 -0.5095  0.3090
12769TIP3   OH259797   3.129   1.986  15.357 -0.4233  0.0498 -0.1873
12769TIP3    H159798   3.038   1.999  15.330 -0.2557  0.1702 -0.7044
12769TIP3    H259799   3.178   2.054  15.312 -0.3853  1.5491  1.9588
12770TIP3   OH259800   0.947   3.719  12.135  0.0628 -0.2324  0.2204
12770TIP3    H159801   0.988   3.694  12.218 -0.4279 -0.0572  0.5189
12770TIP3    H259802   0.931   3.813  12.143 -0.4319 -0.3063  0.1218
12771TIP3   OH259803   3.125   4.698   0.241 -0.2780 -0.1781  0.1275
12771TIP3    H159804   3.106   4.639   0.169  0.0331  0.6077 -0.6189
12771TIP3    H259805   3.219   4.690   0.256 -0.2957 -0.1435  0.2658
12772TIP3   OH259806   1.552   1.043   0.222  0.6553  0.4227  0.2774
12772TIP3    H159807   1.564   0.964   0.168 -1.0713 -1.6495  2.7086
12772TIP3    H259808   1.572   1.115   0.162  1.1475 -1.7685 -2.4385
12773TIP3   OH259809   6.452   0.338   4.237  0.2274  0.2066  0.4174
12773TIP3    H159810   6.497   0.384   4.308  0.0675  0.8808  0.1002
12773TIP3    H259811   6.523   0.312   4.177  0.1317  3.4725 -1.3617
12774TIP3   OH259812   3.055   2.974  11.256  0.1276  0.1052  0.8710
12774TIP3    H159813   2.999   2.937  11.325 -0.9002 -1.0864 -0.5454
12774TIP3    H259814   3.034   2.923  11.178  1.4487  1.2495 -0.2859
12775TIP3   OH259815   3.392   2.550  14.719 -0.1748 -0.3283  0.0212
12775TIP3    H159816   3.396   2.603  14.640  0.0372  1.7494  1.3478
12775TIP3    H259817   3.312   2.498  14.709 -0.1154 -0.1472 -1.5646
12776TIP3   OH259818   1.450   3.558  13.638  0.2721 -0.0009 -0.3705
12776TIP3    H159819   1.513   3.496  13.602  0.8236  0.9455 -1.0883
12776TIP3    H259820   1.452   3.542  13.732 -0.5945 -1.9677 -0.6340
12777TIP3   OH259821   4.455   6.547   2.686  0.2449  0.6437 -0.1987
12777TIP3    H159822   4.513   6.600   2.632  0.5854 -0.5912 -1.0820
12777TIP3    H259823   4.453   6.592   2.770  0.2972  2.1956 -0.9932
12778TIP3   OH259824   6.263   5.223  14.417 -0.1020 -0.6802 -0.3092
12778TIP3    H159825   6.239   5.312  14.392  1.7254 -0.5705 -2.0188
12778TIP3    H259826   6.193   5.194  14.474 -1.2317  1.5162 -0.4623
12779TIP3   OH259827   3.157   1.603  12.952  0.4896  0.1535  0.1504
12779TIP3    H159828   3.087   1.542  12.928  0.6315  0.7425 -1.9881
12779TIP3    H259829   3.238   1.555  12.939  0.5598  0.3473 -0.1373
12780TIP3   OH259830   3.345   0.187  11.338 -0.1712  0.0598  0.4636
12780TIP3    H159831   3.339   0.189  11.243 -2.1139  0.4674  0.5373
12780TIP3    H259832   3.390   0.105  11.358  1.1004  0.4205 -0.8060
12781TIP3   OH259833   1.691   1.798  13.205 -0.2064 -0.2486  0.2672
12781TIP3    H159834   1.747   1.742  13.151 -0.3895  1.3203 -1.6934
12781TIP3    H259835   1.670   1.745  13.281 -1.9672 -3.6718 -2.2963
12782TIP3   OH259836   5.097   1.488   3.137  0.0556  0.2797 -0.0387
12782TIP3    H159837   5.032   1.420   3.159 -0.0368  0.4085  0.0827
12782TIP3    H259838   5.122   1.467   3.047  0.0598  0.0567  0.0129
12783TIP3   OH259839   2.387   0.525  13.457  0.2195  0.3022 -0.6619
12783TIP3    H159840   2.448   0.465  13.415 -0.3370 -0.3831 -0.5247
12783TIP3    H259841   2.329   0.468  13.508  1.1238  1.1185  1.3904
12784TIP3   OH259842   5.553   3.268   4.812 -0.7403 -0.2052 -0.2645
12784TIP3    H159843   5.570   3.219   4.893 -0.8282 -1.4618 -0.9776
12784TIP3    H259844   5.636   3.264   4.764 -0.9099 -0.1184 -0.5648
12785TIP3   OH259845   6.031   1.534   3.676  0.0799  0.9348 -0.1664
12785TIP3    H159846   6.106   1.591   3.664  1.0298 -0.4568 -1.1989
12785TIP3    H259847   6.003   1.513   3.587  1.0249 -1.7499  0.0863
12786TIP3   OH259848   0.650   2.526   3.315 -0.1556 -0.2766 -0.3188
12786TIP3    H159849   0.709   2.484   3.377 -0.1420  0.1066 -0.0704
12786TIP3    H259850   0.589   2.456   3.289  0.9610 -0.9264 -1.2863
12787TIP3   OH259851   3.412   2.596  13.359 -0.3361  0.5559  0.3378
12787TIP3    H159852   3.347   2.576  13.426 -1.2008  3.7116  0.5970
12787TIP3    H259853   3.362   2.632  13.286  1.0245  3.2216  0.5949
12788TIP3   OH259854   3.534   0.722  12.245  0.5946  0.0791 -0.1205
12788TIP3    H159855   3.542   0.792  12.181 -0.6715  0.6648  0.3294
12788TIP3    H259856   3.568   0.760  12.326  3.2111 -0.9998 -0.6016
12789TIP3   OH259857   0.436   2.765   4.404 -0.2352  0.3030  0.1703
12789TIP3    H159858   0.457   2.733   4.316  0.9972  0.5753  0.3511
12789TIP3    H259859   0.467   2.696   4.463  0.9613  1.0868  0.4840
12790TIP3   OH259860   4.606   0.517  10.092 -0.4194 -0.6906 -0.5526
12790TIP3    H159861   4.653   0.591  10.053 -0.9743 -1.3940 -2.6773
12790TIP3    H259862   4.595   0.542  10.184 -2.5770  2.9679 -1.5951
12791TIP3   OH259863   1.248   4.589   5.796  0.2323  0.3023 -0.0225
12791TIP3    H159864   1.218   4.660   5.852  0.4689 -0.3413  0.9530
12791TIP3    H259865   1.286   4.632   5.720 -1.0704  1.1785 -0.2091
12792TIP3   OH259866   4.775   2.714  11.116  0.0988 -0.3663 -0.0957
12792TIP3    H159867   4.868   2.704  11.136  0.3633  0.7026 -0.7166
12792TIP3    H259868   4.772   2.736  11.023 -0.9178 -2.3843 -0.6078
12793TIP3   OH259869   4.814   2.948  14.022 -0.1220  0.3944  0.1389
12793TIP3    H159870   4.868   2.869  14.014 -0.2389 -0.0418  2.8259
12793TIP3    H259871   4.725   2.916  14.007  0.0295  0.5730 -1.3739
12794TIP3   OH259872   0.407   1.449   0.276 -0.6922  0.0576 -0.0956
12794TIP3    H159873   0.425   1.359   0.251 -1.6585  0.4989 -2.6844
12794TIP3    H259874   0.318   1.466   0.243 -0.7087  1.8130  0.7283
12795TIP3   OH259875   5.469   3.433  16.437  0.0159 -0.5568  0.2475
12795TIP3    H159876   5.467   3.379  16.358 -0.1183  0.5367 -0.5022
12795TIP3    H259877   5.452   3.370  16.508 -1.5320 -1.2930 -0.7146
12796TIP3   OH259878   5.762   6.041   5.771  0.5308  0.0095  0.4138
12796TIP3    H159879   5.754   6.105   5.842  0.2823  0.2895  0.1347
12796TIP3    H259880   5.684   6.054   5.717  1.3321  0.6878 -0.6258
12797TIP3   OH259881   4.724   0.165   4.534 -0.0274 -0.2078 -0.5130
12797TIP3    H159882   4.669   0.228   4.486 -0.7265 -0.7609 -0.4591
12797TIP3    H259883   4.665   0.128   4.599  0.4473 -0.7446 -0.3880
12798TIP3   OH259884   5.078   4.071   6.122 -0.0531  0.1334  0.1612
12798TIP3    H159885   4.994   4.025   6.131  0.3210 -0.5616  0.1686
12798TIP3    H259886   5.103   4.093   6.211  1.1435 -2.1967  0.4832
12799TIP3   OH259887   3.745   6.441  11.173 -0.2794  0.2010  0.2789
12799TIP3    H159888   3.830   6.413  11.139 -0.4301 -0.4137  0.3966
12799TIP3    H259889   3.715   6.506  11.110  0.9578  1.5837  1.0343
12800TIP3   OH259890   2.956   4.770   2.641 -0.1364  1.1881 -0.1279
12800TIP3    H159891   2.886   4.818   2.598 -2.0722 -1.6027 -0.3479
12800TIP3    H259892   3.029   4.772   2.579 -0.8297  2.1534 -0.9424
12801TIP3   OH259893   5.568   5.997  13.461  0.2383  0.3296 -0.0922
12801TIP3    H159894   5.519   5.947  13.395  2.0292  0.0508 -1.3031
12801TIP3    H259895   5.570   6.086  13.427  1.9815 -0.0017 -0.9869
12802TIP3   OH259896   3.926   1.243   1.039  0.0703 -0.9748 -0.0938
12802TIP3    H159897   3.933   1.297   0.961  1.6202 -0.2005  0.5400
12802TIP3    H259898   3.874   1.167   1.012 -0.2473 -0.2452 -1.5869
12803TIP3   OH259899   5.324   3.223   3.347  0.2355  0.2498 -0.3328
12803TIP3    H159900   5.317   3.311   3.309 -0.4600  0.9617  1.3476
12803TIP3    H259901   5.252   3.218   3.409  0.2941 -1.5132 -0.3613
12804TIP3   OH259902   1.730   4.606  15.918 -0.2788 -0.2411 -0.3393
12804TIP3    H159903   1.761   4.517  15.933 -2.3036 -0.9378  0.0046
12804TIP3    H259904   1.741   4.620  15.824 -2.8318 -2.0925 -1.0139
12805TIP3   OH259905   0.766   6.735   1.819  0.0330 -0.1468 -0.3176
12805TIP3    H159906   0.850   6.775   1.796 -0.0531  0.3985  0.2902
12805TIP3    H259907   0.701   6.800   1.794 -0.1998 -0.4524 -0.5217
12806TIP3   OH259908   3.102   0.896   4.185 -0.7305 -0.2690 -0.4777
12806TIP3    H159909   3.192   0.926   4.176  0.0743 -1.9823  1.2909
12806TIP3    H259910   3.072   0.933   4.268 -0.7156 -1.8802  0.2712
12807TIP3   OH259911   3.602   0.035   0.812 -0.5441 -0.4327  0.7122
12807TIP3    H159912   3.567   0.038   0.723 -0.5530 -1.7676  0.6523
12807TIP3    H259913   3.672  -0.030   0.808 -0.7447 -0.7228  1.7401
12808TIP3   OH259914   5.974   0.012  16.224  0.1310  0.5393 -0.2289
12808TIP3    H159915   6.011   0.014  16.136  0.6225 -1.4511 -0.1097
12808TIP3    H259916   5.978  -0.080  16.250 -0.3075  1.0340  1.7591
12809TIP3   OH259917   0.013   2.540   0.373 -0.0009  0.0673 -0.4697
12809TIP3    H159918  -0.043   2.463   0.364 -0.5116 -0.0505  2.5649
12809TIP3    H259919  -0.034   2.609   0.325 -0.8698 -0.8845 -1.0293
12810TIP3   OH259920   0.221   6.786   0.042 -0.0711  0.0181 -0.2580
12810TIP3    H159921   0.195   6.731   0.116 -0.4668 -2.7761 -2.3174
12810TIP3    H259922   0.145   6.783  -0.016  0.4406  1.7044 -1.0516
12811TIP3   OH259923   6.652   6.184  17.005 -0.0184  0.1464 -0.3166
12811TIP3    H159924   6.655   6.117  16.937 -0.5781 -0.7476  0.5112
12811TIP3    H259925   6.693   6.261  16.965 -1.2452 -0.0262 -2.0172
12812TIP3   OH259926   4.937   0.659  10.234  0.4028 -0.2189 -0.1818
12812TIP3    H159927   4.868   0.665  10.167 -0.7343 -0.2608  0.9461
12812TIP3    H259928   4.945   0.566  10.251 -0.1475 -0.1313  0.5736
12813TIP3   OH259929   2.686   4.220   0.184  0.3112  0.1787 -0.4060
12813TIP3    H159930   2.674   4.290   0.120  0.0520  2.4131  1.9325
12813TIP3    H259931   2.599   4.203   0.218  0.4312 -1.0473 -0.6850
12814TIP3   OH259932   2.087   6.339  14.365 -0.1284  0.3869  0.4623
12814TIP3    H159933   2.142   6.412  14.392  0.5343  0.3393 -0.6880
12814TIP3    H259934   2.087   6.343  14.270 -0.7660 -0.6156  0.4049
12815TIP3   OH259935   4.781   2.293  14.160 -0.2195  0.6239 -0.2879
12815TIP3    H159936   4.711   2.310  14.097  0.4368  1.1006 -0.9018
12815TIP3    H259937   4.861   2.319  14.115  0.3890 -0.1671  0.3064
12816TIP3   OH259938   1.260   1.762   3.419 -0.6197  0.4003  0.5049
12816TIP3    H159939   1.352   1.744   3.442 -0.3055  0.9889 -0.2506
12816TIP3    H259940   1.258   1.856   3.403 -1.2437  0.2985 -0.0092
12817TIP3   OH259941   4.996   2.245   4.088 -0.5656 -0.3397  0.1707
12817TIP3    H159942   5.013   2.331   4.049 -0.8863  0.1870  1.1581
12817TIP3    H259943   5.071   2.229   4.145 -0.5168 -0.7188  0.0089
12818TIP3   OH259944   5.139   0.139  13.497  0.3202 -0.7824  0.1290
12818TIP3    H159945   5.080   0.065  13.511  0.9345 -1.5379 -1.0316
12818TIP3    H259946   5.218   0.099  13.459  0.5849  0.4901 -0.7112
12819TIP3   OH259947   3.973   5.764  12.783 -0.3104 -0.3004  0.4386
12819TIP3    H159948   4.004   5.820  12.855 -1.0949  1.6438 -0.6799
12819TIP3    H259949   3.946   5.683  12.827  2.0275 -0.3621  1.9721
12820TIP3   OH259950   0.148   3.576  17.044  0.2137 -0.1565  0.0034
12820TIP3    H159951   0.080   3.530  17.093 -0.2409  0.1946 -0.2905
12820TIP3    H259952   0.172   3.516  16.974  1.0606 -0.7753  0.8068
12821TIP3   OH259953   6.807   5.219   4.258  0.2475  0.2979 -0.1117
12821TIP3    H159954   6.838   5.195   4.171  0.8818  0.8083 -0.0359
12821TIP3    H259955   6.721   5.178   4.265  0.6665 -0.6964 -0.5395
12822TIP3   OH259956   4.462   4.320  11.218  0.3132  0.7480 -0.6083
12822TIP3    H159957   4.544   4.276  11.239  0.3747  1.2272  0.2293
12822TIP3    H259958   4.395   4.252  11.225  0.3943  0.7812  0.7515
12823TIP3   OH259959   1.015   5.300   2.220 -0.8114 -0.2136 -0.4390
12823TIP3    H159960   0.966   5.240   2.276  0.1344 -0.2321  0.3981
12823TIP3    H259961   0.953   5.368   2.197 -1.0833  0.1261  1.1528
12824TIP3   OH259962   0.483   6.602  10.799  0.3465 -0.2131 -0.1096
12824TIP3    H159963   0.417   6.584  10.731  0.6384 -0.8538 -0.2288
12824TIP3    H259964   0.544   6.663  10.757  0.1900 -0.1274 -0.2166
12825TIP3   OH259965   5.479   2.585  12.191  0.4137 -0.1174 -0.3342
12825TIP3    H159966   5.528   2.531  12.252 -1.9937  0.1417  2.0366
12825TIP3    H259967   5.430   2.646  12.247 -1.0032  0.9674 -2.6000
12826TIP3   OH259968   3.506   6.693  13.498  0.2189 -0.2563  0.2247
12826TIP3    H159969   3.500   6.620  13.560  1.7893  0.7513  1.6602
12826TIP3    H259970   3.595   6.688  13.463 -0.4861 -0.5048 -1.6397
12827TIP3   OH259971   3.863   4.576  12.767  0.0633  0.1534  0.1011
12827TIP3    H159972   3.895   4.554  12.679  0.6373  0.8266  0.1319
12827TIP3    H259973   3.884   4.669  12.777  0.1100  0.0507  0.9970
12828TIP3   OH259974   1.437   4.112   4.337  0.1175  0.1554 -0.4659
12828TIP3    H159975   1.424   4.133   4.430 -0.2720  0.3966 -0.5761
12828TIP3    H259976   1.515   4.160   4.312 -1.4968  2.6334 -1.0786
12829TIP3   OH259977   2.653   0.169  10.430  0.0627 -0.6256 -0.3115
12829TIP3    H159978   2.715   0.177  10.358  0.2720  0.8718  0.0081
12829TIP3    H259979   2.707   0.151  10.507  0.2564  1.6815  0.1518
12830TIP3   OH259980   3.401   6.372   2.706  0.5747  0.4143  0.5795
12830TIP3    H159981   3.313   6.335   2.711 -0.1288  2.0841  1.4172
12830TIP3    H259982   3.395   6.439   2.638  1.1275  0.7314  0.8388
12831TIP3   OH259983   5.239   1.754  10.771 -0.8081  0.5352  0.1427
12831TIP3    H159984   5.179   1.827  10.755 -1.2097 -0.0388 -1.1365
12831TIP3    H259985   5.315   1.793  10.814 -0.7662  1.8045 -1.0453
12832TIP3   OH259986   2.990   1.191   0.712  0.1547 -0.1028  0.8901
12832TIP3    H159987   3.001   1.099   0.733  2.0837 -0.0876  0.1361
12832TIP3    H259988   2.945   1.192   0.627  2.5044 -0.4672 -0.4282
12833TIP3   OH259989   4.124   2.480   4.515 -0.6831 -0.3252  0.4417
12833TIP3    H159990   4.096   2.402   4.468 -1.1510  0.7211 -1.1193
12833TIP3    H259991   4.068   2.483   4.593 -1.7473 -0.7401 -0.2774
12834TIP3   OH259992   5.023   3.811   5.265 -0.1720  0.0871 -0.5331
12834TIP3    H159993   5.072   3.818   5.183 -0.3299 -0.3445 -0.6684
12834TIP3    H259994   4.989   3.899   5.281  0.4895  0.3457 -0.5366
12835TIP3   OH259995   4.734   0.554   1.500 -0.3600 -0.2331  0.0587
12835TIP3    H159996   4.741   0.649   1.505 -1.1306 -0.2378  2.2067
12835TIP3    H259997   4.646   0.534   1.532  0.5354 -1.7551  1.7546
12836TIP3   OH259998   3.838   3.459  13.745  0.2894  0.3276  0.4596
12836TIP3    H159999   3.822   3.366  13.731 -0.0103  0.1431  1.8871
12836TIP3    H260000   3.768   3.504  13.697 -0.6359 -0.2523  1.2386
12837TIP3   OH260001   6.051   3.716   4.289 -0.2310  0.3962  0.3089
12837TIP3    H160002   6.027   3.745   4.377  0.0337 -1.0435  0.8907
12837TIP3    H260003   6.094   3.792   4.249 -0.0085  0.9548  1.5588
12838TIP3   OH260004   3.164   2.762   0.721  0.3339 -0.3141 -0.4668
12838TIP3    H160005   3.089   2.761   0.780 -0.1823  0.5108 -1.0762
12838TIP3    H260006   3.198   2.673   0.723 -1.0906 -0.8885 -0.7074
12839TIP3   OH260007   2.466   6.604  12.891 -0.1345 -0.7966 -0.1195
12839TIP3    H160008   2.444   6.674  12.953 -1.1576 -0.2541 -1.0502
12839TIP3    H260009   2.479   6.527  12.946 -1.1677 -0.3624  0.7726
12840TIP3   OH260010   2.345   6.666  15.196 -0.4247 -0.0735 -0.3796
12840TIP3    H160011   2.284   6.619  15.254 -2.5017  0.6249 -1.8749
12840TIP3    H260012   2.376   6.740  15.248 -0.0456 -0.9782  0.7333
12841TIP3   OH260013   4.142   1.350  12.932 -0.0586 -0.3629 -0.2129
12841TIP3    H160014   4.118   1.377  12.843 -0.7070 -0.5903 -0.1146
12841TIP3    H260015   4.189   1.268  12.920 -1.1703 -1.0168 -0.2819
12842TIP3   OH260016   1.566   6.105  14.613 -0.0319  0.3573 -0.2146
12842TIP3    H160017   1.659   6.130  14.612 -0.3074  1.5024  0.7279
12842TIP3    H260018   1.539   6.118  14.704 -0.7399 -1.4484 -0.1360
12843TIP3   OH260019   6.556   1.745   4.757  0.2119 -0.5266  0.3276
12843TIP3    H160020   6.532   1.660   4.795 -3.1806  0.3648  0.4574
12843TIP3    H260021   6.474   1.783   4.727  1.9367  1.6197 -2.2064
12844TIP3   OH260022   4.483   2.674   2.824 -0.2586 -0.2201  0.3793
12844TIP3    H160023   4.546   2.623   2.874 -0.6945 -0.8023  0.3460
12844TIP3    H260024   4.421   2.610   2.789  1.4296 -0.2158 -3.0898
12845TIP3   OH260025   5.430   1.596  11.715  0.3302  0.6815 -0.5535
12845TIP3    H160026   5.409   1.582  11.622  0.8364  1.2729 -0.7576
12845TIP3    H260027   5.445   1.508  11.749  1.4648  0.5409 -1.3525
12846TIP3   OH260028   1.141   0.515  10.634 -0.1502 -0.3421 -0.0212
12846TIP3    H160029   1.069   0.454  10.617 -0.2363 -0.5557  1.0395
12846TIP3    H260030   1.182   0.482  10.714  0.3499  0.4934  0.0772
12847TIP3   OH260031   5.755   3.810  14.015 -1.0305 -0.1031 -0.1665
12847TIP3    H160032   5.764   3.863  13.936  1.7677 -1.3773 -0.8266
12847TIP3    H260033   5.786   3.866  14.086  0.6768 -0.3302 -0.6774
12848TIP3   OH260034   5.947   2.483  11.696 -0.1706  0.1586  0.1027
12848TIP3    H160035   5.866   2.473  11.747 -0.0474  0.1471  0.3000
12848TIP3    H260036   6.010   2.425  11.739 -0.0280  0.2484  0.0159
12849TIP3   OH260037   0.380   1.849   1.844  0.4546 -0.2411  0.1403
12849TIP3    H160038   0.310   1.829   1.781  1.1021 -0.7294 -0.4375
12849TIP3    H260039   0.459   1.816   1.803  1.1165  0.7882  0.5560
12850TIP3   OH260040   4.228   3.072   4.883  0.3761 -0.0738  0.1254
12850TIP3    H160041   4.192   3.060   4.971  1.6512  0.0349  0.6798
12850TIP3    H260042   4.196   2.996   4.833  1.9488 -1.7076  1.4617
12851TIP3   OH260043   4.429   5.354   6.007 -0.4864  0.3719  0.0561
12851TIP3    H160044   4.500   5.418   6.013  1.2414 -1.2498 -1.7404
12851TIP3    H260045   4.425   5.314   6.094 -0.9679  2.1682  0.9266
12852TIP3   OH260046   3.349   4.966   6.231  0.1416  0.5581  0.2408
12852TIP3    H160047   3.415   4.898   6.241  1.3666  1.5808 -0.6086
12852TIP3    H260048   3.301   4.964   6.314  1.6992  0.2503  1.1874
12853TIP3   OH260049   1.941   3.729   2.161  0.7405 -0.4545 -0.0050
12853TIP3    H160050   1.873   3.796   2.170  0.9890 -0.0931 -0.7250
12853TIP3    H260051   1.911   3.674   2.088 -0.3605 -2.2370  1.7021
12854TIP3   OH260052   3.860   4.325  13.127  0.7679  0.1037  0.0703
12854TIP3    H160053   3.892   4.237  13.109 -0.6312  0.1285 -3.2900
12854TIP3    H260054   3.934   4.382  13.105  0.3114 -0.0939 -2.1865
12855TIP3   OH260055   5.350   3.069  15.053 -0.0297 -0.3661 -0.2143
12855TIP3    H160056   5.432   3.111  15.028 -0.5317 -0.4857 -2.2626
12855TIP3    H260057   5.283   3.116  15.005 -0.9069 -1.7061 -0.3677
12856TIP3   OH260058   5.057   2.788   2.011  0.4833 -0.2274  0.3715
12856TIP3    H160059   5.069   2.698   1.980  0.0366  0.4648 -2.0818
12856TIP3    H260060   5.109   2.841   1.951 -1.8837  1.4021 -0.3778
12857TIP3   OH260061   3.170   1.909   1.803 -0.1073  0.2198 -0.4878
12857TIP3    H160062   3.234   1.951   1.861 -1.9421  2.3485  0.1532
12857TIP3    H260063   3.111   1.861   1.862 -1.9200  2.3114 -0.4530
12858TIP3   OH260064   3.454   5.569   5.321  0.0153  0.4356  0.1688
12858TIP3    H160065   3.498   5.629   5.261 -0.8386  0.9132  0.0028
12858TIP3    H260066   3.392   5.521   5.267  1.8859 -1.9571 -0.0882
12859TIP3   OH260067   0.535   0.544  13.237 -0.1905  0.3323  0.1451
12859TIP3    H160068   0.554   0.533  13.330  1.0860 -1.6212 -0.2709
12859TIP3    H260069   0.474   0.473  13.216  0.0537  0.3403 -0.6304
12860TIP3   OH260070   3.105   1.338   0.359  0.0041  0.7302  0.5391
12860TIP3    H160071   3.170   1.304   0.297 -0.2707 -1.1200  1.1941
12860TIP3    H260072   3.052   1.398   0.307  1.3509  1.2096 -0.3562
12861TIP3   OH260073   3.721   0.010  17.252 -0.4474  0.3731 -0.2509
12861TIP3    H160074   3.718  -0.033  17.338 -0.5718 -0.2278 -0.5465
12861TIP3    H260075   3.670   0.090  17.263  0.2571  0.7370  0.4673
12862TIP3   OH260076   2.561   1.741  12.514  0.3715 -0.2487 -0.2329
12862TIP3    H160077   2.468   1.763  12.520 -0.0085 -2.1311  2.2322
12862TIP3    H260078   2.564   1.670  12.449  0.0673 -0.2741 -0.2210
12863TIP3   OH260079   4.265   5.815   2.798 -0.4042 -0.4001 -0.3741
12863TIP3    H160080   4.239   5.762   2.723  0.2894 -0.2855 -0.6963
12863TIP3    H260081   4.358   5.797   2.810 -0.5085 -0.4421  0.4823
12864TIP3   OH260082   5.961   2.175   5.944  0.4896 -0.1321 -0.4909
12864TIP3    H160083   5.955   2.224   6.026 -0.5672 -0.9109 -0.0832
12864TIP3    H260084   6.047   2.132   5.948  0.0629 -0.9363  0.6834
12865TIP3   OH260085   0.555   5.114   3.748 -0.1640 -0.3935  0.0333
12865TIP3    H160086   0.536   5.196   3.793 -0.7099 -1.0726  1.0731
12865TIP3    H260087   0.633   5.079   3.792  0.7907  0.1204 -1.1848
12866TIP3   OH260088   4.196   1.242   4.962  0.0062 -0.1853  0.0380
12866TIP3    H160089   4.226   1.245   5.053 -0.8636 -0.8565  0.3568
12866TIP3    H260090   4.250   1.175   4.921  1.1763  0.8877 -0.2551
12867TIP3   OH260091   2.104   2.284  14.058 -0.0538  0.1914 -0.3695
12867TIP3    H160092   2.123   2.368  14.017 -0.8619 -0.3209 -1.8628
12867TIP3    H260093   2.031   2.301  14.117 -1.3819  0.2342 -1.9605
12868TIP3   OH260094   2.343   4.780   1.672  0.3907 -0.0968 -0.4966
12868TIP3    H160095   2.390   4.702   1.642 -1.7240 -1.1618 -1.2501
12868TIP3    H260096   2.299   4.751   1.752 -0.9507  0.0881 -1.1497
12869TIP3   OH260097   6.676   0.587   6.696  0.3784 -0.5507  0.3134
12869TIP3    H160098   6.716   0.502   6.713  1.3895  0.1258  1.5132
12869TIP3    H260099   6.749   0.649   6.698 -0.1276  0.2256 -1.9356
12870TIP3   OH260100   5.886   6.207   3.753  0.5505  0.1163  0.6374
12870TIP3    H160101   5.901   6.167   3.668  0.6203  1.5204 -0.0443
12870TIP3    H260102   5.925   6.146   3.816  1.2419 -0.5400 -0.3996
12871TIP3   OH260103   1.418   4.775  16.300 -0.1431  0.5402  0.0352
12871TIP3    H160104   1.433   4.869  16.305 -0.3164  0.5232  1.0515
12871TIP3    H260105   1.496   4.740  16.258 -0.0014  1.1130 -0.1896
12872TIP3   OH260106   0.636   2.916  14.707 -0.1130 -0.0189  0.0246
12872TIP3    H160107   0.685   2.876  14.778 -0.2235 -2.6121 -1.2659
12872TIP3    H260108   0.703   2.956  14.651  0.0867  0.6961  0.7542
12873TIP3   OH260109   4.746   0.069   4.926  0.0576  0.6800 -0.2955
12873TIP3    H160110   4.690   0.046   4.852 -2.6475  2.8566  0.9072
12873TIP3    H260111   4.690   0.057   5.003  2.5370 -0.7977  1.4327
12874TIP3   OH260112   0.362   0.292   2.178  0.1969 -0.0973 -0.7623
12874TIP3    H160113   0.350   0.214   2.124 -0.9670 -0.5821  0.1476
12874TIP3    H260114   0.320   0.270   2.261 -0.7839  1.7458 -0.7196
12875TIP3   OH260115   2.138   5.563   0.464  0.6650 -0.5092 -0.2124
12875TIP3    H160116   2.098   5.649   0.476 -2.6425 -1.9952  0.5652
12875TIP3    H260117   2.186   5.547   0.545  0.7545  0.3429 -0.0903
12876TIP3   OH260118   1.111   0.238  13.011  0.3152 -0.2164 -0.1152
12876TIP3    H160119   1.140   0.264  13.098 -1.0232  1.8868 -0.2602
12876TIP3    H260120   1.049   0.305  12.984 -2.1014 -2.7197 -1.2284
12877TIP3   OH260121   1.035   6.125   3.045  0.7429  0.0848  0.2035
12877TIP3    H160122   1.020   6.085   3.131 -0.3081 -0.9929 -0.4474
12877TIP3    H260123   0.999   6.213   3.053 -0.1021 -0.2879  0.6282
12878TIP3   OH260124   5.525   4.225  14.573 -0.2770 -0.2168 -0.7025
12878TIP3    H160125   5.461   4.241  14.503 -0.0174  0.9528 -0.6868
12878TIP3    H260126   5.516   4.299  14.632 -0.4059 -1.1295  0.4696
12879TIP3   OH260127   4.495   0.449   5.233  0.4751 -0.3067  0.2582
12879TIP3    H160128   4.561   0.384   5.257 -0.0524 -0.8602  0.2459
12879TIP3    H260129   4.544   0.524   5.200  1.0690 -0.9065 -0.2189
12880TIP3   OH260130   3.007   5.132   4.266  0.5824  0.2005  0.2350
12880TIP3    H160131   3.043   5.121   4.178  1.3173 -1.2413  0.6742
12880TIP3    H260132   2.918   5.098   4.260  1.0766 -1.1933  0.3273
12881TIP3   OH260133   3.508   5.326   2.530 -0.0247 -0.1288 -0.3638
12881TIP3    H160134   3.517   5.367   2.617  2.1563 -1.7340  0.2522
12881TIP3    H260135   3.420   5.290   2.529 -0.7214  1.4549  0.4553
12882TIP3   OH260136   1.684   1.516   5.308 -0.1702  0.0723  0.3183
12882TIP3    H160137   1.613   1.578   5.291  0.9816  1.1232 -0.8150
12882TIP3    H260138   1.662   1.438   5.257 -0.9441  0.0259  0.7022
12883TIP3   OH260139   0.996   5.667   5.652  0.4126  0.0975 -0.0882
12883TIP3    H160140   0.976   5.754   5.687  1.0406  0.4366 -0.5533
12883TIP3    H260141   0.915   5.639   5.609  0.5103  0.8668 -0.7829
12884TIP3   OH260142   1.137   1.884   5.800 -0.2835 -0.3237  0.1397
12884TIP3    H160143   1.101   1.969   5.827  0.6152 -0.3872  1.6188
12884TIP3    H260144   1.229   1.889   5.824  0.2563 -0.9521 -1.6849
12885TIP3   OH260145   1.613   0.739   0.213  0.2705  0.2186 -0.5820
12885TIP3    H160146   1.618   0.692   0.129 -0.6960  0.7007 -0.9172
12885TIP3    H260147   1.696   0.787   0.218 -0.3218  1.4800 -2.0510
12886TIP3   OH260148   5.856   3.203  17.110  0.3127  0.1670 -0.2924
12886TIP3    H160149   5.813   3.206  17.196 -1.0956 -0.7675 -0.9207
12886TIP3    H260150   5.907   3.122  17.112 -0.1410 -0.1256 -0.5226
12887TIP3   OH260151   3.824   3.867  12.444 -0.3127  0.2176 -0.8497
12887TIP3    H160152   3.760   3.807  12.406  1.0389 -1.7677 -0.1703
12887TIP3    H260153   3.885   3.888  12.373 -1.4162  1.7813 -1.3893
12888TIP3   OH260154   3.109   3.742  13.783 -0.2723 -0.7943  0.2675
12888TIP3    H160155   3.089   3.817  13.727 -2.5523 -1.5712 -0.0737
12888TIP3    H260156   3.200   3.755  13.808  0.2566  0.6319 -2.0094
12889TIP3   OH260157   2.722   5.594   0.341 -0.1139  0.6912  0.4684
12889TIP3    H160158   2.676   5.523   0.387 -2.3261  2.1615  0.6655
12889TIP3    H260159   2.811   5.590   0.374 -0.4477 -1.3267  1.2580
12890TIP3   OH260160   5.564   1.316   4.668 -0.3542  0.1232 -0.5536
12890TIP3    H160161   5.657   1.328   4.687  0.0507 -0.0390 -2.2649
12890TIP3    H260162   5.547   1.224   4.689 -0.2819  0.3118  0.3359
12891TIP3   OH260163   0.387   1.225   2.445 -0.5196  0.4361 -0.1228
12891TIP3    H160164   0.322   1.163   2.477 -0.2644  0.1482 -0.1591
12891TIP3    H260165   0.341   1.309   2.442 -0.7135  0.3527  0.4391
12892TIP3   OH260166   0.227   2.124  11.309  0.1125  0.3247 -0.0944
12892TIP3    H160167   0.163   2.053  11.308 -0.4879  0.8111  1.2625
12892TIP3    H260168   0.208   2.175  11.231 -0.0331 -0.4827 -0.6023
12893TIP3   OH260169   6.375   5.625  11.926  0.1089 -0.0606 -0.7919
12893TIP3    H160170   6.295   5.636  11.874  0.5836  1.9675 -1.1439
12893TIP3    H260171   6.442   5.602  11.861 -0.2396 -2.3403 -0.4307
12894TIP3   OH260172   5.854   4.328   2.012  0.2513 -0.1602 -0.1299
12894TIP3    H160173   5.917   4.366   2.072 -0.1871 -0.5583  0.5994
12894TIP3    H260174   5.887   4.350   1.925  1.1725 -0.0196  0.2448
12895TIP3   OH260175   2.904   2.279  16.593 -0.0530 -0.2746  0.1823
12895TIP3    H160176   2.969   2.291  16.661 -0.5968 -0.7130  0.7886
12895TIP3    H260177   2.891   2.185  16.587 -0.6616 -0.1969  0.1138
12896TIP3   OH260178   0.340   6.552   5.019 -0.2948  0.1475  0.0087
12896TIP3    H160179   0.249   6.546   4.991  0.2765 -1.1970 -1.7277
12896TIP3    H260180   0.340   6.518   5.108 -1.2856 -1.2484 -0.4888
12897TIP3   OH260181   5.018   3.685   0.519  0.1164 -0.2254 -0.1425
12897TIP3    H160182   4.939   3.641   0.489 -1.5802  1.1724  2.0136
12897TIP3    H260183   5.016   3.676   0.614  1.7837  1.1316  0.0661
12898TIP3   OH260184   5.896   0.656  11.874  0.1410 -0.3252 -0.1644
12898TIP3    H160185   5.861   0.653  11.963  3.1462  0.3428  1.1634
12898TIP3    H260186   5.829   0.702  11.824 -0.4575  1.8555  2.4073
12899TIP3   OH260187   2.069   3.759  14.132  0.4542  0.3007  0.0242
12899TIP3    H160188   2.109   3.840  14.163 -0.5355  1.1578 -0.8562
12899TIP3    H260189   2.065   3.703  14.209 -0.5444  1.7883  1.0902
12900TIP3   OH260190   5.092   3.133  12.857 -0.0795 -0.2152 -0.3407
12900TIP3    H160191   5.098   3.220  12.819 -0.1241  0.1992  0.5718
12900TIP3    H260192   5.066   3.148  12.948  1.7750 -1.0702  0.3772
12901TIP3   OH260193   1.608   4.585  14.368 -0.2480 -0.3484  0.0236
12901TIP3    H160194   1.679   4.527  14.392 -1.0639 -0.3752  2.6444
12901TIP3    H260195   1.570   4.546  14.289  0.2963 -2.4063  0.7369
12902TIP3   OH260196   2.377   1.726   1.489  0.3356 -0.2816  0.0196
12902TIP3    H160197   2.316   1.764   1.425  1.6693 -1.3765 -2.0106
12902TIP3    H260198   2.460   1.770   1.471  0.7187 -0.5249  1.1270
12903TIP3   OH260199   0.830   1.973   3.642  0.0135  0.1870  0.3321
12903TIP3    H160200   0.739   1.961   3.670 -0.4916  1.1455 -0.8041
12903TIP3    H260201   0.876   1.897   3.676 -1.1335 -0.1158  1.2702
12904TIP3   OH260202   3.464   1.581   3.701  0.1214 -0.0284 -0.0877
12904TIP3    H160203   3.435   1.571   3.610 -0.2727 -0.0601  0.0419
12904TIP3    H260204   3.452   1.494   3.739 -1.5629  0.4371  0.5297
12905TIP3   OH260205   3.369   5.373   5.756 -0.6612  0.1141 -0.0697
12905TIP3    H160206   3.446   5.416   5.794 -0.6075  0.3008 -0.3818
12905TIP3    H260207   3.299   5.390   5.818 -0.3179 -0.5771  0.5282
12906TIP3   OH260208   1.294   6.027  12.417  0.1607  0.1320  0.2508
12906TIP3    H160209   1.279   6.094  12.351 -1.5264 -1.0940 -0.7046
12906TIP3    H260210   1.206   6.004  12.448  0.7576 -1.0262  1.1753
12907TIP3   OH260211   3.793   0.497  12.040 -0.4145  0.0551  0.0427
12907TIP3    H160212   3.712   0.446  12.040  0.8211 -2.1163 -1.8170
12907TIP3    H260213   3.861   0.434  12.062  1.2579  0.6724 -2.8619
12908TIP3   OH260214   2.076   5.582  16.637 -0.0768  0.2057  0.4478
12908TIP3    H160215   2.058   5.530  16.716 -0.4676  0.6023  0.6209
12908TIP3    H260216   2.159   5.547  16.605 -1.8035 -2.8115 -1.2698
12909TIP3   OH260217   5.181   5.592  13.443 -0.0923 -0.2387  0.3645
12909TIP3    H160218   5.251   5.553  13.494 -0.2313 -1.8389 -0.5718
12909TIP3    H260219   5.106   5.594  13.502  0.4548  0.5537  1.0583
12910TIP3   OH260220   4.700   6.015  13.039  0.1272 -0.0730  0.0476
12910TIP3    H160221   4.770   5.949  13.038 -1.3840 -1.8475  2.0691
12910TIP3    H260222   4.643   5.988  13.111 -1.0188  3.0449  0.4430
12911TIP3   OH260223   5.632   5.677   3.099  0.0178 -0.3854  0.7856
12911TIP3    H160224   5.636   5.582   3.089 -0.1713 -0.6661  2.8785
12911TIP3    H260225   5.611   5.709   3.012 -1.8250 -2.4024  0.3846
12912TIP3   OH260226   3.824   3.152  12.498 -0.3295  0.3079  0.1068
12912TIP3    H160227   3.800   3.167  12.407  0.3022  0.6756  0.0020
12912TIP3    H260228   3.818   3.057  12.508  0.8208  0.1335 -0.6674
12913TIP3   OH260229   3.400   1.189   5.778 -0.2594 -0.5306 -0.0322
12913TIP3    H160230   3.479   1.161   5.824 -1.8993 -2.5390  1.7811
12913TIP3    H260231   3.405   1.284   5.777  1.2939 -0.5472  1.6844
12914TIP3   OH260232   5.458   5.549   1.659 -0.6770  0.4583  0.3379
12914TIP3    H160233   5.486   5.457   1.667 -2.0280  0.0894  1.2155
12914TIP3    H260234   5.485   5.590   1.741  0.1614  0.9248 -0.1631
12915TIP3   OH260235   1.786   0.253   0.204  0.8879  0.1220 -0.1525
12915TIP3    H160236   1.838   0.273   0.126  0.2172  0.4931 -0.5178
12915TIP3    H260237   1.759   0.162   0.192 -0.3163  0.5562 -1.0367
12916TIP3   OH260238   6.677   4.131   3.007 -0.0212 -0.5367  0.1106
12916TIP3    H160239   6.675   4.209   3.062 -2.8200  0.3432 -1.0487
12916TIP3    H260240   6.622   4.068   3.054 -2.7015  0.3308 -1.6513
12917TIP3   OH260241   4.461   1.378  10.780 -0.1837 -0.5982 -0.1855
12917TIP3    H160242   4.505   1.428  10.711 -1.5354  1.3564  0.2675
12917TIP3    H260243   4.370   1.374  10.752 -0.7020 -0.0223  1.2975
12918TIP3   OH260244   4.742   3.797  16.406 -0.3844 -0.0080  0.3747
12918TIP3    H160245   4.824   3.753  16.427 -0.6986 -0.1633  1.2997
12918TIP3    H260246   4.676   3.753  16.459 -0.8410  1.0082  0.6816
12919TIP3   OH260247   3.957   4.129   4.321 -0.2337 -0.1762  0.2820
12919TIP3    H160248   3.890   4.065   4.346  0.4912 -0.4203  1.7301
12919TIP3    H260249   3.918   4.214   4.338 -0.0378 -0.3255  1.6264
12920TIP3   OH260250   0.136   2.574  16.494  0.4254  0.4484  0.1686
12920TIP3    H160251   0.123   2.564  16.588  0.1777  0.5645  0.1456
12920TIP3    H260252   0.065   2.630  16.464  1.4404  1.8079  0.1900
12921TIP3   OH260253   4.838   5.104   2.130  0.3057  0.1125  0.1835
12921TIP3    H160254   4.922   5.067   2.103  1.0868  0.3115  2.2120
12921TIP3    H260255   4.775   5.033   2.119  0.5051  0.2173 -2.2125
12922TIP3   OH260256   3.395   0.308  12.177  0.5697  0.0740 -0.0538
12922TIP3    H160257   3.374   0.392  12.218  0.1913  0.1493 -0.3952
12922TIP3    H260258   3.457   0.330  12.107 -2.3729  0.6582 -2.7048
12923TIP3   OH260259   5.488   1.845  10.849 -1.0823 -0.3136  0.4879
12923TIP3    H160260   5.546   1.822  10.777 -1.7873  0.3329 -0.3165
12923TIP3    H260261   5.544   1.845  10.927  0.3831  1.7799 -0.4661
12924TIP3   OH260262   5.175   3.473  13.727  0.4569 -0.2707 -0.3404
12924TIP3    H160263   5.170   3.438  13.638  1.2710  0.2953 -0.6179
12924TIP3    H260264   5.179   3.568  13.715  1.7798 -0.2325  0.2333
12925TIP3   OH260265   2.939   4.216   0.128 -0.5493 -0.1369  0.0454
12925TIP3    H160266   2.845   4.225   0.144 -1.1511 -0.3026 -2.8023
12925TIP3    H260267   2.961   4.292   0.075  0.7014 -0.6031 -0.1310
12926TIP3   OH260268   6.742   1.557   0.804  0.0394 -0.1681  0.2206
12926TIP3    H160269   6.781   1.472   0.785  1.1030  0.0432  1.3187
12926TIP3    H260270   6.723   1.554   0.898 -1.2078  0.3143  0.0105
12927TIP3   OH260271   1.515   6.094   4.786  0.6491  0.2237  0.1248
12927TIP3    H160272   1.478   6.174   4.749 -1.2151  0.4876  2.3327
12927TIP3    H260273   1.484   6.093   4.876  2.9644 -1.5828  1.0090
12928TIP3   OH260274   1.558   5.966  16.036  0.2801 -0.4048 -0.0771
12928TIP3    H160275   1.481   5.910  16.023 -0.5885 -0.0495  2.9268
12928TIP3    H260276   1.609   5.954  15.956 -0.6455 -4.2145 -0.2928
12929TIP3   OH260277   0.378   2.746   2.393 -0.3383 -0.2144 -0.0942
12929TIP3    H160278   0.431   2.824   2.375 -1.3930  0.2000 -1.5753
12929TIP3    H260279   0.326   2.770   2.471 -0.7154  0.6117 -0.5839
12930TIP3   OH260280   2.328   5.881  14.879  0.4959  0.5421 -0.1223
12930TIP3    H160281   2.282   5.956  14.844  0.2696  1.5491  2.1837
12930TIP3    H260282   2.416   5.886  14.841  0.4215  1.8871 -0.1426
12931TIP3   OH260283   5.829   3.765   3.572  0.0059 -0.2376 -0.2029
12931TIP3    H160284   5.765   3.695   3.558 -1.1039  0.5901  0.6148
12931TIP3    H260285   5.788   3.843   3.536 -1.1690  1.1104  3.5880
12932TIP3   OH260286   6.109   2.265   4.877  0.3075  0.0466  0.2400
12932TIP3    H160287   6.047   2.212   4.827  1.9712 -0.3019 -1.6129
12932TIP3    H260288   6.057   2.304   4.947 -1.6601 -1.3743 -0.3322
12933TIP3   OH260289   1.898   0.719  16.864  0.0654 -0.3972  1.1122
12933TIP3    H160290   1.892   0.811  16.892 -1.9276  0.4860 -1.8155
12933TIP3    H260291   1.816   0.680  16.893  0.2877 -0.8729  1.1032
12934TIP3   OH260292   5.563   5.300   5.771 -0.1965  0.2431  0.4010
12934TIP3    H160293   5.524   5.232   5.718 -1.0723  1.3645 -0.4421
12934TIP3    H260294   5.640   5.328   5.722 -0.2275  0.3304  0.4011
12935TIP3   OH260295   3.891   2.248  12.080 -0.1732  0.0222 -0.3147
12935TIP3    H160296   3.881   2.302  12.159  2.0097  3.3984 -2.0869
12935TIP3    H260297   3.806   2.252  12.037 -0.7801 -0.1127  0.8219
12936TIP3   OH260298   1.735   1.703  14.396 -0.1572 -0.1991 -0.2365
12936TIP3    H160299   1.707   1.773  14.455  0.1776  0.3040 -0.6651
12936TIP3    H260300   1.821   1.731  14.364 -0.1544 -0.6594 -0.6457
12937TIP3   OH260301   5.694   4.927  12.468 -0.7902 -0.5137 -0.2349
12937TIP3    H160302   5.628   4.996  12.454  0.3475  0.8142  0.6804
12937TIP3    H260303   5.755   4.937  12.395 -0.0322  0.2044  0.4679
12938TIP3   OH260304   1.271   3.921  12.253 -0.6372 -0.4081 -0.3868
12938TIP3    H160305   1.296   3.903  12.344  0.0804  2.8419  0.2014
12938TIP3    H260306   1.323   3.860  12.201  4.0630  1.8656  1.1294
12939TIP3   OH260307   0.226   1.978  13.452 -0.1032  0.4079 -0.7997
12939TIP3    H160308   0.154   1.929  13.491 -0.7443  2.4163  0.6964
12939TIP3    H260309   0.201   2.070  13.462  2.7816  1.2004  0.0594
12940TIP3   OH260310   4.524   3.513   2.540 -0.3177  0.0338  0.3827
12940TIP3    H160311   4.471   3.537   2.616 -0.3318 -0.9716  0.7082
12940TIP3    H260312   4.461   3.499   2.469 -0.6629 -2.3099  1.0625
12941TIP3   OH260313   4.997   5.472  10.472  0.4294 -0.1044 -0.4935
12941TIP3    H160314   4.923   5.532  10.483 -1.8006 -2.4100 -1.7294
12941TIP3    H260315   4.995   5.417  10.550  1.6167  0.4873 -0.0072
12942TIP3   OH260316   4.706   6.550  16.426 -0.6144 -0.2694  0.3539
12942TIP3    H160317   4.656   6.469  16.433  0.1591 -0.7675  0.1585
12942TIP3    H260318   4.643   6.614  16.392 -1.4907 -0.5341  1.4426
12943TIP3   OH260319   4.093   4.121   0.967 -0.6240  0.2332  0.4914
12943TIP3    H160320   4.032   4.076   0.908 -0.2015 -0.8317  0.8335
12943TIP3    H260321   4.040   4.146   1.042 -0.4891 -1.6869  1.3058
12944TIP3   OH260322   5.062   6.564   4.727 -0.1776  0.1414  0.2789
12944TIP3    H160323   4.983   6.607   4.695 -0.1057  0.8143  0.9718
12944TIP3    H260324   5.080   6.608   4.810  0.3136 -0.7427  0.6448
12945TIP3   OH260325   4.549   6.325  16.429 -0.9392  0.2652 -0.7079
12945TIP3    H160326   4.510   6.311  16.343  0.9857 -1.6530 -1.3657
12945TIP3    H260327   4.623   6.265  16.431 -0.8052  0.4094  2.2344
12946TIP3   OH260328   4.250   1.129  11.926  0.7216 -0.6629 -0.2005
12946TIP3    H160329   4.253   1.163  12.015  1.3653  1.6772 -1.0347
12946TIP3    H260330   4.158   1.106  11.912  0.6397 -1.2190  1.0803
12947TIP3   OH260331   0.032   0.820   6.748 -0.0803  0.4347 -0.3277
12947TIP3    H160332   0.017   0.910   6.719 -2.5814  1.3340  3.2042
12947TIP3    H260333   0.127   0.812   6.753  0.1869  3.1439 -0.0193
12948TIP3   OH260334   3.625   1.760   1.511 -0.6739 -0.4231  0.2600
12948TIP3    H160335   3.605   1.826   1.444  2.7850 -0.3642 -0.8847
12948TIP3    H260336   3.631   1.810   1.592 -1.2871  0.1072 -0.0078
12949TIP3   OH260337   3.444   0.859  17.202  0.0415  0.2394  0.0018
12949TIP3    H160338   3.441   0.902  17.116  0.4924 -0.1553 -0.2186
12949TIP3    H260339   3.520   0.898  17.245 -0.5766  0.9282  0.4985
12950TIP3   OH260340   2.101   2.848   3.668 -0.2172 -0.2650  0.3812
12950TIP3    H160341   2.180   2.798   3.690  0.6345  0.7117 -0.3329
12950TIP3    H260342   2.034   2.782   3.652  1.1904 -1.2841 -1.8181
12951TIP3   OH260343   6.692   0.156   0.071  0.1643  0.2557  0.3157
12951TIP3    H160344   6.599   0.179   0.064  0.0419 -0.0561  0.8673
12951TIP3    H260345   6.693   0.079   0.127  0.6608 -0.4066 -0.5778
12952TIP3   OH260346   2.902   0.580  11.077  0.4806 -0.1625 -1.0332
12952TIP3    H160347   2.960   0.623  11.140  0.3517 -2.2130  0.5959
12952TIP3    H260348   2.961   0.537  11.015  0.6275  0.8183 -1.5837
12953TIP3   OH260349   1.177   5.226   1.418 -0.0928 -0.3606  0.2084
12953TIP3    H160350   1.124   5.243   1.496 -1.6741  1.8984 -1.2319
12953TIP3    H260351   1.246   5.167   1.448 -2.0668 -1.5585  2.7101
12954TIP3   OH260352   4.291   3.522  13.971  0.4904 -0.1632 -0.0756
12954TIP3    H160353   4.326   3.436  13.947  1.2999 -0.5587  2.2046
12954TIP3    H260354   4.209   3.503  14.016  1.2065  0.0906  1.4303
12955TIP3   OH260355   6.061   3.634   3.520  0.0409 -0.0177  0.4301
12955TIP3    H160356   6.124   3.662   3.587 -0.6848 -1.4637  1.7748
12955TIP3    H260357   5.976   3.660   3.555 -0.1694  1.9549 -1.3916
12956TIP3   OH260358   2.533   2.054   3.998  0.2810 -0.0469  0.0694
12956TIP3    H160359   2.506   2.085   4.084  1.8110 -1.5200  1.1439
12956TIP3    H260360   2.594   2.120   3.967 -0.8113  0.8515 -0.2490
12957TIP3   OH260361   0.584   2.871  16.752  0.1571  0.0963 -0.0367
12957TIP3    H160362   0.596   2.795  16.696 -0.6548 -0.0974  0.0348
12957TIP3    H260363   0.671   2.892  16.785  0.6107  0.1011 -1.2223
12958TIP3   OH260364   1.733   2.348   5.843 -0.6001  0.1381  0.7963
12958TIP3    H160365   1.718   2.430   5.794  0.6269 -0.4097 -0.5799
12958TIP3    H260366   1.753   2.377   5.932  1.5688  1.5201 -0.0362
12959TIP3   OH260367   4.939   2.936  15.827 -0.3382  0.3651 -0.3354
12959TIP3    H160368   4.911   2.849  15.797 -0.2089 -0.0684  0.7558
12959TIP3    H260369   4.928   2.933  15.922  2.7277  0.4065  0.1080
12960TIP3   OH260370   0.638   5.335   1.061 -0.0840 -0.4410  0.3556
12960TIP3    H160371   0.569   5.269   1.056 -0.1610 -0.3108 -0.5149
12960TIP3    H260372   0.720   5.286   1.048 -0.0714 -0.4926  0.6346
12961TIP3   OH260373   5.817   2.548   0.905  0.5712 -0.2869  0.1335
12961TIP3    H160374   5.779   2.489   0.840 -0.6286 -1.6350  1.9621
12961TIP3    H260375   5.769   2.630   0.894 -1.1762 -1.1758  0.6917
12962TIP3   OH260376   2.434   2.424   1.694  0.7751  0.2958  0.7118
12962TIP3    H160377   2.446   2.513   1.662  1.7625  0.4672  1.5142
12962TIP3    H260378   2.358   2.429   1.753  0.2362  0.3966  0.0208
12963TIP3   OH260379   6.315   2.514   2.647  0.4226 -0.1375  0.8988
12963TIP3    H160380   6.338   2.436   2.596  2.8755  0.7324  0.5609
12963TIP3    H260381   6.367   2.507   2.727  0.6086  1.1037  0.9051
12964TIP3   OH260382   1.914   5.022  11.681  0.4426 -0.1659  0.0265
12964TIP3    H160383   1.869   4.980  11.608  0.5394  0.7002 -0.5483
12964TIP3    H260384   1.978   4.957  11.710  0.4671 -0.4859 -0.7207
12965TIP3   OH260385   1.197   1.101   6.350 -0.2457 -0.4834 -0.7800
12965TIP3    H160386   1.282   1.066   6.321  0.1431  0.0062 -0.2474
12965TIP3    H260387   1.205   1.195   6.337 -0.9844 -0.5009 -1.4203
12966TIP3   OH260388   1.745   6.603   0.113  0.0718  0.3898 -0.6237
12966TIP3    H160389   1.818   6.569   0.164 -0.6953 -0.6010 -0.1444
12966TIP3    H260390   1.693   6.526   0.090 -1.4077  1.1564 -0.0246
12967TIP3   OH260391   5.790   3.204   0.092  0.8126  0.3392  0.2297
12967TIP3    H160392   5.712   3.177   0.140 -0.0008 -0.8949 -1.6421
12967TIP3    H260393   5.862   3.190   0.153 -0.2622 -0.0489  1.4581
12968TIP3   OH260394   5.749   3.664  17.264 -0.1618 -0.0321 -0.5227
12968TIP3    H160395   5.747   3.584  17.211  0.0761 -0.5846  0.2742
12968TIP3    H260396   5.833   3.660  17.309 -1.0959 -0.4987  1.2596
12969TIP3   OH260397   3.331   4.536   2.019  0.5553  0.1869 -0.9437
12969TIP3    H160398   3.277   4.599   2.066  0.3380 -1.7545  1.5909
12969TIP3    H260399   3.268   4.474   1.980  0.8092  0.9061 -2.6072
12970TIP3   OH260400   0.512   5.889   3.243 -0.9505 -0.1832 -0.4634
12970TIP3    H160401   0.523   5.919   3.334  3.0470  0.3404 -0.9242
12970TIP3    H260402   0.525   5.967   3.190 -2.5433 -0.6183 -1.5526
12971TIP3   OH260403   5.152   6.061  11.228 -0.1031 -0.3644  0.7186
12971TIP3    H160404   5.198   5.981  11.203 -2.0662 -0.8893 -1.6523
12971TIP3    H260405   5.209   6.132  11.200 -0.6733 -0.9906 -2.4315
12972TIP3   OH260406   5.914   4.674  15.169 -0.3737 -0.6512 -0.0791
12972TIP3    H160407   5.871   4.701  15.087 -0.7804 -3.9514 -1.0863
12972TIP3    H260408   5.843   4.669  15.232 -0.5513 -0.8665 -0.2931
12973TIP3   OH260409   5.040   2.482  16.638 -0.2670 -0.0723  0.3893
12973TIP3    H160410   5.124   2.477  16.683  0.5292  0.0564 -0.9986
12973TIP3    H260411   5.033   2.574  16.612 -0.8114 -0.0960  0.4433
12974TIP3   OH260412   5.834   3.359   2.166 -0.0728  0.3795  0.0137
12974TIP3    H160413   5.926   3.372   2.187 -0.2143  0.9655  0.2779
12974TIP3    H260414   5.827   3.378   2.072 -0.2226  1.9595  0.3284
12975TIP3   OH260415   3.943   4.250   0.697  0.7895  0.2025  0.0153
12975TIP3    H160416   4.034   4.281   0.692  0.6158  0.7708  0.2244
12975TIP3    H260417   3.910   4.258   0.607  1.5030 -1.8215 -0.4730
12976TIP3   OH260418   2.553   5.830   5.632 -0.1675  0.4775 -0.0945
12976TIP3    H160419   2.504   5.894   5.682 -1.7740 -0.5698 -0.2680
12976TIP3    H260420   2.639   5.871   5.618 -0.2786  1.5244  1.9456
12977TIP3   OH260421   6.145   1.878  13.019 -0.1299  0.5282 -0.0569
12977TIP3    H160422   6.159   1.798  12.968  2.1828 -0.8079  2.4236
12977TIP3    H260423   6.101   1.848  13.098  2.1727  1.3690  1.6314
12978TIP3   OH260424   2.893   4.760   6.018 -0.5852 -0.2442 -0.1254
12978TIP3    H160425   2.881   4.843   5.972  0.3140  1.1642  1.9930
12978TIP3    H260426   2.979   4.768   6.059 -1.4646 -1.2123  2.0613
12979TIP3   OH260427   5.017   5.858   4.638 -0.2041  0.2585  0.3520
12979TIP3    H160428   5.011   5.878   4.544 -0.5617  0.1194  0.3425
12979TIP3    H260429   5.108   5.832   4.651  0.1888  1.5434  0.2989
12980TIP3   OH260430   6.537   0.002  11.833  0.7367 -0.4797  0.2481
12980TIP3    H160431   6.461  -0.054  11.850  1.1824 -0.9093  0.8881
12980TIP3    H260432   6.600  -0.056  11.791  0.1004  0.2860 -1.9220
12981TIP3   OH260433   4.757   5.353  12.752 -0.0291  0.1598  0.4428
12981TIP3    H160434   4.845   5.389  12.740 -0.4906  0.8522 -0.9953
12981TIP3    H260435   4.698   5.427  12.738 -0.8499 -0.1990  1.8024
12982TIP3   OH260436   3.118   5.664  16.552 -0.6234  0.2590  0.1721
12982TIP3    H160437   3.158   5.583  16.520  0.9135  0.9966  0.1207
12982TIP3    H260438   3.101   5.716  16.473 -0.8484  0.3224  0.2610
12983TIP3   OH260439   2.632   0.451   2.637  0.1540 -0.3495  0.0652
12983TIP3    H160440   2.593   0.403   2.564 -0.7518 -1.4921  1.2550
12983TIP3    H260441   2.602   0.542   2.625 -2.6683 -1.0990  0.7145
12984TIP3   OH260442   4.835   2.557  11.989  0.0815 -0.4479 -0.3545
12984TIP3    H160443   4.882   2.591  11.912  1.0366 -0.2085  0.3169
12984TIP3    H260444   4.752   2.604  11.989  0.4294  0.1788 -0.7574
12985TIP3   OH260445   4.503   6.397  14.712  0.3334  0.1599 -0.7419
12985TIP3    H160446   4.571   6.354  14.763 -0.3593 -0.7882 -0.5918
12985TIP3    H260447   4.491   6.482  14.755  0.5549 -0.1695 -0.0188
12986TIP3   OH260448   3.478   6.690  10.971 -0.4482  0.2317 -0.7987
12986TIP3    H160449   3.415   6.619  10.955 -0.8499 -0.2889  2.3766
12986TIP3    H260450   3.558   6.660  10.929 -0.2738 -2.7782  1.3304
12987TIP3   OH260451   5.666   3.805  15.962 -0.3172 -0.3992  0.0107
12987TIP3    H160452   5.597   3.739  15.970  2.6358 -3.6335  0.6936
12987TIP3    H260453   5.717   3.779  15.886  1.9291  0.0094  1.2800
12988TIP3   OH260454   6.145   0.230  11.464 -0.5703  0.4510  0.2218
12988TIP3    H160455   6.176   0.193  11.381 -2.0551 -0.4707  0.0309
12988TIP3    H260456   6.177   0.320  11.464  0.7595  0.0066 -0.6285
12989TIP3   OH260457   5.593   0.852  16.435 -0.2262  0.5508 -0.3373
12989TIP3    H160458   5.648   0.821  16.363 -0.3788 -1.2171  0.2762
12989TIP3    H260459   5.594   0.781  16.499 -1.1467  1.5535  0.8403
12990TIP3   OH260460   2.697   3.469   5.087 -0.1647  0.1547  0.2753
12990TIP3    H160461   2.712   3.559   5.117 -0.4880  0.0101  0.8981
12990TIP3    H260462   2.736   3.466   5.000 -0.9121  1.1396 -0.1096
12991TIP3   OH260463   4.393   4.781   3.100  0.2851  0.1856 -0.1268
12991TIP3    H160464   4.332   4.726   3.150  0.6277 -0.7145 -0.6806
12991TIP3    H260465   4.340   4.857   3.073 -0.1456  0.2292  0.7987
12992TIP3   OH260466   5.727   0.172  16.864  0.3109  0.2566  0.1438
12992TIP3    H160467   5.675   0.223  16.802  0.5697 -1.0206 -1.2074
12992TIP3    H260468   5.664   0.144  16.931 -0.3758  0.2203 -0.4999
12993TIP3   OH260469   0.715   4.852   0.041  0.4703 -0.4543  0.1030
12993TIP3    H160470   0.797   4.870   0.087  0.9799 -0.4123 -0.8040
12993TIP3    H260471   0.649   4.846   0.111  1.1745 -0.1239  0.8099
12994TIP3   OH260472   4.114   2.711   3.507  0.0414 -0.3187 -0.0950
12994TIP3    H160473   4.202   2.737   3.479  0.0246 -0.9399 -0.7747
12994TIP3    H260474   4.116   2.615   3.504 -0.2218 -0.3768  1.3057
12995TIP3   OH260475   4.507   0.701   3.389 -0.4689 -0.0313 -0.4934
12995TIP3    H160476   4.427   0.707   3.441 -1.3237  0.2943 -1.7962
12995TIP3    H260477   4.490   0.631   3.326  0.9860 -1.2085  0.3596
12996TIP3   OH260478   4.262   2.688   2.286  0.5484  0.6901 -0.5238
12996TIP3    H160479   4.279   2.635   2.363 -1.3975 -0.2777 -0.6985
12996TIP3    H260480   4.167   2.702   2.287  0.5571  1.1618 -2.4070
12997TIP3   OH260481   3.310   5.162  13.123 -0.1705 -0.3830 -0.3138
12997TIP3    H160482   3.219   5.186  13.107  0.0899 -0.0764 -1.4043
12997TIP3    H260483   3.329   5.195  13.211 -0.5494  1.2550 -0.8203
12998TIP3   OH260484   5.319   1.460  15.572  0.5473 -0.3444 -0.2205
12998TIP3    H160485   5.379   1.459  15.498  0.6129  0.4174 -0.1857
12998TIP3    H260486   5.251   1.397  15.548  1.0301 -0.7596 -0.5275
12999TIP3   OH260487   1.122   6.803   0.613  0.1930  0.4303  0.3383
12999TIP3    H160488   1.173   6.793   0.693  1.8077  0.4586 -0.6528
12999TIP3    H260489   1.054   6.866   0.636  1.2361  1.2087  1.4113
13000TIP3   OH260490   2.955   2.727  12.997 -0.4889  0.2592  0.4548
13000TIP3    H160491   2.874   2.729  13.049 -1.5879 -0.1857 -1.1814
13000TIP3    H260492   3.013   2.788  13.043 -1.3891 -0.1254  2.2122
13001TIP3   OH260493   3.635   2.472  13.265  0.0500  0.2957 -0.0680
13001TIP3    H160494   3.644   2.382  13.295 -0.7989  0.0348 -0.5942
13001TIP3    H260495   3.549   2.500  13.295  0.3877  1.0106  0.2748
13002TIP3   OH260496   6.064   3.162   5.187 -0.3026  0.0175  0.1233
13002TIP3    H160497   6.088   3.157   5.094 -1.4240 -0.7826 -0.1471
13002TIP3    H260498   6.073   3.072   5.219  0.1627  0.3056  0.8278
13003TIP3   OH260499   0.153   0.284   4.571  0.4521  0.2690  0.3971
13003TIP3    H160500   0.226   0.300   4.512 -1.1160  0.9020 -1.4779
13003TIP3    H260501   0.101   0.217   4.527 -0.8021  0.8120  1.0030
13004TIP3   OH260502   0.953   6.327  14.100 -0.0821 -0.1916 -0.5951
13004TIP3    H160503   1.029   6.372  14.063  1.1525 -3.1080 -1.8910
13004TIP3    H260504   0.979   6.306  14.190  0.1656 -0.1280 -0.6508
13005TIP3   OH260505   2.912   1.826   0.588 -0.1427 -0.4999  0.8701
13005TIP3    H160506   2.883   1.843   0.678 -0.0926  1.4444  0.5812
13005TIP3    H260507   2.833   1.799   0.542 -1.0579  2.0785  0.7219
13006TIP3   OH260508   1.700   5.913   1.540  0.0134 -0.1036  0.3984
13006TIP3    H160509   1.637   5.922   1.611 -0.6376 -0.0796 -0.1775
13006TIP3    H260510   1.743   5.829   1.557  0.1271  0.0745  1.0214
13007TIP3   OH260511   4.578   4.875   2.789 -0.8123 -0.5219 -0.1028
13007TIP3    H160512   4.650   4.878   2.853  0.0799  0.2351 -1.1173
13007TIP3    H260513   4.619   4.848   2.707 -1.2944  1.8292 -1.1897
13008TIP3   OH260514   1.907   5.690   1.374 -0.5712  0.4459 -0.0536
13008TIP3    H160515   2.003   5.690   1.377 -0.4365  3.6760 -0.5502
13008TIP3    H260516   1.881   5.645   1.455  1.3252 -0.7677 -0.0460
13009TIP3   OH260517   1.715   5.250   4.331 -0.0135  0.0179  0.3330
13009TIP3    H160518   1.662   5.330   4.324 -1.4352 -0.6394  2.6912
13009TIP3    H260519   1.748   5.250   4.420  0.3140 -1.8205  0.2532
13010TIP3   OH260520   0.273   5.549   5.672  0.3969 -0.1058 -0.0603
13010TIP3    H160521   0.197   5.559   5.729  0.8740 -1.2628  0.8369
13010TIP3    H260522   0.342   5.515   5.730  0.8394 -1.5373 -1.3411
13011TIP3   OH260523   6.130   0.818  11.506  0.8135 -0.2064  0.5258
13011TIP3    H160524   6.138   0.847  11.415 -1.5373 -0.3144  0.2252
13011TIP3    H260525   6.153   0.895  11.558  4.3985 -0.7335 -0.0075
13012TIP3   OH260526   1.175   4.890  11.756 -0.2771 -0.4770  0.5105
13012TIP3    H160527   1.183   4.806  11.801 -0.5717 -0.9236 -0.2665
13012TIP3    H260528   1.108   4.938  11.805  0.8247 -0.1439  1.7754
13013TIP3   OH260529   4.424   3.287   6.115 -1.0578  0.0551 -0.3435
13013TIP3    H160530   4.444   3.344   6.041  1.5038  0.6733  0.7246
13013TIP3    H260531   4.500   3.229   6.122 -0.4593  1.0408  2.7102
13014TIP3   OH260532   6.325   5.650  12.187 -0.0096 -0.5106  0.5360
13014TIP3    H160533   6.327   5.627  12.094  0.5695  0.4225  0.3025
13014TIP3    H260534   6.299   5.742  12.188  0.2074 -0.4504  1.2838
13015TIP3   OH260535   1.856   5.538  13.364  0.4244  0.6033 -0.8163
13015TIP3    H160536   1.847   5.518  13.271 -0.4337  0.1294 -0.6358
13015TIP3    H260537   1.768   5.529  13.400  0.9848 -0.6098  0.3241
13016TIP3   OH260538   1.013   2.014   0.600  0.0336 -0.0552  0.4975
13016TIP3    H160539   1.010   1.990   0.507 -0.1738  2.1588 -0.1129
13016TIP3    H260540   0.922   2.016   0.628  0.1361 -1.6801  1.0612
13017TIP3   OH260541   1.479   4.459  11.817 -0.3341  0.0125 -0.3415
13017TIP3    H160542   1.450   4.446  11.726  0.4481  0.5109 -0.6733
13017TIP3    H260543   1.556   4.516  11.809 -0.4192  0.2747  0.6572
13018TIP3   OH260544   0.145   1.273  11.258 -0.2016  0.2437  0.2789
13018TIP3    H160545   0.083   1.246  11.326 -1.1732  1.1534 -0.2173
13018TIP3    H260546   0.142   1.201  11.194  0.0188 -0.1843  0.7472
13019TIP3   OH260547   0.775   6.073  11.575  0.1415  0.3368 -0.1030
13019TIP3    H160548   0.829   6.059  11.654  1.6765 -0.1201 -1.1790
13019TIP3    H260549   0.836   6.111  11.512 -0.7976 -0.2575 -1.4007
13020TIP3   OH260550   5.861   2.233   5.430  0.2108 -0.6073 -0.5263
13020TIP3    H160551   5.900   2.287   5.499 -1.2780 -0.8088  0.5238
13020TIP3    H260552   5.880   2.281   5.349  2.2410 -0.5129 -0.0516
13021TIP3   OH260553   3.994   6.320  11.122  0.7109  0.4218  0.2669
13021TIP3    H160554   4.085   6.339  11.145  0.9370  0.1926 -0.4153
13021TIP3    H260555   3.995   6.228  11.096  0.4208  0.6010 -0.3984
13022TIP3   OH260556   0.173   6.113  17.239 -0.8778  0.1029 -0.2189
13022TIP3    H160557   0.127   6.181  17.289 -2.1049 -0.7068 -0.2128
13022TIP3    H260558   0.109   6.044  17.228  0.3850 -1.1228 -0.1418
13023TIP3   OH260559   1.660   4.845   3.854  0.4691  0.0278  0.2803
13023TIP3    H160560   1.675   4.881   3.941  0.8656 -2.6896  1.4418
13023TIP3    H260561   1.680   4.752   3.863 -0.4467 -0.5324 -2.4908
13024TIP3   OH260562   2.855   2.257   4.355 -0.4914 -0.4043  0.4194
13024TIP3    H160563   2.827   2.311   4.280 -2.8076  0.1325  1.5913
13024TIP3    H260564   2.900   2.183   4.315 -0.0954  0.7519 -1.4055
13025TIP3   OH260565   3.946   1.490  13.320  0.5230 -0.0825  0.3706
13025TIP3    H160566   3.970   1.435  13.393  0.7872 -1.1862 -0.5200
13025TIP3    H260567   4.016   1.478  13.256  0.8323  1.6473  0.3131
13026TIP3   OH260568   3.449   0.195  15.500  0.2595  0.3083 -0.3017
13026TIP3    H160569   3.528   0.187  15.554  0.3135  1.6217 -0.1540
13026TIP3    H260570   3.380   0.157  15.554  0.4585  0.8646  0.3582
13027TIP3   OH260571   4.994   1.844  16.603 -0.0572  0.3231  0.1144
13027TIP3    H160572   5.040   1.766  16.633  0.5430  0.1297 -1.2350
13027TIP3    H260573   5.055   1.886  16.542 -0.1782  2.1008  1.1372
13028TIP3   OH260574   2.378   0.261   5.382  0.0909  0.3741 -0.4032
13028TIP3    H160575   2.441   0.321   5.421 -0.3765  0.5962  0.0156
13028TIP3    H260576   2.430   0.184   5.358  0.7021  0.9702 -1.0062
13029TIP3   OH260577   0.102   5.969  16.958  0.1216 -0.3631  0.5256
13029TIP3    H160578   0.073   5.981  16.867 -0.8978  0.1907  0.9085
13029TIP3    H260579   0.148   5.885  16.957  1.6764  0.4464 -0.8580
13030TIP3   OH260580   3.539   0.971   0.958  0.1455  0.6523 -0.0102
13030TIP3    H160581   3.463   0.986   1.015 -0.7383  1.5392 -1.3540
13030TIP3    H260582   3.504   0.922   0.884  1.1388  0.1038 -0.1342
13031TIP3   OH260583   2.260   3.244   5.153 -0.1765  0.2125  0.0955
13031TIP3    H160584   2.241   3.336   5.172 -0.7971 -0.2235  1.7640
13031TIP3    H260585   2.328   3.247   5.086 -1.5605  1.8776 -1.3647
13032TIP3   OH260586   1.269   3.329   1.779  0.1805 -0.3602 -0.4868
13032TIP3    H160587   1.338   3.320   1.713  2.0369  0.7943  1.2018
13032TIP3    H260588   1.189   3.341   1.728  1.2947 -1.0561 -2.5148
13033TIP3   OH260589   2.969   0.443   1.612  0.2111  0.6133  0.1072
13033TIP3    H160590   2.991   0.368   1.556 -0.9383  0.8492 -0.7035
13033TIP3    H260591   2.925   0.404   1.687  2.2036  0.2486  1.1614
13034TIP3   OH260592   0.523   1.460  15.431  0.1952  0.0897  0.6607
13034TIP3    H160593   0.481   1.503  15.505  0.2664  0.3849  0.5337
13034TIP3    H260594   0.454   1.407  15.391  0.1125  0.0674  0.8352
13035TIP3   OH260595   3.165   5.351   3.089  0.2077 -0.4229 -0.1193
13035TIP3    H160596   3.252   5.321   3.066  0.9765  2.2985 -1.1639
13035TIP3    H260597   3.107   5.302   3.031  1.0865 -1.5771 -0.0666
13036TIP3   OH260598   1.111   4.700   1.310  0.5073  0.2515  0.7776
13036TIP3    H160599   1.077   4.688   1.221  1.1618  0.6499  0.4686
13036TIP3    H260600   1.169   4.776   1.304 -0.7836  1.3687  1.9241
13037TIP3   OH260601   2.137   2.668   1.021  0.2910  0.0408 -0.2128
13037TIP3    H160602   2.042   2.661   1.032  0.2225 -0.6887 -1.0969
13037TIP3    H260603   2.148   2.736   0.954  0.4373  0.5755  0.3391
13038TIP3   OH260604   0.807   5.631  10.826 -0.5629  0.6870  0.3503
13038TIP3    H160605   0.870   5.583  10.772 -1.1129 -1.0124  1.1330
13038TIP3    H260606   0.778   5.703  10.770  1.0988  0.7674 -0.4910
13039TIP3   OH260607   4.607   3.987  15.278 -0.4999  0.2659  0.4081
13039TIP3    H160608   4.680   3.941  15.319 -0.1128 -0.6890 -1.2601
13039TIP3    H260609   4.630   4.080  15.284  0.2905  0.0437  0.8919
13040TIP3   OH260610   5.503   4.199   0.414 -0.2649  0.4579 -0.0048
13040TIP3    H160611   5.450   4.169   0.340  1.3992  0.4122 -1.2441
13040TIP3    H260612   5.478   4.290   0.426 -1.5348  0.0954  0.3063
13041TIP3   OH260613   0.562   3.992  12.026 -0.5167  0.1418 -0.0688
13041TIP3    H160614   0.572   3.935  11.949  0.6451 -1.4996  1.2363
13041TIP3    H260615   0.644   3.981  12.074 -1.0554  1.4792  1.2056
13042TIP3   OH260616   0.131   6.785   2.608 -0.0231  0.8295 -0.1714
13042TIP3    H160617   0.202   6.783   2.544 -1.1408  2.6632 -1.5970
13042TIP3    H260618   0.160   6.728   2.679  2.7482  1.3099 -0.7980
13043TIP3   OH260619   4.803   0.621   4.917 -0.7821 -0.5218  0.5875
13043TIP3    H160620   4.886   0.594   4.878 -0.8072  0.1515  0.0439
13043TIP3    H260621   4.748   0.543   4.914 -0.6101 -0.6168 -0.2740
13044TIP3   OH260622   3.553   6.242  11.510  0.4291  0.0305 -0.4452
13044TIP3    H160623   3.539   6.269  11.419  0.0570  0.6643 -0.2033
13044TIP3    H260624   3.646   6.258  11.526  0.5590 -0.3512 -0.7974
13045TIP3   OH260625   4.917   4.943   4.956  0.2637  0.1598  0.4434
13045TIP3    H160626   4.828   4.931   4.922  0.4865 -0.0960 -0.0687
13045TIP3    H260627   4.962   4.861   4.935  0.4536  0.0570  1.2371
13046TIP3   OH260628   5.146   3.582  13.003  0.2560  0.2306  0.3481
13046TIP3    H160629   5.056   3.574  12.972  0.2191  0.7220  0.3118
13046TIP3    H260630   5.143   3.652  13.068  0.5784  0.1241  0.4830
13047TIP3   OH260631   1.709   5.105  15.730 -0.1579  0.7857  0.7252
13047TIP3    H160632   1.614   5.098  15.719 -0.2426  1.8431  0.6372
13047TIP3    H260633   1.726   5.071  15.817 -0.1556 -2.6720 -0.4882
13048TIP3   OH260634   0.131   4.957  16.416 -0.7849  0.1449  0.0933
13048TIP3    H160635   0.096   4.883  16.367  0.1402  0.1369 -0.5787
13048TIP3    H260636   0.172   4.917  16.493  2.0453 -0.3782 -1.5523
13049TIP3   OH260637   1.942   5.874   1.823 -0.2123  0.0494  0.0783
13049TIP3    H160638   1.936   5.934   1.749 -0.5535  1.4059  1.1461
13049TIP3    H260639   1.980   5.927   1.894 -0.1407 -1.1193  0.9518
13050TIP3   OH260640   1.830   0.049   5.624  0.0198  0.5025 -0.7253
13050TIP3    H160641   1.826   0.042   5.720  2.4852  0.5286 -0.5658
13050TIP3    H260642   1.748   0.009   5.594 -0.2222 -0.6906  1.3396
13051TIP3   OH260643   4.158   5.332  14.206 -0.1646 -0.3247  0.1504
13051TIP3    H160644   4.241   5.330  14.158 -1.2496 -2.2079 -1.8003
13051TIP3    H260645   4.126   5.422  14.195  0.6486 -0.1399 -0.8577
13052TIP3   OH260646   5.115   6.568  11.764  0.6483  0.1686  0.7072
13052TIP3    H160647   5.037   6.528  11.802  0.6872 -0.8950 -0.2734
13052TIP3    H260648   5.102   6.662  11.775 -0.9791  0.0295  0.1805
13053TIP3   OH260649   6.401   3.169   2.977 -0.1505 -0.1806  0.0335
13053TIP3    H160650   6.447   3.148   3.059  1.5209  2.9359  0.0592
13053TIP3    H260651   6.470   3.195   2.917 -1.5160 -0.6636 -1.8304
13054TIP3   OH260652   3.141   1.953  13.639  0.2854  0.0608  0.2776
13054TIP3    H160653   3.047   1.934  13.645  0.4926 -1.2687 -0.3046
13054TIP3    H260654   3.183   1.867  13.644  1.4137  0.5324 -0.6526
13055TIP3   OH260655   4.474   5.814   4.160  0.3199  0.0342 -0.0325
13055TIP3    H160656   4.468   5.847   4.250  2.4228 -0.6655  0.4189
13055TIP3    H260657   4.493   5.892   4.108 -1.8513  0.6071 -0.0785
13056TIP3   OH260658   3.149   6.116   3.527 -0.0323 -0.2605  0.2731
13056TIP3    H160659   3.138   6.055   3.600 -2.8688  0.6119  0.6849
13056TIP3    H260660   3.200   6.189   3.563  0.7280 -0.9511  0.6287
13057TIP3   OH260661   4.446   5.749  14.833  0.2155 -0.4286 -0.5963
13057TIP3    H160662   4.419   5.840  14.833 -0.8000 -0.7133  0.2177
13057TIP3    H260663   4.511   5.743  14.904 -1.3031 -0.7528  0.8273
13058TIP3   OH260664   1.649   2.348  10.418  0.4920  0.1770  0.1145
13058TIP3    H160665   1.724   2.310  10.372  0.9336  0.7605  0.3411
13058TIP3    H260666   1.643   2.438  10.384  0.5772  0.4866  0.8911
13059TIP3   OH260667   3.404   2.729  12.709  0.7638 -0.3731 -0.2643
13059TIP3    H160668   3.345   2.685  12.771 -1.1571  1.2270 -0.8512
13059TIP3    H260669   3.455   2.789  12.763 -0.6802  0.7907 -0.1277
13060TIP3   OH260670   1.911   4.951   6.287  0.1505  0.4869  0.6532
13060TIP3    H160671   1.941   4.874   6.335 -0.7590 -0.0129  0.4554
13060TIP3    H260672   1.921   4.928   6.195 -1.2601  0.0956  0.5666
13061TIP3   OH260673   0.433   4.359   1.275  0.7829  0.0445 -0.1220
13061TIP3    H160674   0.491   4.383   1.203  0.9340  0.5141  0.1515
13061TIP3    H260675   0.463   4.273   1.303  0.4030 -0.3747 -0.9431
13062TIP3   OH260676   3.209   1.826  14.123  0.3412 -0.1042  0.4820
13062TIP3    H160677   3.266   1.863  14.190  0.7408  0.2549 -0.0527
13062TIP3    H260678   3.169   1.901  14.080 -0.4818 -0.3495  0.7970
13063TIP3   OH260679   3.125   1.573   2.994  0.1385  0.4053  0.7282
13063TIP3    H160680   3.116   1.668   2.983 -0.2706  0.1741 -1.4877
13063TIP3    H260681   3.037   1.543   3.014 -0.3494  0.2395 -1.4235
13064TIP3   OH260682   3.246   2.438   2.577 -0.1856  0.6289  0.1556
13064TIP3    H160683   3.291   2.518   2.605  0.3160  0.4187 -0.0499
13064TIP3    H260684   3.308   2.394   2.519 -0.2618 -0.1587  0.6582
13065TIP3   OH260685   5.372   2.885  13.388 -0.1992 -0.1326  0.4995
13065TIP3    H160686   5.341   2.812  13.335 -1.6594  1.2076 -0.6165
13065TIP3    H260687   5.463   2.896  13.362 -0.1362 -1.1745  0.2406
13066TIP3   OH260688   1.491   0.121  15.605  0.0827 -0.1139 -0.0331
13066TIP3    H160689   1.423   0.053  15.602 -0.6372  0.6002 -2.1341
13066TIP3    H260690   1.507   0.142  15.513  2.6361  0.3015  0.4355
13067TIP3   OH260691   1.566   2.039   3.357  0.6539  0.2424 -0.0628
13067TIP3    H160692   1.539   2.100   3.425  1.6354  0.5171  0.0926
13067TIP3    H260693   1.522   1.957   3.380 -1.7866  1.1771 -1.0271
13068TIP3   OH260694   1.169   1.489  11.621  0.3000 -0.5916  0.1311
13068TIP3    H160695   1.262   1.477  11.602  0.6008  0.1095  1.1066
13068TIP3    H260696   1.159   1.582  11.638 -0.4466 -0.7736  0.7435
13069TIP3   OH260697   2.124   3.524  14.794 -0.0439  0.3824 -0.9478
13069TIP3    H160698   2.037   3.541  14.829 -0.1162  0.8968 -1.3615
13069TIP3    H260699   2.128   3.575  14.713  0.7588  0.6298 -0.7649
13070TIP3   OH260700   2.203   5.814  15.128 -0.4047  0.1702 -0.4168
13070TIP3    H160701   2.195   5.893  15.180  1.8569  1.0003 -1.2193
13070TIP3    H260702   2.230   5.845  15.041  0.6922 -1.4479 -0.7072
13071TIP3   OH260703   5.330   6.008   3.873  0.3677 -0.1571  0.4851
13071TIP3    H160704   5.420   6.017   3.842  1.1069  0.7707  2.7049
13071TIP3    H260705   5.276   6.040   3.801  1.6889 -1.8878 -1.3710
13072TIP3   OH260706   4.973   1.874   3.596 -0.1860  0.7983  0.4483
13072TIP3    H160707   5.061   1.899   3.625  0.1632  0.0919  0.0086
13072TIP3    H260708   4.951   1.797   3.649 -0.1596  0.4170 -0.0868
13073TIP3   OH260709   0.437   3.695  16.213  0.1424 -0.0792 -0.3815
13073TIP3    H160710   0.469   3.627  16.152  2.4749  0.6414 -0.0708
13073TIP3    H260711   0.486   3.774  16.188 -0.3716  0.7453  1.1112
13074TIP3   OH260712   4.250   6.710   1.465 -0.3725  0.6597  0.1024
13074TIP3    H160713   4.191   6.664   1.406  1.3743 -1.6495  0.0420
13074TIP3    H260714   4.303   6.765   1.407  0.3448 -0.4763 -0.3410
13075TIP3   OH260715   4.684   5.839   6.170 -0.3838  0.1002 -0.5193
13075TIP3    H160716   4.708   5.931   6.163 -0.0946  0.2050  1.3890
13075TIP3    H260717   4.765   5.795   6.197 -0.9765 -0.3993  0.4973
13076TIP3   OH260718   5.421   4.813  12.741 -0.5449 -0.0410  0.1710
13076TIP3    H160719   5.461   4.886  12.694  0.9670 -1.5584 -1.0431
13076TIP3    H260720   5.494   4.754  12.760 -1.9253 -2.1034 -0.5453
13077TIP3   OH260721   0.282   5.733   1.560  0.1710 -0.6753 -0.1720
13077TIP3    H160722   0.365   5.692   1.537  0.8815  1.4366 -1.7507
13077TIP3    H260723   0.218   5.662   1.559  1.5838 -1.9893 -1.1382
13078TIP3   OH260724   0.320   2.236  12.228 -0.0788  0.1202  0.0943
13078TIP3    H160725   0.374   2.288  12.168  0.2245 -0.6841 -0.3568
13078TIP3    H260726   0.383   2.188  12.282 -0.2971 -1.3901 -0.9267
13079TIP3   OH260727   4.003   3.734  15.194 -0.1558 -0.0876 -0.3114
13079TIP3    H160728   4.068   3.802  15.174 -1.5033  1.0555 -0.9151
13079TIP3    H260729   3.919   3.778  15.186 -1.1473 -2.1428 -2.0570
13080TIP3   OH260730   6.429   2.401   4.698 -0.1731  0.0287  0.4048
13080TIP3    H160731   6.436   2.473   4.636 -0.4830  0.5958  1.0081
13080TIP3    H260732   6.348   2.356   4.675 -1.4306  1.5187  1.6821
13081TIP3   OH260733   2.922   6.693  10.355 -0.5558 -0.0078 -0.2189
13081TIP3    H160734   2.977   6.649  10.420 -0.4969  1.5983  0.8707
13081TIP3    H260735   2.937   6.644  10.274  0.6134 -1.0661  0.5905
13082TIP3   OH260736   2.116   1.796  17.044  0.3443  0.0484 -0.3084
13082TIP3    H160737   2.176   1.836  17.107 -0.5201  0.5104  0.2469
13082TIP3    H260738   2.162   1.803  16.960  1.4872 -0.5300  0.2410
13083TIP3   OH260739   3.930   2.409  13.751 -0.0468 -0.1574  0.5659
13083TIP3    H160740   3.872   2.339  13.720 -0.8404  0.8820 -0.3739
13083TIP3    H260741   3.888   2.490  13.722  1.1767  0.6934  1.0746
13084TIP3   OH260742   0.034   2.351   0.029  0.0400  0.3623 -0.3437
13084TIP3    H160743   0.010   2.265  -0.005 -2.3417  0.5111  0.7412
13084TIP3    H260744   0.070   2.333   0.116 -2.2323  0.4727  0.7083
13085TIP3   OH260745   3.989   4.904  13.180 -0.4459 -1.0126  0.2652
13085TIP3    H160746   4.007   4.843  13.251  0.8875 -0.4020  0.4940
13085TIP3    H260747   4.059   4.888  13.116  0.2154  0.5665  0.5506
13086TIP3   OH260748   1.105   0.260   0.254  0.0708 -0.0222  0.2458
13086TIP3    H160749   1.015   0.282   0.228  1.0069  2.2139 -1.5117
13086TIP3    H260750   1.157   0.277   0.175  2.1622 -0.2624  1.5123
13087TIP3   OH260751   1.287   0.934   1.949 -0.1811 -0.4117  0.0267
13087TIP3    H160752   1.222   0.973   2.007 -1.9898 -1.0596 -1.4972
13087TIP3    H260753   1.317   1.006   1.894  1.8124  0.2893  1.8880
13088TIP3   OH260754   1.256   1.035  11.768  0.1948  0.4653 -0.2626
13088TIP3    H160755   1.191   1.006  11.832  2.3049 -3.0127  0.6261
13088TIP3    H260756   1.238   0.982  11.690  0.3898  1.3685 -0.9288
13089TIP3   OH260757   0.726   3.645  17.251  0.3830  0.2935 -0.5616
13089TIP3    H160758   0.820   3.639  17.232  0.7980  0.0975  1.3500
13089TIP3    H260759   0.697   3.724  17.205  1.8663  1.3083  0.1490
13090TIP3   OH260760   2.351   2.877  11.740  0.3607  0.1934 -0.4247
13090TIP3    H160761   2.334   2.903  11.830  1.0021 -0.4746 -0.0995
13090TIP3    H260762   2.290   2.929  11.688  0.1639  0.7728  0.3695
13091TIP3   OH260763   3.393   2.216  10.803 -0.6039 -0.7345 -0.0441
13091TIP3    H160764   3.463   2.235  10.866 -0.5592 -0.3959 -0.1946
13091TIP3    H260765   3.345   2.143  10.842 -0.5296 -0.5761  0.3450
13092TIP3   OH260766   0.693   1.239   3.576 -0.0257 -0.3876  0.4589
13092TIP3    H160767   0.773   1.290   3.567  0.2364 -0.8285  0.2642
13092TIP3    H260768   0.707   1.162   3.521 -0.1424 -1.0190  1.3022
13093TIP3   OH260769   4.483   2.069   4.951 -0.1228  0.0676  0.7572
13093TIP3    H160770   4.547   2.129   4.914 -3.2870  4.1793  1.1962
13093TIP3    H260771   4.498   2.073   5.045 -0.3047  0.0672  0.7856
13094TIP3   OH260772   6.657   3.896  15.307 -0.4875 -0.3921 -0.1533
13094TIP3    H160773   6.631   3.900  15.399 -1.5651  2.9916 -0.4749
13094TIP3    H260774   6.739   3.944  15.302 -0.5070 -0.4214 -0.9644
13095TIP3   OH260775   1.724   5.617  12.885 -0.1877 -0.4197 -0.0961
13095TIP3    H160776   1.730   5.571  12.969 -2.1416  2.4117  1.8101
13095TIP3    H260777   1.799   5.676  12.885  0.6678 -1.4694 -1.1320
13096TIP3   OH260778   0.445   3.392  16.319  0.4229  0.0754  0.1587
13096TIP3    H160779   0.537   3.372  16.340  0.2809 -0.8066  0.0051
13096TIP3    H260780   0.407   3.419  16.402  0.6014 -0.4793  0.4304
13097TIP3   OH260781   5.666   0.448  16.525  0.0835 -0.3919 -0.3393
13097TIP3    H160782   5.709   0.385  16.467  2.9859  1.7121 -0.7200
13097TIP3    H260783   5.683   0.415  16.613 -0.7800 -1.4964 -0.5728
13098TIP3   OH260784   4.963   6.133  17.181  0.8359  0.3700 -0.5441
13098TIP3    H160785   4.938   6.058  17.126  1.1025 -1.3994  1.6115
13098TIP3    H260786   5.046   6.106  17.221  0.5520  1.5167  0.8738
13099TIP3   OH260787   6.052   1.983  14.967 -0.9456  0.2245  0.2543
13099TIP3    H160788   5.968   1.938  14.961 -1.3755  0.8795  1.0959
13099TIP3    H260789   6.037   2.068  14.925 -1.2715  1.0805  2.0048
13100TIP3   OH260790   0.675   2.664   2.713 -0.4711  0.0687  0.1132
13100TIP3    H160791   0.581   2.664   2.695 -0.3456 -2.7119 -1.0042
13100TIP3    H260792   0.700   2.572   2.710  2.6595  0.8244 -1.5907
13101TIP3   OH260793   2.565   4.916   0.095  0.2633 -0.0480 -0.2131
13101TIP3    H160794   2.481   4.959   0.110  0.1902 -0.3148  0.1615
13101TIP3    H260795   2.573   4.854   0.167  0.3892 -0.6261 -0.7174
13102TIP3   OH260796   4.991   4.183  14.397  0.0171 -0.4341  0.3197
13102TIP3    H160797   4.935   4.213  14.469  0.4672  0.8421  0.1764
13102TIP3    H260798   4.952   4.221  14.319  0.0152 -1.1020 -0.0028
13103TIP3   OH260799   0.455   4.186  13.793  0.0194 -0.1167  0.3403
13103TIP3    H160800   0.462   4.281  13.805  1.6031  0.0706 -1.6173
13103TIP3    H260801   0.523   4.150  13.851  1.1464  0.1467 -0.7771
13104TIP3   OH260802   3.344   5.317  16.191  1.0974 -0.4699 -0.0619
13104TIP3    H160803   3.270   5.311  16.130  1.3220 -2.0658 -0.2188
13104TIP3    H260804   3.340   5.236  16.242  1.7263  0.2187  1.1236
13105TIP3   OH260805   4.116   2.714  10.782 -0.2194  0.2636  0.3869
13105TIP3    H160806   4.104   2.795  10.733 -4.5287  0.4262  1.2620
13105TIP3    H260807   4.183   2.735  10.847  0.3790  2.3562 -0.8049
13106TIP3   OH260808   0.199   1.631  12.415  0.5989 -0.1130  0.0098
13106TIP3    H160809   0.222   1.723  12.425 -0.8660  0.2225  0.4547
13106TIP3    H260810   0.276   1.592  12.371  1.2524  1.2879 -0.1453
13107TIP3   OH260811   4.527   1.774  13.941 -0.6068  0.0588 -0.1203
13107TIP3    H160812   4.595   1.737  13.998 -0.5286  1.7657  0.9421
13107TIP3    H260813   4.480   1.697  13.908  0.1992 -1.0388  1.1627
13108TIP3   OH260814   4.030   1.534   1.154  0.0450 -0.6512 -0.6776
13108TIP3    H160815   3.987   1.510   1.236 -0.2053  1.6065 -0.0785
13108TIP3    H260816   4.026   1.455   1.101  0.3266 -2.2325  1.5092
13109TIP3   OH260817   0.607   3.688   5.810  0.5381 -0.1434  0.0485
13109TIP3    H160818   0.523   3.726   5.784 -0.5775 -1.4902  1.4404
13109TIP3    H260819   0.652   3.758   5.856 -0.6066  0.0939  0.8421
13110TIP3   OH260820   0.098   0.825   0.129 -0.0916  0.0611  0.5025
13110TIP3    H160821   0.139   0.893   0.183 -2.7548  1.7637  0.5312
13110TIP3    H260822   0.127   0.844   0.040  0.4460  0.2403  0.7109
13111TIP3   OH260823   4.037   5.428   4.779 -0.6110  0.1131 -0.1028
13111TIP3    H160824   4.032   5.514   4.738  3.5392  0.2154 -0.7768
13111TIP3    H260825   4.083   5.444   4.862 -0.6914 -1.3381  0.2470
13112TIP3   OH260826   4.539   1.794   0.715 -1.0359  0.3811  0.0629
13112TIP3    H160827   4.467   1.801   0.777 -0.1056  1.0566  1.0928
13112TIP3    H260828   4.604   1.739   0.759 -1.4704 -1.4320 -1.4278
13113TIP3   OH260829   6.371   3.740  16.817 -0.4884  0.1973 -0.2472
13113TIP3    H160830   6.384   3.835  16.812 -0.4403  0.2278  0.3137
13113TIP3    H260831   6.280   3.731  16.847 -0.7434  0.0508 -1.0622
13114TIP3   OH260832   1.208   5.039  11.491 -0.5294  0.1424 -0.0438
13114TIP3    H160833   1.191   5.026  11.585 -0.3158  0.9111  0.1012
13114TIP3    H260834   1.195   4.952  11.453 -0.9667 -0.1060  0.6452
13115TIP3   OH260835   5.639   2.273  12.353  0.1735 -0.3131  0.0048
13115TIP3    H160836   5.591   2.292  12.272 -0.5800 -0.9026  0.2954
13115TIP3    H260837   5.668   2.358  12.385 -0.3743  0.0177 -0.3693
13116TIP3   OH260838   0.194   0.998  15.376 -0.3957 -0.1798 -0.7612
13116TIP3    H160839   0.202   1.055  15.453  0.5941 -3.1587  1.5520
13116TIP3    H260840   0.275   1.011  15.328  0.6387 -0.9033  0.7270
13117TIP3   OH260841   0.629   3.413  11.784  0.2263 -0.1022 -0.4572
13117TIP3    H160842   0.642   3.486  11.846 -0.4460 -1.3323  1.2111
13117TIP3    H260843   0.711   3.363  11.788  0.9495  0.8585 -2.1061
13118TIP3   OH260844   3.331   1.312  16.045 -0.0042 -0.4572 -0.2059
13118TIP3    H160845   3.372   1.227  16.029 -0.8482 -0.9888  0.3853
13118TIP3    H260846   3.396   1.376  16.014  0.7431 -1.3003 -0.4302
13119TIP3   OH260847   0.866   5.192   6.170 -0.3646  0.0264 -0.2982
13119TIP3    H160848   0.933   5.173   6.104  1.6081  1.7031  1.1159
13119TIP3    H260849   0.785   5.157   6.131  1.3303 -2.5981 -1.8479
13120TIP3   OH260850   0.766   4.236   4.800 -0.3536 -0.1031 -0.2454
13120TIP3    H160851   0.742   4.145   4.822  0.7817 -0.6208 -1.0438
13120TIP3    H260852   0.683   4.277   4.776 -1.1506 -0.4349  1.6994
13121TIP3   OH260853   2.720   6.045  16.478  0.2265 -0.0690  0.0848
13121TIP3    H160854   2.709   6.059  16.572  0.5771 -0.4433  0.1859
13121TIP3    H260855   2.815   6.037  16.465  0.1604 -0.3930 -0.2402
13122TIP3   OH260856   1.401   3.231  11.866  0.0025  0.5034 -0.3031
13122TIP3    H160857   1.454   3.197  11.795 -1.0015  0.4785 -1.0537
13122TIP3    H260858   1.428   3.323  11.874  2.1085 -0.1420  1.1740
13123TIP3   OH260859   2.052   4.856   4.453 -0.4626 -0.2935  0.2103
13123TIP3    H160860   2.090   4.869   4.366  0.8914 -0.5047  0.7395
13123TIP3    H260861   2.125   4.872   4.513 -1.8179  1.8297  1.4335
13124TIP3   OH260862   2.416   2.011  15.514  0.1203 -0.2674  0.3387
13124TIP3    H160863   2.385   2.057  15.436 -0.6313  0.5728  1.0987
13124TIP3    H260864   2.371   1.927  15.512 -1.5603  0.5682  0.9314
13125TIP3   OH260865   0.934   6.338  15.387 -0.3362 -0.0310  0.0373
13125TIP3    H160866   0.919   6.348  15.481 -1.3567  1.4149 -0.2474
13125TIP3    H260867   0.846   6.327  15.349 -0.0015  0.0832 -0.8076
13126TIP3   OH260868   3.932   1.249  12.194 -0.1090 -0.6045  0.0618
13126TIP3    H160869   3.971   1.330  12.162 -0.4695 -0.2411  0.5386
13126TIP3    H260870   3.977   1.231  12.276 -1.3091  0.1289  0.9155
13127TIP3   OH260871   2.180   1.179   0.736 -0.1478  0.2986  0.5398
13127TIP3    H160872   2.131   1.215   0.810 -2.2231  0.7379 -0.9346
13127TIP3    H260873   2.118   1.183   0.663  0.9663 -2.3450 -0.6867
13128TIP3   OH260874   6.355   1.028  17.186 -0.2031  0.2690 -0.2922
13128TIP3    H160875   6.432   1.083  17.196 -1.0862  1.3052  1.0994
13128TIP3    H260876   6.296   1.078  17.131 -0.6491  0.3318  0.2345
13129TIP3   OH260877   0.936   4.681   1.846 -0.9159  0.0925 -0.0785
13129TIP3    H160878   0.945   4.602   1.793  1.5396 -0.1752  0.6090
13129TIP3    H260879   0.945   4.753   1.783 -1.1338 -0.1834 -0.4329
13130TIP3   OH260880   4.161   4.369  14.277 -0.5053 -0.0754 -0.3198
13130TIP3    H160881   4.118   4.298  14.326  0.2343 -0.4674 -0.2274
13130TIP3    H260882   4.090   4.408  14.226 -0.9713 -0.7441 -0.2079
13131TIP3   OH260883   2.875   3.061  16.232 -0.2493  0.4310  0.5341
13131TIP3    H160884   2.908   2.995  16.171  1.8517  0.4689  1.5718
13131TIP3    H260885   2.805   3.015  16.280  0.3450 -0.6479  0.4007
13132TIP3   OH260886   1.411   4.935   1.499 -0.1036  0.5486  0.8802
13132TIP3    H160887   1.460   4.878   1.440 -0.2726  0.9944  0.3044
13132TIP3    H260888   1.331   4.887   1.518 -0.9597  1.2367 -0.8425
13133TIP3   OH260889   6.697   2.309   3.110  0.4773 -0.2171  0.2719
13133TIP3    H160890   6.646   2.253   3.052 -0.7969 -0.6380  1.7500
13133TIP3    H260891   6.784   2.269   3.112 -0.1996 -1.7214  0.7055
13134TIP3   OH260892   4.816   1.737   3.288 -0.1389  0.1051  0.0384
13134TIP3    H160893   4.886   1.801   3.293  0.3838 -0.5525  1.6284
13134TIP3    H260894   4.745   1.783   3.243  0.5180  1.5074  0.3834
13135TIP3   OH260895   6.346   0.515   2.783 -0.6255  0.3007  0.1751
13135TIP3    H160896   6.393   0.573   2.843  1.2688  0.5066 -1.3844
13135TIP3    H260897   6.358   0.556   2.697 -0.2898 -1.7322 -0.7967
13136TIP3   OH260898   1.770   4.516  12.988 -0.0076 -0.4276 -0.0790
13136TIP3    H160899   1.784   4.422  12.991  2.0839 -0.1840 -0.4108
13136TIP3    H260900   1.814   4.544  12.908  1.2220  1.0681  1.0626
13137TIP3   OH260901   5.751   3.161  15.841  0.3543 -0.0012  0.0125
13137TIP3    H160902   5.784   3.098  15.905 -2.7175  0.7527  2.6171
13137TIP3    H260903   5.678   3.116  15.799 -0.6544  1.0857  0.5320
13138TIP3   OH260904   6.140   0.109   3.994  0.1953  0.0715  0.0768
13138TIP3    H160905   6.085   0.032   4.005 -0.7263  0.5483 -1.0069
13138TIP3    H260906   6.180   0.122   4.080  2.5409 -3.1591 -0.3475
13139TIP3   OH260907   5.155   6.744  15.160  1.0121 -0.3702  0.1248
13139TIP3    H160908   5.073   6.757  15.112  0.4710  0.6228  1.2627
13139TIP3    H260909   5.166   6.649  15.163  0.1596 -0.4985 -0.4789
13140TIP3   OH260910   1.191   2.815   4.212 -0.3548  0.4498  0.7400
13140TIP3    H160911   1.220   2.738   4.164 -1.1551 -1.6459  3.3638
13140TIP3    H260912   1.264   2.836   4.270 -0.0638  1.8603 -0.0896
13141TIP3   OH260913   2.560   3.939  16.887 -0.3564  0.0241  0.0501
13141TIP3    H160914   2.529   3.921  16.798 -1.6323  1.0016  0.2618
13141TIP3    H260915   2.609   4.020  16.879 -0.5735  0.1777  0.2428
13142TIP3   OH260916   5.486   4.881  16.534 -0.9859 -0.1190 -0.4523
13142TIP3    H160917   5.435   4.935  16.594  0.0472  0.8450 -0.4176
13142TIP3    H260918   5.429   4.806  16.516 -0.9594 -0.9442  2.4668
13143TIP3   OH260919   2.867   0.112  15.339 -0.2797 -0.0377  0.1720
13143TIP3    H160920   2.824   0.104  15.424  1.1338  0.3494  0.9633
13143TIP3    H260921   2.952   0.070  15.352 -0.5157 -1.0688 -1.4304
13144TIP3   OH260922   3.799   0.146   3.481  0.0033  0.0495 -0.2189
13144TIP3    H160923   3.742   0.222   3.498  0.8229  1.5224 -3.3249
13144TIP3    H260924   3.821   0.153   3.388  2.4068 -2.4697  0.0384
13145TIP3   OH260925   5.563   0.387  13.843 -0.1576  0.4462 -0.2259
13145TIP3    H160926   5.596   0.452  13.782  0.8989 -0.3134 -0.4882
13145TIP3    H260927   5.467   0.395  13.837 -0.1866 -0.8200 -3.3868
13146TIP3   OH260928   0.192   2.147  12.541  0.2186 -0.3265  0.7332
13146TIP3    H160929   0.286   2.132  12.550  0.0940 -0.9969  0.9446
13146TIP3    H260930   0.185   2.224  12.485  0.8819 -0.9234 -0.1990
13147TIP3   OH260931   5.413   4.499  15.981 -0.2436 -0.6785  0.8740
13147TIP3    H160932   5.329   4.543  15.974  0.1282  0.0559  0.8938
13147TIP3    H260933   5.412   4.435  15.910  0.3885  1.4446 -1.2224
13148TIP3   OH260934   4.478   6.759  15.050 -0.1747  0.1729 -0.7342
13148TIP3    H160935   4.573   6.758  15.035 -0.1683  0.0150 -0.6850
13148TIP3    H260936   4.448   6.673  15.020 -0.6904  1.1621 -3.3031
13149TIP3   OH260937   3.997   0.644   3.655  0.1703  0.6537 -0.1103
13149TIP3    H160938   3.960   0.557   3.641  1.3133  0.2270 -0.6158
13149TIP3    H260939   4.046   0.637   3.737 -0.5650  1.1148  0.3756
13150TIP3   OH260940   3.488   3.287  17.260  0.4540  0.2285 -0.0028
13150TIP3    H160941   3.457   3.210  17.308 -0.6814  0.1868 -0.7831
13150TIP3    H260942   3.556   3.324  17.316 -0.2306 -0.3216  1.2132
13151TIP3   OH260943   0.891   4.735   5.599  0.0170  0.5178 -0.7801
13151TIP3    H160944   0.954   4.666   5.581  0.5638  0.5050  1.0215
13151TIP3    H260945   0.937   4.816   5.576  0.0656  0.4096 -1.0704
13152TIP3   OH260946   2.815   6.091   1.101 -0.3137  0.3277 -0.1162
13152TIP3    H160947   2.746   6.105   1.167 -1.1029 -0.1047 -0.8358
13152TIP3    H260948   2.770   6.103   1.017  0.6769  0.8384 -0.5852
13153TIP3   OH260949   0.902   6.470   1.718 -0.2122 -0.7699  0.5487
13153TIP3    H160950   0.922   6.459   1.811  1.3411  1.9970  0.6397
13153TIP3    H260951   0.867   6.558   1.710 -0.0452 -0.8231 -1.5258
13154TIP3   OH260952   4.829   6.336   4.951 -0.1127  0.1253 -0.2859
13154TIP3    H160953   4.797   6.339   5.041 -0.4995  2.1138 -0.4445
13154TIP3    H260954   4.861   6.247   4.940  0.2916 -0.0617  1.9388
13155TIP3   OH260955   0.022   2.010  11.009  0.8682  0.1180  0.2234
13155TIP3    H160956   0.097   2.070  11.012 -0.4614  1.8135  0.9930
13155TIP3    H260957   0.020   1.971  11.096  0.4743  0.6048  0.4407
13156TIP3   OH260958   3.479   3.576   5.697 -0.0233 -0.4531 -0.2008
13156TIP3    H160959   3.424   3.650   5.722  1.3268  0.1281  1.1690
13156TIP3    H260960   3.418   3.502   5.690 -1.1756  0.4658 -0.1327
13157TIP3   OH260961   4.339   1.806   0.886 -0.4013  0.2204  0.7680
13157TIP3    H160962   4.336   1.831   0.978 -1.4564 -0.3885  0.9103
13157TIP3    H260963   4.284   1.728   0.880  0.4163 -0.3072 -0.2106
13158TIP3   OH260964   0.756   5.680  14.367 -0.4264  0.4838 -0.2799
13158TIP3    H160965   0.764   5.712  14.457 -1.1694  1.2709 -0.4723
13158TIP3    H260966   0.841   5.698  14.327  0.1557 -0.5421  0.4538
13159TIP3   OH260967   2.557   1.810   4.205  0.0356  0.1331  0.1801
13159TIP3    H160968   2.613   1.807   4.283  0.1283  0.3808  0.1226
13159TIP3    H260969   2.559   1.901   4.177 -2.7919  0.8892  1.9512
13160TIP3   OH260970   6.063   1.986  15.260 -0.7134  0.2698 -0.5480
13160TIP3    H160971   6.078   1.993  15.166  0.8110  3.0541 -0.2283
13160TIP3    H260972   6.081   2.074  15.294  0.2111 -0.9590  2.5491
13161TIP3   OH260973   1.261   4.770   3.197  0.3137 -0.6771  0.3619
13161TIP3    H160974   1.225   4.764   3.286 -0.6090 -1.6139 -0.0499
13161TIP3    H260975   1.344   4.723   3.201  0.5410 -0.2432  0.8496
13162TIP3   OH260976   2.929   1.289   1.140 -0.2879 -0.1638  0.1811
13162TIP3    H160977   2.872   1.280   1.216 -0.4507 -0.9558 -0.0222
13162TIP3    H260978   2.875   1.335   1.075 -0.9137 -1.3997 -0.2065
13163TIP3   OH260979   2.202   5.756   4.347 -0.1098 -0.2380  0.5441
13163TIP3    H160980   2.118   5.734   4.307  0.5049  0.6400 -1.3452
13163TIP3    H260981   2.248   5.807   4.280  1.5819  0.0607  1.8614
13164TIP3   OH260982   5.349   2.788  12.338 -0.2409  0.3657 -0.0013
13164TIP3    H160983   5.402   2.785  12.417 -0.4674  0.6834  0.1620
13164TIP3    H260984   5.258   2.785  12.369 -0.3435 -2.2669 -0.3525
13165TIP3   OH260985   3.966   5.719  11.374  0.3462  0.1424  0.4256
13165TIP3    H160986   3.980   5.765  11.457  0.0476 -0.3367  0.7401
13165TIP3    H260987   3.957   5.627  11.398 -0.2040  0.0557 -0.0929
13166TIP3   OH260988   4.449   6.103  13.931 -0.0545  0.0959  0.0522
13166TIP3    H160989   4.377   6.068  13.983 -0.3443 -1.5162 -1.3603
13166TIP3    H260990   4.410   6.174  13.880 -0.6256 -0.6426 -0.5630
13167TIP3   OH260991   1.066   1.103   2.917  0.2669  0.2122  0.0528
13167TIP3    H160992   1.107   1.020   2.941  0.0627 -0.6257 -2.2020
13167TIP3    H260993   1.116   1.133   2.841 -1.5039  0.6059 -1.0225
13168TIP3   OH260994   5.554   5.219   6.264 -0.1890  0.0265 -0.3826
13168TIP3    H160995   5.641   5.188   6.239 -0.8387 -0.5373 -2.0819
13168TIP3    H260996   5.518   5.256   6.184 -0.7872  2.0925  0.7580
13169TIP3   OH260997   5.236   6.483   5.476 -0.6277  0.5978 -0.0208
13169TIP3    H160998   5.191   6.563   5.504 -1.1222  0.3655 -0.1547
13169TIP3    H260999   5.215   6.474   5.383 -1.9267 -0.5582  0.3457
13170TIP3   OH261000   5.297   5.936   1.110  0.8342  0.3248  0.0911
13170TIP3    H161001   5.341   6.002   1.164  2.5655 -0.2697 -0.5118
13170TIP3    H261002   5.344   5.939   1.026 -0.0029 -0.6762 -0.4375
13171TIP3   OH261003   1.937   6.633   1.479 -1.0627 -0.0123 -0.0720
13171TIP3    H161004   1.879   6.661   1.549 -1.5944 -0.9120 -0.1370
13171TIP3    H261005   2.023   6.668   1.503 -1.3820  0.2776  0.6638
13172TIP3   OH261006   0.207   6.412   4.126  0.6000  0.0583  0.0668
13172TIP3    H161007   0.274   6.355   4.089 -0.0870 -0.3212 -0.6373
13172TIP3    H261008   0.234   6.500   4.101  0.2615 -0.1768 -1.1960
13173TIP3   OH261009   6.200   4.931   3.687 -0.2334 -0.4485  0.4738
13173TIP3    H161010   6.182   4.909   3.778 -0.2118  0.2407  0.6468
13173TIP3    H261011   6.195   5.026   3.683 -1.8577 -0.5230 -0.5789
13174TIP3   OH261012   6.451   6.030  14.309  0.6315 -0.1411 -0.3824
13174TIP3    H161013   6.415   6.115  14.335  1.3525  0.3685 -1.0034
13174TIP3    H261014   6.544   6.036  14.331  0.8760 -0.3974 -1.3065
13175TIP3   OH261015   0.713   2.546  14.280  0.1729 -0.0759  0.3683
13175TIP3    H161016   0.701   2.456  14.309 -0.0795  0.0232  0.5786
13175TIP3    H261017   0.643   2.595  14.323 -0.9591 -0.1138 -1.3686
13176TIP3   OH261018   1.664   0.955   2.292  0.0245  0.0530  0.4001
13176TIP3    H161019   1.574   0.952   2.323 -1.0258  1.4772 -2.1858
13176TIP3    H261020   1.658   0.932   2.199  2.5849 -1.4430  0.5014
13177TIP3   OH261021   3.801   6.788   1.812 -0.2367  0.6368  0.5956
13177TIP3    H161022   3.884   6.833   1.794  0.1856 -0.3134  0.0851
13177TIP3    H261023   3.742   6.858   1.842  0.5578  1.4310  0.3652
13178TIP3   OH261024   4.191   1.054  14.145  0.1311 -0.7990 -0.5634
13178TIP3    H161025   4.098   1.075  14.142  0.0377 -1.1551 -0.2630
13178TIP3    H261026   4.235   1.139  14.140 -0.2150 -0.6113 -0.4390
13179TIP3   OH261027   5.924   3.036   4.140 -0.1890  0.1212 -0.8580
13179TIP3    H161028   5.960   2.951   4.114  0.5774  0.4973 -1.0635
13179TIP3    H261029   5.893   3.075   4.058 -0.1678  0.2037 -0.8270
13180TIP3   OH261030   2.881   0.400   0.640  0.2214  0.5787 -0.5816
13180TIP3    H161031   2.861   0.482   0.595  1.5415  0.2379 -1.8518
13180TIP3    H261032   2.929   0.348   0.575  1.3818 -0.2990  0.9173
13181TIP3   OH261033   6.440   6.386   1.524  0.5202 -0.1048  0.2447
13181TIP3    H161034   6.460   6.388   1.617  0.1782  0.9440  0.3049
13181TIP3    H261035   6.345   6.376   1.520  0.5719 -0.5483 -0.0031
13182TIP3   OH261036   3.302   1.643   4.244 -0.0504  0.2671  0.1129
13182TIP3    H161037   3.358   1.720   4.242 -0.2069  0.3682 -0.8535
13182TIP3    H261038   3.215   1.675   4.220  0.0828 -0.3516 -1.2673
13183TIP3   OH261039   6.178   5.677   2.553  0.7661  0.0756  0.0554
13183TIP3    H161040   6.095   5.629   2.564 -0.2213  1.4433 -1.0214
13183TIP3    H261041   6.193   5.676   2.458  0.4536  2.2623 -0.0602
13184TIP3   OH261042   3.972   4.084   3.314 -0.1568 -0.3244  0.8649
13184TIP3    H161043   3.958   4.062   3.406  1.7611 -0.2342  1.2242
13184TIP3    H261044   4.066   4.102   3.308 -0.4361  0.7639 -0.8857
13185TIP3   OH261045   5.311   3.256  14.336 -0.0406  0.5385  0.0138
13185TIP3    H161046   5.240   3.313  14.308 -1.1677 -0.3424  0.9655
13185TIP3    H261047   5.313   3.265  14.432  0.6379 -0.0310  0.0656
13186TIP3   OH261048   1.981   4.053  15.975 -0.1890  0.3340 -0.0309
13186TIP3    H161049   1.890   4.062  15.945 -0.0712  1.5655 -0.0613
13186TIP3    H261050   2.029   4.119  15.926  0.9532 -1.0420 -0.8436
13187TIP3   OH261051   5.810   1.677   6.149 -0.2383 -0.3547 -0.1242
13187TIP3    H161052   5.733   1.731   6.165 -0.3700 -0.6576  0.2648
13187TIP3    H261053   5.879   1.740   6.126 -0.6058 -0.0854 -0.5100
13188TIP3   OH261054   6.132   0.805   5.891  0.7412  0.1978 -0.6288
13188TIP3    H161055   6.182   0.884   5.906 -1.7286  1.6100  0.9364
13188TIP3    H261056   6.142   0.787   5.797  0.0765  3.3421 -1.4093
13189TIP3   OH261057   1.025   0.395  17.045 -0.0092 -0.2553  0.4541
13189TIP3    H161058   1.116   0.397  17.073 -0.1941  1.1538  1.1044
13189TIP3    H261059   1.027   0.425  16.955  0.2854 -1.6090 -0.0075
13190TIP3   OH261060   2.600   1.955  15.265  0.8825  0.6915  0.8795
13190TIP3    H161061   2.536   1.922  15.202  1.4947  1.0953  0.0392
13190TIP3    H261062   2.570   2.043  15.286  0.9624  0.7446  0.7690
13191TIP3   OH261063   1.145   3.621   6.274 -0.2672 -0.4615  0.2718
13191TIP3    H161064   1.100   3.600   6.356  2.1403  1.4288  2.2453
13191TIP3    H261065   1.223   3.566   6.274  0.2128  0.1945 -0.2706
13192TIP3   OH261066   3.669   0.971   2.767 -0.0897 -0.5573  0.3365
13192TIP3    H161067   3.737   0.935   2.710  0.7255  0.1781  0.8054
13192TIP3    H261068   3.713   0.985   2.850 -1.2440 -1.5472  1.1493
13193TIP3   OH261069   3.873   4.079   2.460 -0.8311 -0.0662  0.3616
13193TIP3    H161070   3.947   4.046   2.511 -0.4978 -1.4619 -0.9350
13193TIP3    H261071   3.913   4.128   2.388 -1.2502  0.8733  0.7575
13194TIP3   OH261072   5.425   1.915  15.786  0.9180  0.3054 -0.5054
13194TIP3    H161073   5.409   1.977  15.857  2.4675 -0.6943  0.7987
13194TIP3    H261074   5.404   1.830  15.824 -2.9767 -0.0045 -2.7970
13195TIP3   OH261075   3.828   6.699   0.768 -0.4318  0.0768 -0.0454
13195TIP3    H161076   3.890   6.698   0.841  1.3980  1.0052 -1.5138
13195TIP3    H261077   3.830   6.609   0.734 -0.8751 -0.2176  0.6783
13196TIP3   OH261078   6.121   0.325  13.005  0.1541  0.3287  0.2318
13196TIP3    H161079   6.093   0.403  12.957  3.2195  0.8358 -0.9906
13196TIP3    H261080   6.139   0.355  13.094  0.2280  0.7939  0.0613
13197TIP3   OH261081   1.470   5.427  12.879  0.2701  0.9146  0.6701
13197TIP3    H161082   1.480   5.482  12.801 -0.6199  1.0890  0.6678
13197TIP3    H261083   1.417   5.479  12.939 -0.4555  0.1325  0.7311
13198TIP3   OH261084   6.608   3.843   5.733  0.3303  0.1754 -0.4826
13198TIP3    H161085   6.691   3.875   5.698  0.1060  1.6019  0.2180
13198TIP3    H261086   6.632   3.773   5.793  0.9387 -0.1589 -1.1077
13199TIP3   OH261087   6.530   0.177   1.134 -0.3040 -0.7251  0.1212
13199TIP3    H161088   6.513   0.105   1.074  0.4437  0.2354 -1.3069
13199TIP3    H261089   6.610   0.151   1.180  0.4983 -0.4306 -1.0598
13200TIP3   OH261090   4.589   2.967  13.479 -0.2372 -0.1573 -0.3045
13200TIP3    H161091   4.643   3.034  13.520  1.2394 -1.2720 -0.3679
13200TIP3    H261092   4.621   2.885  13.515 -1.9795 -0.8640 -0.2647
13201TIP3   OH261093   3.961   1.804  13.156  0.3038 -0.1808 -0.3106
13201TIP3    H161094   4.012   1.818  13.077  0.8485  1.0756  0.2529
13201TIP3    H261095   3.887   1.864  13.148 -0.6115 -1.3033 -0.6675
13202TIP3   OH261096   1.845   4.064   5.024 -0.2966 -0.0448 -0.5005
13202TIP3    H161097   1.856   4.123   5.099  0.3870 -0.9805  0.1644
13202TIP3    H261098   1.868   3.978   5.059 -2.2825 -0.8969 -1.1486
13203TIP3   OH261099   2.160   3.521   4.773  0.3426  0.3311 -0.1092
13203TIP3    H161100   2.208   3.584   4.826  0.2267  0.8754 -0.6417
13203TIP3    H261101   2.211   3.440   4.780  0.3306  0.3975  0.8156
13204TIP3   OH261102   1.921   4.539   4.755  0.0306  0.2037 -0.2423
13204TIP3    H161103   1.959   4.537   4.668  0.8678  2.0995  0.0333
13204TIP3    H261104   1.978   4.485   4.809  0.6540  0.6373 -0.4645
13205TIP3   OH261105   2.529   3.553  12.866 -0.0229  0.6316  0.2695
13205TIP3    H161106   2.581   3.538  12.945 -1.4000  0.6420  1.2146
13205TIP3    H261107   2.565   3.633  12.829  2.4910 -0.8332 -0.7107
13206TIP3   OH261108   3.720   3.649  14.906  0.2263  0.0511  0.0163
13206TIP3    H161109   3.645   3.644  14.965  0.0895 -1.0471 -0.2259
13206TIP3    H261110   3.764   3.564  14.916  0.3711 -0.0474 -1.2223
13207TIP3   OH261111   6.382   1.493  12.370 -0.0167  0.2550 -0.4298
13207TIP3    H161112   6.466   1.460  12.340  0.3413  1.6654 -1.0544
13207TIP3    H261113   6.398   1.585  12.392 -1.4212  0.6127 -0.7515
13208TIP3   OH261114   4.756   6.102  12.239  0.3655  0.5411 -0.0089
13208TIP3    H161115   4.851   6.096  12.231  0.2338  0.0039 -1.6948
13208TIP3    H261116   4.733   6.038  12.305  1.1029 -0.0427 -0.3029
13209TIP3   OH261117   4.134   1.279  13.756  0.2929 -0.0145 -0.5419
13209TIP3    H161118   4.120   1.323  13.672 -0.4815  0.2092 -0.3059
13209TIP3    H261119   4.219   1.237  13.747 -0.5264 -1.4548 -2.0783
13210TIP3   OH261120   2.223   0.567   0.063  0.1177  0.3008  0.0146
13210TIP3    H161121   2.249   0.659   0.061 -0.0002  0.3258 -0.4420
13210TIP3    H261122   2.154   0.563   0.130  0.8803  0.3403  0.8135
13211TIP3   OH261123   3.370   2.534   3.742 -0.3498  0.4340  0.4797
13211TIP3    H161124   3.374   2.500   3.832 -1.1626  0.6017  0.5874
13211TIP3    H261125   3.283   2.573   3.735 -0.0620  0.9687 -0.1942
13212TIP3   OH261126   2.548   4.428  15.261  0.2685 -0.3800  0.5840
13212TIP3    H161127   2.607   4.352  15.256  1.0984  0.2139  0.9981
13212TIP3    H261128   2.534   4.441  15.355 -0.6946 -0.6225  0.4844
13213TIP3   OH261129   1.507   1.362   5.557 -0.1660 -0.0897  0.4193
13213TIP3    H161130   1.448   1.288   5.543 -1.7448  1.4111 -1.3808
13213TIP3    H261131   1.595   1.323   5.556 -0.9604 -1.9824 -0.0070
13214TIP3   OH261132   0.595   5.272   1.377  0.3109 -0.1935 -0.0086
13214TIP3    H161133   0.536   5.330   1.328  0.9198  0.6845  0.2895
13214TIP3    H261134   0.560   5.272   1.466  1.1921  0.9662  0.3639
13215TIP3   OH261135   2.859   0.988  15.275 -0.1618 -0.6587  0.0919
13215TIP3    H161136   2.863   1.023  15.186 -1.0408  1.0591  0.6825
13215TIP3    H261137   2.805   0.910  15.268 -2.6043  0.9695 -0.4965
13216TIP3   OH261138   6.443   4.168   2.403  0.0545 -0.1062 -0.3756
13216TIP3    H161139   6.495   4.111   2.458 -2.3481 -0.4819  1.6959
13216TIP3    H261140   6.379   4.208   2.462 -2.0797  0.2126 -2.6861
13217TIP3   OH261141   2.644   2.700  12.723 -0.2683 -0.2262 -0.1232
13217TIP3    H161142   2.648   2.790  12.755 -1.5708  0.7993 -2.6495
13217TIP3    H261143   2.618   2.649  12.800  0.9766  1.4049  1.4862
13218TIP3   OH261144   0.779   3.662  13.274  0.5266  0.5259  0.2123
13218TIP3    H161145   0.702   3.655  13.218 -1.5839 -1.2998  3.0565
13218TIP3    H261146   0.832   3.585  13.251  0.7851  0.9830 -0.7444
13219TIP3   OH261147   1.214   3.333   1.121  0.3987 -0.2226 -0.2954
13219TIP3    H161148   1.237   3.245   1.090  2.7977 -0.2643  1.2999
13219TIP3    H261149   1.298   3.380   1.123 -0.6557  1.7262  0.0188
13220TIP3   OH261150   6.127   5.859  14.081  0.0186 -0.3327 -0.1891
13220TIP3    H161151   6.110   5.855  14.175  0.2990  2.4583  0.0393
13220TIP3    H261152   6.222   5.861  14.074 -0.0099  0.5081 -0.4394
13221TIP3   OH261153   5.386   2.053   4.514 -0.0067 -0.0625  0.1420
13221TIP3    H161154   5.412   2.016   4.598 -0.2116  0.5970  0.5032
13221TIP3    H261155   5.308   2.106   4.534 -0.4004 -0.3627 -0.5614
13222TIP3   OH261156   4.275   4.711  12.269 -0.1582  0.7282 -0.4919
13222TIP3    H161157   4.320   4.639  12.314 -0.4165  1.2806  0.6624
13222TIP3    H261158   4.183   4.699  12.291 -0.2808  1.0471 -0.8223
13223TIP3   OH261159   3.549   2.767  11.327 -0.6090  0.2497  0.6502
13223TIP3    H161160   3.566   2.744  11.235  1.2459  2.3140  0.3929
13223TIP3    H261161   3.575   2.859  11.334 -2.8514  0.8324  2.7573
13224TIP3   OH261162   6.724   4.204   4.868  0.3546 -0.3129 -0.4627
13224TIP3    H161163   6.709   4.131   4.928  1.6054 -0.6984 -0.6007
13224TIP3    H261164   6.819   4.205   4.854  0.3702  1.3699 -0.4206
13225TIP3   OH261165   5.641   3.823  11.197 -0.0929  0.0339 -0.2375
13225TIP3    H161166   5.719   3.828  11.142  0.3858  0.0281  0.4320
13225TIP3    H261167   5.569   3.810  11.135  0.6886 -2.5200 -0.7304
13226TIP3   OH261168   0.576   0.688  16.188 -0.6121 -0.0287 -0.0647
13226TIP3    H161169   0.521   0.668  16.112 -3.3018  1.8515  1.2051
13226TIP3    H261170   0.559   0.616  16.250 -3.2478  1.3391  0.9992
13227TIP3   OH261171   4.974   1.168  14.023 -0.6563  0.4871 -0.1338
13227TIP3    H161172   4.983   1.167  13.927  1.2666  1.8036 -0.0202
13227TIP3    H261173   4.918   1.092  14.042  2.0124 -2.2086 -2.0331
13228TIP3   OH261174   5.769   0.313  13.134 -0.4142  0.4311 -0.4536
13228TIP3    H161175   5.704   0.319  13.204  0.1313  3.4169 -0.0658
13228TIP3    H261176   5.850   0.289  13.179 -0.5970 -0.2819 -0.4897
13229TIP3   OH261177   5.354   2.295  14.352  0.6215 -0.0459  0.0862
13229TIP3    H161178   5.332   2.244  14.275  1.7715  0.6776 -0.7632
13229TIP3    H261179   5.312   2.380  14.338  0.7883  0.0695  0.2694
13230TIP3   OH261180   2.158   3.641  14.561  0.2285  0.7630  0.2966
13230TIP3    H161181   2.132   3.732  14.574  0.9716  1.0301 -0.0331
13230TIP3    H261182   2.254   3.642  14.567  0.3868  0.3104 -1.4249
13231TIP3   OH261183   5.071   4.603   5.924 -0.2142 -0.3391 -0.2154
13231TIP3    H161184   5.055   4.556   6.006 -0.9717  0.8366  0.3532
13231TIP3    H261185   4.984   4.626   5.892  0.1091  2.0024  0.3720
13232TIP3   OH261186   3.892   0.395   3.721 -0.1734 -0.8312  0.1658
13232TIP3    H161187   3.807   0.385   3.679 -0.2589 -1.2995  0.4413
13232TIP3    H261188   3.886   0.343   3.801 -0.3301  0.7705  1.2408
13233TIP3   OH261189   2.554   2.167  11.123  0.2714  0.0917  0.1309
13233TIP3    H161190   2.603   2.108  11.179  0.8260 -0.6108 -1.0437
13233TIP3    H261191   2.618   2.197  11.058 -0.4029  0.6763 -0.2754
13234TIP3   OH261192   0.284   4.053  12.988  0.4376 -0.2012  0.0622
13234TIP3    H161193   0.358   4.039  12.929 -1.9154 -1.0473 -2.9282
13234TIP3    H261194   0.233   3.972  12.983 -0.3432  0.0389  2.6502
13235TIP3   OH261195   2.042   5.466   4.706  0.3580  0.1157  0.1112
13235TIP3    H161196   2.127   5.466   4.749  1.6552 -0.7811 -2.2659
13235TIP3    H261197   1.993   5.397   4.751  0.5066  1.2016  2.0602
13236TIP3   OH261198   4.279   5.727  13.041 -0.5916  0.4562 -0.6541
13236TIP3    H161199   4.238   5.728  13.127  0.0529 -0.6780 -0.3146
13236TIP3    H261200   4.291   5.819  13.019 -0.0846  0.7697  0.8075
13237TIP3   OH261201   0.318   6.743   1.574  0.1603 -0.1540  0.0196
13237TIP3    H161202   0.223   6.748   1.574  0.2086  0.7806 -0.2010
13237TIP3    H261203   0.342   6.729   1.483  0.2075 -1.1722  0.1728
13238TIP3   OH261204   0.825   2.593   4.220 -0.3632  0.4476 -0.1411
13238TIP3    H161205   0.880   2.650   4.274 -0.6858  0.4711  0.1682
13238TIP3    H261206   0.855   2.608   4.130  1.2378 -0.7345  0.1476
13239TIP3   OH261207   1.328   2.164   4.846  0.2277  0.2153 -0.0914
13239TIP3    H161208   1.379   2.186   4.923  0.8732  0.2287 -0.5182
13239TIP3    H261209   1.248   2.217   4.855  0.6255  0.7825  0.1914
13240TIP3   OH261210   4.260   4.223   6.279 -0.3056  0.7007  0.1279
13240TIP3    H161211   4.238   4.310   6.313  0.3850  1.0554 -0.2973
13240TIP3    H261212   4.213   4.162   6.336 -1.4178  1.3730 -0.0533
13241TIP3   OH261213   4.725   4.276   3.521 -0.5150 -0.9186  0.2601
13241TIP3    H161214   4.722   4.264   3.616 -0.8533 -3.6620 -0.0115
13241TIP3    H261215   4.633   4.286   3.495 -0.4721 -0.8157  0.1421
13242TIP3   OH261216   4.959   2.212  15.414 -0.1356  0.2352  0.3011
13242TIP3    H161217   5.041   2.170  15.389  0.0686 -0.0845  1.4653
13242TIP3    H261218   4.896   2.182  15.348  0.6986  0.6110 -0.6933
13243TIP3   OH261219   3.068   0.337  14.413  0.2110 -0.3353  0.1374
13243TIP3    H161220   3.050   0.278  14.487  3.0287 -0.8546  0.5211
13243TIP3    H261221   3.160   0.361  14.423  0.4698  0.2477 -2.7512
13244TIP3   OH261222   0.933   4.074  13.168  0.2647  0.0890  0.3469
13244TIP3    H161223   0.855   4.128  13.181  0.5584  0.4732  0.5374
13244TIP3    H261224   0.921   3.999  13.226 -0.3790 -0.3053 -0.2874
13245TIP3   OH261225   6.062   3.424   0.277  0.6140  0.5425  0.1815
13245TIP3    H161226   6.019   3.509   0.288 -0.8766  0.1802 -2.1258
13245TIP3    H261227   6.010   3.379   0.210  2.9631 -1.0993 -0.6742
13246TIP3   OH261228   3.930   3.805   3.273 -0.4396 -0.7103 -0.5360
13246TIP3    H161229   3.864   3.834   3.336  0.8300 -0.4971  0.7426
13246TIP3    H261230   3.984   3.882   3.257  0.9518 -1.4619  0.3269
13247TIP3   OH261231   2.771   2.688   5.073  0.0263  0.8615 -0.0068
13247TIP3    H161232   2.817   2.766   5.105  0.5266 -0.3925  2.6319
13247TIP3    H261233   2.679   2.705   5.092  0.0744  1.0315  0.0777
13248TIP3   OH261234   2.359   5.085   0.041 -0.3512  0.3758  0.4169
13248TIP3    H161235   2.317   5.051  -0.039  0.2301 -1.2326  0.7625
13248TIP3    H261236   2.382   5.175   0.019 -1.0721  0.2704 -0.8948
13249TIP3   OH261237   4.648   5.572  13.762  0.1425  0.4556  0.5316
13249TIP3    H161238   4.653   5.504  13.829 -1.9383  1.0089  1.3241
13249TIP3    H261239   4.642   5.654  13.811  0.2290  1.0197 -0.3680
13250TIP3   OH261240   6.512   6.487   3.025  0.0457  0.4492 -0.1389
13250TIP3    H161241   6.551   6.404   2.998 -0.5089  0.0510  0.2598
13250TIP3    H261242   6.542   6.550   2.960 -2.1309 -0.6836 -2.3749
13251TIP3   OH261243   1.793   5.374  14.786 -0.4111  0.2138 -0.4948
13251TIP3    H161244   1.870   5.323  14.762 -0.8678 -1.0884  0.7102
13251TIP3    H261245   1.826   5.442  14.845 -0.2251 -0.6013  0.3611
13252TIP3   OH261246   1.531   4.954   6.496 -0.9581 -0.2119  0.3298
13252TIP3    H161247   1.497   4.932   6.583 -0.7868 -1.3275  0.1306
13252TIP3    H261248   1.621   4.982   6.511 -0.1560 -2.5800  0.3264
13253TIP3   OH261249   1.512   0.227  11.210 -0.0768 -0.1755 -0.4185
13253TIP3    H161250   1.510   0.148  11.157  0.4742 -1.2365  1.0560
13253TIP3    H261251   1.420   0.251  11.221 -0.2434 -0.5258 -0.9886
13254TIP3   OH261252   0.381   1.115   3.320  0.3600  0.1344 -0.0402
13254TIP3    H161253   0.317   1.184   3.334  0.6945  0.6680 -1.0863
13254TIP3    H261254   0.425   1.138   3.238 -1.0034 -2.4163 -1.6263
13255TIP3   OH261255   4.611   0.541  15.269  0.7628 -0.1729  0.1315
13255TIP3    H161256   4.567   0.533  15.184 -0.2521  0.2787  0.5937
13255TIP3    H261257   4.681   0.475  15.267 -0.1670 -1.1726 -0.4956
13256TIP3   OH261258   3.058   1.135   5.982 -0.2465 -0.2015 -0.6124
13256TIP3    H161259   2.997   1.162   6.050 -0.6282 -1.7155 -0.3315
13256TIP3    H261260   3.143   1.166   6.013 -0.8929  2.7887 -1.4557
13257TIP3   OH261261   0.446   1.853   2.105  0.5435 -0.3007 -0.2078
13257TIP3    H161262   0.361   1.860   2.148  0.7221 -0.0544  0.1044
13257TIP3    H261263   0.429   1.881   2.015  0.3675  0.0758 -0.0591
13258TIP3   OH261264   1.910   5.780   6.349  0.5185  0.3382  0.0032
13258TIP3    H161265   1.953   5.746   6.427  0.0010  0.1917  0.2325
13258TIP3    H261266   1.823   5.739   6.350 -0.2079  1.8404  0.4024
13259TIP3   OH261267   6.803   0.440   4.380 -0.2305  0.1652  0.3657
13259TIP3    H161268   6.864   0.408   4.447 -0.7197 -0.5787  0.4654
13259TIP3    H261269   6.859   0.466   4.307  0.3727  1.6890  1.3291
13260TIP3   OH261270   0.670   5.795   4.303  0.1865 -0.4655  0.5958
13260TIP3    H161271   0.628   5.834   4.227  0.6526  1.2532  1.1822
13260TIP3    H261272   0.696   5.869   4.358 -0.1345 -1.6506  2.4459
13261TIP3   OH261273   4.415   4.860  14.207 -0.5528  0.4285  0.5057
13261TIP3    H161274   4.476   4.820  14.146 -1.4203  1.7548 -1.3402
13261TIP3    H261275   4.337   4.804  14.202 -0.6035  0.5050  0.4376
13262TIP3   OH261276   5.570   0.656  11.048 -0.1121  0.2353  1.0384
13262TIP3    H161277   5.552   0.658  11.142  0.0170  0.2924  1.0630
13262TIP3    H261278   5.628   0.581  11.037  2.5368  2.0814  1.4995
13263TIP3   OH261279   6.718   3.082   3.784  0.1099 -0.3232  0.2188
13263TIP3    H161280   6.702   3.018   3.716  1.1111 -1.9492  1.4364
13263TIP3    H261281   6.811   3.072   3.805  0.8673  2.9559 -0.9187
13264TIP3   OH261282   1.037   3.626  16.021  0.2090 -0.2660  0.0933
13264TIP3    H161283   1.012   3.631  15.928  1.1653  1.0701 -0.1208
13264TIP3    H261284   1.093   3.703  16.035  0.0861 -0.4470  1.7829
13265TIP3   OH261285   0.213   3.841   5.116  0.1286 -0.0916 -0.3095
13265TIP3    H161286   0.173   3.806   5.195 -1.5205  1.6360 -0.3125
13265TIP3    H261287   0.215   3.767   5.055 -2.7996 -0.4215 -0.1648
13266TIP3   OH261288   4.722   0.792  17.088 -0.1050  0.2495  0.4376
13266TIP3    H161289   4.663   0.779  17.013 -1.0729 -1.2540  1.3919
13266TIP3    H261290   4.803   0.747  17.062 -0.6627 -0.8449  0.5193
13267TIP3   OH261291   2.344   2.688   2.237 -0.0759 -0.3869  0.1663
13267TIP3    H161292   2.431   2.726   2.250 -0.2279 -0.2858  0.9017
13267TIP3    H261293   2.296   2.711   2.316 -0.2975 -1.7761  0.4486
13268TIP3   OH261294   0.081   3.402  11.139  0.1948  0.6349  0.5169
13268TIP3    H161295   0.155   3.341  11.142 -1.1461 -1.1175 -0.2643
13268TIP3    H261296   0.076   3.429  11.048  1.3698  2.7894  1.0142
13269TIP3   OH261297   0.127   0.929   5.956 -0.0812  0.1434 -0.1879
13269TIP3    H161298   0.127   0.987   6.033 -3.8041 -0.3170  0.3180
13269TIP3    H261299   0.137   0.841   5.992  1.0735  0.0913 -0.5714
13270TIP3   OH261300   5.930   2.318   2.447  0.8769  0.4816  0.4733
13270TIP3    H161301   5.839   2.294   2.428  0.7041  0.5210  1.2254
13270TIP3    H261302   5.972   2.235   2.471  1.1461  0.3996 -0.2466
13271TIP3   OH261303   1.557   5.104   3.158  0.3245 -0.4989  0.4959
13271TIP3    H161304   1.572   5.016   3.123 -0.5192 -0.8118  0.9056
13271TIP3    H261305   1.568   5.162   3.082  0.8677 -0.9520  0.2211
13272TIP3   OH261306   3.741   5.966   3.324  0.2483  0.5813  0.4329
13272TIP3    H161307   3.762   5.873   3.323  3.0193  1.0035  3.2306
13272TIP3    H261308   3.752   5.995   3.233  1.0531 -1.4686 -0.1685
13273TIP3   OH261309   2.504   6.365   2.267  0.0643 -0.0070  0.5874
13273TIP3    H161310   2.444   6.340   2.196 -0.9119  0.5888  1.1668
13273TIP3    H261311   2.447   6.371   2.344  1.1169 -0.7248  1.4416
13274TIP3   OH261312   4.758   1.466  11.819  0.5282  0.4537  0.2076
13274TIP3    H161313   4.845   1.437  11.791  0.1956  1.0420 -1.6039
13274TIP3    H261314   4.702   1.447  11.743 -0.7383  0.9131  1.0100
13275TIP3   OH261315   1.111   4.516  13.172  0.1768  0.1123 -0.4586
13275TIP3    H161316   1.073   4.489  13.088  2.5102  0.5737 -1.7676
13275TIP3    H261317   1.142   4.605  13.156  0.2685  0.3737  1.0635
13276TIP3   OH261318   0.460   2.923  16.415 -0.9547 -0.5530  1.0122
13276TIP3    H161319   0.452   2.830  16.392 -1.0411 -0.4239  0.5064
13276TIP3    H261320   0.387   2.939  16.474 -1.8571 -0.4424 -0.1109
13277TIP3   OH261321   2.564   5.076  12.651 -0.6554 -0.0985  0.3986
13277TIP3    H161322   2.616   5.025  12.589 -1.1632 -1.5647  1.1421
13277TIP3    H261323   2.568   5.166  12.617 -0.3948 -0.7468 -1.4051
13278TIP3   OH261324   5.993   3.829  14.474 -0.1207  0.3625 -0.4600
13278TIP3    H161325   5.918   3.835  14.533 -0.8844 -0.0579 -1.3487
13278TIP3    H261326   6.042   3.753  14.505 -0.7595 -0.1261 -0.6230
13279TIP3   OH261327   6.754   5.398  15.414 -0.2363 -0.8050 -0.2941
13279TIP3    H161328   6.681   5.356  15.459 -1.1201 -0.5769 -1.4637
13279TIP3    H261329   6.779   5.336  15.346 -0.4971 -0.1356 -1.0149
13280TIP3   OH261330   5.304   3.830   2.020  0.2060  0.0252 -0.1115
13280TIP3    H161331   5.344   3.917   2.019  0.1379  0.0827 -2.0859
13280TIP3    H261332   5.377   3.770   2.036  0.8972  0.2326 -2.2073
13281TIP3   OH261333   5.739   6.447   1.015 -0.2457  0.3922  0.1833
13281TIP3    H161334   5.790   6.511   1.064 -1.1920  1.6475 -0.4146
13281TIP3    H261335   5.665   6.427   1.071 -0.4111  0.4989  0.0045
13282TIP3   OH261336   0.154   5.680   6.106  0.6495  0.1370  0.3254
13282TIP3    H161337   0.101   5.625   6.049 -0.5253  1.8300 -0.2831
13282TIP3    H261338   0.192   5.619   6.170 -0.9980 -1.2971 -0.0018
13283TIP3   OH261339   0.184   3.691  12.267  0.0923  0.7267 -0.3449
13283TIP3    H161340   0.246   3.745  12.317 -0.7152  0.2821  1.2124
13283TIP3    H261341   0.098   3.718  12.299 -0.3495 -1.2901  0.3115
13284TIP3   OH261342   2.307   0.466  12.848  0.1815  0.6298  0.1681
13284TIP3    H161343   2.400   0.479  12.866  1.0726 -1.8976 -2.0679
13284TIP3    H261344   2.302   0.454  12.753 -1.7703 -3.2866  0.5757
13285TIP3   OH261345   1.465   1.646   0.410  0.0738 -0.3097 -0.4445
13285TIP3    H161346   1.510   1.580   0.462  0.6192 -0.1949 -0.7635
13285TIP3    H261347   1.526   1.667   0.340 -1.9763 -3.0579 -3.2999
13286TIP3   OH261348   6.806   0.499   5.438  0.0808 -0.5253  0.0434
13286TIP3    H161349   6.885   0.448   5.424  0.4062  0.5058 -2.2397
13286TIP3    H261350   6.829   0.558   5.510  1.5114 -0.0390 -0.7808
13287TIP3   OH261351   2.369   4.069  16.161  0.0465 -1.0424  0.3618
13287TIP3    H161352   2.281   4.033  16.167 -0.2256 -0.4068  0.3156
13287TIP3    H261353   2.363   4.155  16.204  0.2912 -0.3969 -0.8284
13288TIP3   OH261354   3.165   1.049   0.456  0.8997 -0.3789 -0.0269
13288TIP3    H161355   3.188   1.035   0.365  0.3369 -2.7520  0.1199
13288TIP3    H261356   3.166   1.144   0.467  0.0565  0.0232 -2.7239
13289TIP3   OH261357   2.988   6.798   4.198  0.1899 -0.2806 -0.1005
13289TIP3    H161358   2.994   6.804   4.293 -0.1532 -0.5511 -0.0615
13289TIP3    H261359   3.021   6.883   4.167  0.0090 -0.0733  0.2691
13290TIP3   OH261360   0.816   4.791   2.684 -0.4817  0.0426 -0.1857
13290TIP3    H161361   0.905   4.816   2.709 -0.5470 -0.3364  0.4647
13290TIP3    H261362   0.804   4.826   2.596 -0.5841  2.3081  0.6752
13291TIP3   OH261363   4.292   4.512  16.316  0.2397  0.2219 -0.3269
13291TIP3    H161364   4.319   4.515  16.408 -1.1189  1.6620  0.0937
13291TIP3    H261365   4.273   4.420  16.299  1.5343 -0.2221  0.5045
13292TIP3   OH261366   6.069   1.895  12.297 -0.2422 -0.8046 -0.5036
13292TIP3    H161367   5.986   1.858  12.266 -0.9008 -0.2654  0.5609
13292TIP3    H261368   6.090   1.964  12.234 -0.7568 -0.7522 -0.6196
13293TIP3   OH261369   6.217   3.960   1.939  0.3336 -0.9571  0.0126
13293TIP3    H161370   6.246   4.014   1.866  0.8582 -0.6551  0.4381
13293TIP3    H261371   6.296   3.942   1.989  0.1235 -1.9080  0.0234
13294TIP3   OH261372   5.342   3.960  14.480  0.1325  0.2838 -0.1411
13294TIP3    H161373   5.271   4.022  14.498 -1.0275 -0.8776 -0.4963
13294TIP3    H261374   5.379   3.940  14.566 -0.2755  0.5691  0.1057
13295TIP3   OH261375   2.927   1.306   0.145  0.0541 -0.5690 -0.0407
13295TIP3    H161376   2.884   1.326   0.062 -0.0928  0.9143  0.3735
13295TIP3    H261377   2.858   1.313   0.211  0.3513 -0.8760  0.3062
13296TIP3   OH261378   1.475   5.016  16.091  0.2972 -0.2274 -0.2455
13296TIP3    H161379   1.505   5.107  16.092  2.2439 -0.7844 -1.3514
13296TIP3    H261380   1.553   4.966  16.067 -0.7110 -2.2053  0.3789
13297TIP3   OH261381   2.543   2.748   4.786  0.0882  0.6571  0.0014
13297TIP3    H161382   2.514   2.659   4.806  0.6987  0.6654  1.0313
13297TIP3    H261383   2.476   2.783   4.729 -1.1176  0.1481  1.0559
13298TIP3   OH261384   3.463   2.363  13.683 -0.4318  0.5927  0.6121
13298TIP3    H161385   3.416   2.295  13.731  0.5806  0.0094  0.8083
13298TIP3    H261386   3.397   2.432  13.668 -1.1353  0.1476  1.5446
13299TIP3   OH261387   1.259   1.792   5.056 -0.1101 -0.2032 -0.1025
13299TIP3    H161388   1.343   1.824   5.023 -0.3823 -0.4044 -1.0190
13299TIP3    H261389   1.221   1.743   4.983 -0.9180 -0.3302  0.3826
13300TIP3   OH261390   0.524   4.503   3.902 -0.3347 -0.2671  0.9032
13300TIP3    H161391   0.583   4.471   3.970  1.4937 -1.2305 -1.0302
13300TIP3    H261392   0.499   4.425   3.853  0.3566  0.6458 -0.9850
13301TIP3   OH261393   0.264   4.818   3.423  0.6046  0.9634  0.0961
13301TIP3    H161394   0.262   4.756   3.350  0.5250 -1.4433  1.9957
13301TIP3    H261395   0.343   4.795   3.472 -0.3179  1.2134  1.7722
13302TIP3   OH261396   0.017   0.921   0.625  0.3712 -0.0933  0.3237
13302TIP3    H161397   0.103   0.883   0.608  1.1278  0.9064  1.6989
13302TIP3    H261398  -0.044   0.848   0.620  1.4942 -1.0750  0.6978
13303TIP3   OH261399   6.069   4.244   2.411  0.2974  0.1071 -1.1787
13303TIP3    H161400   6.125   4.322   2.402  0.7999 -0.3056 -1.6986
13303TIP3    H261401   6.074   4.202   2.325 -2.1284  0.9246 -1.8093
13304TIP3   OH261402   5.356   6.565  14.789 -0.3289 -0.1320  0.3793
13304TIP3    H161403   5.376   6.581  14.697 -1.9000 -1.0992 -0.1726
13304TIP3    H261404   5.442   6.551  14.831  0.3521 -0.6281 -1.1236
13305TIP3   OH261405   6.377   6.031   4.946  0.1901 -0.1751 -0.1778
13305TIP3    H161406   6.396   6.064   4.858 -1.5284  0.6093 -0.2977
13305TIP3    H261407   6.381   5.936   4.937  1.4390 -0.0902 -0.7448
13306TIP3   OH261408   5.246   4.406   5.874 -0.1434 -0.2700  0.1317
13306TIP3    H161409   5.201   4.485   5.903  1.6142  1.3198 -1.2225
13306TIP3    H261410   5.308   4.386   5.944  0.7835  0.7621 -0.3610
13307TIP3   OH261411   6.021   0.498  15.612  0.3899  0.9188 -0.2568
13307TIP3    H161412   6.094   0.551  15.646 -0.5688  1.4351  1.0537
13307TIP3    H261413   6.056   0.409  15.607  0.9411  1.0543  0.9329
13308TIP3   OH261414   4.890   1.500   4.579  0.6307  0.4019 -0.6347
13308TIP3    H161415   4.979   1.515   4.547  0.4341  3.7475  0.0168
13308TIP3    H261416   4.848   1.587   4.574 -1.7651 -0.5180  1.5285
13309TIP3   OH261417   3.037   0.741  10.524  0.3237 -0.1711  0.7083
13309TIP3    H161418   2.967   0.804  10.506  0.5717 -0.0058  0.2841
13309TIP3    H261419   2.992   0.659  10.541  0.0110  0.0198  0.8126
13310TIP3   OH261420   4.512   6.001  14.851 -0.2123 -0.0599  0.1609
13310TIP3    H161421   4.590   6.056  14.864  0.2086 -0.1781 -1.6061
13310TIP3    H261422   4.439   6.059  14.871  0.2949  0.3379  0.9350
13311TIP3   OH261423   6.533   1.196  16.319 -0.2839 -0.0971 -0.4973
13311TIP3    H161424   6.506   1.118  16.368  1.5257 -0.6139 -0.2733
13311TIP3    H261425   6.604   1.234  16.370  0.5664  0.2614 -1.8793
13312TIP3   OH261426   1.358   0.571   1.474 -0.4634  0.0468 -0.3002
13312TIP3    H161427   1.367   0.632   1.400  1.9917  0.2112  0.0239
13312TIP3    H261428   1.396   0.619   1.548  0.0242 -1.2579  0.3232
13313TIP3   OH261429   3.955   0.207   4.836  0.3520  0.3265 -0.3087
13313TIP3    H161430   3.928   0.287   4.880 -0.5911  0.2536 -0.7342
13313TIP3    H261431   3.993   0.236   4.753 -0.5447  0.3129 -0.7344
13314TIP3   OH261432   4.638   4.560   0.781  0.0816  0.1082 -0.2058
13314TIP3    H161433   4.661   4.544   0.690  0.3864  0.8006 -0.2576
13314TIP3    H261434   4.693   4.498   0.830  0.7714  0.5251 -0.4335
13315TIP3   OH261435   1.801   0.889  12.518  0.4473  1.0599 -0.5538
13315TIP3    H161436   1.892   0.911  12.540  1.0623 -2.6280  1.3281
13315TIP3    H261437   1.751   0.915  12.595  0.4411  0.1223 -0.2407
13316TIP3   OH261438   5.020   0.009  15.379  0.1932  0.1294 -0.7901
13316TIP3    H161439   4.982  -0.074  15.408  0.4621  0.1187 -0.4577
13316TIP3    H261440   5.074  -0.014  15.303  0.1838  0.0181 -0.7629
13317TIP3   OH261441   2.927   5.020  12.806  0.3065  0.1724 -0.5244
13317TIP3    H161442   2.912   4.947  12.747  0.0722  0.8997 -1.3984
13317TIP3    H261443   3.011   5.002  12.847 -0.5370 -1.4425  0.5902
13318TIP3   OH261444   6.685   0.917  16.547  0.2603  0.2501  0.4374
13318TIP3    H161445   6.658   0.863  16.621  1.9755 -0.9046  0.2757
13318TIP3    H261446   6.641   1.001  16.561 -3.0844 -1.3190  0.3149
13319TIP3   OH261447   6.220   0.911  16.271  0.5250  0.3829  0.1985
13319TIP3    H161448   6.278   0.849  16.227  0.8996 -0.2089  1.4839
13319TIP3    H261449   6.160   0.857  16.322  0.8685  1.0602  1.3624
13320TIP3   OH261450   0.172   6.644   0.595 -0.7190 -0.1611 -0.0599
13320TIP3    H161451   0.191   6.656   0.502  0.6321 -1.6281 -0.0123
13320TIP3    H261452   0.220   6.565   0.620 -1.3228  0.0007  1.8149
13321TIP3   OH261453   5.638   0.986   5.924 -0.1268  0.3596 -0.3177
13321TIP3    H161454   5.680   0.907   5.958  0.4720  0.0489 -1.7080
13321TIP3    H261455   5.701   1.021   5.861 -1.6377  0.3111 -1.9162
13322TIP3   OH261456   3.916   5.819   4.862  0.3264 -0.8506 -0.2624
13322TIP3    H161457   3.913   5.870   4.781  2.9725  0.6318  0.4469
13322TIP3    H261458   3.966   5.741   4.840  3.6347  0.8740  0.3944
13323TIP3   OH261459   4.786   2.454  16.362 -0.1028 -0.0201  0.4483
13323TIP3    H161460   4.815   2.542  16.337  1.0050 -0.9359 -1.8145
13323TIP3    H261461   4.770   2.460  16.456  1.3492  2.2258  0.6434
13324TIP3   OH261462   6.660   2.515  16.252  0.3613 -0.4369 -0.1982
13324TIP3    H161463   6.612   2.531  16.333 -1.1975 -0.1761 -1.1314
13324TIP3    H261464   6.682   2.602  16.219 -0.7760 -0.4351 -1.0342
13325TIP3   OH261465   0.733   4.513  13.644 -0.0357 -0.4185 -0.0274
13325TIP3    H161466   0.737   4.536  13.737 -0.3741 -1.1358  0.1704
13325TIP3    H261467   0.723   4.418  13.643 -0.0836 -0.4119 -0.7987
13326TIP3   OH261468   2.345   6.433  13.160 -0.3088  0.0508  0.2938
13326TIP3    H161469   2.275   6.401  13.103 -0.1468 -0.3526  0.3184
13326TIP3    H261470   2.364   6.360  13.219  1.6670 -0.6956 -1.1328
13327TIP3   OH261471   2.348   6.308  15.906  0.0705  0.4241 -0.0606
13327TIP3    H161472   2.418   6.268  15.957 -0.6556 -0.0573  0.5816
13327TIP3    H261473   2.284   6.336  15.971 -0.5896  0.3540 -0.6671
13328TIP3   OH261474   0.145   2.653   4.484 -0.0135 -0.3680 -0.4362
13328TIP3    H161475   0.214   2.677   4.422  0.6420 -0.6694  0.1532
13328TIP3    H261476   0.173   2.569   4.520 -1.8495 -1.6656 -1.8443
13329TIP3   OH261477   6.464   2.192   5.341  0.8042 -0.9464 -0.0872
13329TIP3    H161478   6.398   2.201   5.272  0.5099 -4.2371 -0.4095
13329TIP3    H261479   6.542   2.161   5.294  1.0066 -1.9223  0.8427
13330TIP3   OH261480   6.454   2.395  15.797  0.0332  0.0970 -0.9708
13330TIP3    H161481   6.368   2.430  15.819  0.4557 -0.5546  2.2694
13330TIP3    H261482   6.515   2.468  15.809  0.0451  0.4821 -2.9763
13331TIP3   OH261483   0.601   6.508   1.171  0.2194  0.1647  0.3737
13331TIP3    H161484   0.674   6.450   1.150  0.7793  0.2727  1.9107
13331TIP3    H261485   0.539   6.495   1.099  1.0650 -1.0767 -0.1731
13332TIP3   OH261486   1.218   1.132  12.596 -0.0671 -0.4251  0.0573
13332TIP3    H161487   1.124   1.116  12.588 -0.2921 -0.3334  1.9751
13332TIP3    H261488   1.251   1.057  12.646  0.8453 -0.3723 -0.4535
13333TIP3   OH261489   5.423   5.456   5.469 -0.9985 -0.3217  0.5079
13333TIP3    H161490   5.391   5.524   5.409 -1.9719 -0.5180  0.7772
13333TIP3    H261491   5.466   5.505   5.540  1.0549 -0.1221 -0.7927
13334TIP3   OH261492   5.301   5.378  14.496  0.3832  0.3678 -0.1229
13334TIP3    H161493   5.340   5.460  14.526 -0.6820  1.0667 -0.6185
13334TIP3    H261494   5.298   5.386  14.401 -0.3943  0.0708 -0.1283
13335TIP3   OH261495   0.222   5.883  11.593  0.1534 -0.1637  0.1419
13335TIP3    H161496   0.183   5.797  11.607  1.5254 -0.8644 -0.1621
13335TIP3    H261497   0.187   5.937  11.664 -0.6918 -0.9802  0.3610
13336TIP3   OH261498   5.329   5.643   1.137 -0.1363 -0.6913 -0.6289
13336TIP3    H161499   5.293   5.707   1.199 -0.7244 -1.7097  0.1139
13336TIP3    H261500   5.365   5.696   1.066  1.2605  0.5446  0.9289
13337TIP3   OH261501   3.897   4.233   4.026 -0.2578 -0.1309 -0.2867
13337TIP3    H161502   3.909   4.315   4.073  0.0574  0.0844 -0.7357
13337TIP3    H261503   3.962   4.174   4.065 -0.0163  0.0383 -0.4293
13338TIP3   OH261504   0.736   2.158   0.489  0.3961 -0.3248  0.0581
13338TIP3    H161505   0.675   2.136   0.559  1.5119 -2.8399  0.3485
13338TIP3    H261506   0.721   2.092   0.422  0.2519  1.2632 -1.5637
13339TIP3   OH261507   2.767   5.125   1.382  0.3556 -0.0296 -0.1552
13339TIP3    H161508   2.762   5.157   1.292 -0.7009 -1.8537 -0.7828
13339TIP3    H261509   2.678   5.135   1.416  0.5310 -0.2319  0.3767
13340TIP3   OH261510   3.514   0.527   5.587  0.2376 -0.5013 -0.1240
13340TIP3    H161511   3.493   0.611   5.547 -0.7996 -1.6181 -2.1252
13340TIP3    H261512   3.449   0.517   5.657  0.1795  0.2200 -0.0705
13341TIP3   OH261513   4.800   1.670  11.092  0.3224  0.2878 -0.0764
13341TIP3    H161514   4.885   1.662  11.050  0.3591 -1.2758  0.2568
13341TIP3    H261515   4.792   1.764  11.112  1.7572  0.5192 -0.4957
13342TIP3   OH261516   4.072   0.229   0.371 -0.2848  0.2303 -0.0698
13342TIP3    H161517   4.133   0.235   0.298 -1.2453  1.5051 -0.8184
13342TIP3    H261518   4.066   0.319   0.405 -1.1819 -0.0117  0.4521
13343TIP3   OH261519   5.810   6.107   0.748 -0.1178 -0.2647 -0.1160
13343TIP3    H161520   5.816   6.022   0.706 -0.0274 -0.0603 -0.5228
13343TIP3    H261521   5.779   6.166   0.679 -1.5549 -0.2326  0.5090
13344TIP3   OH261522   6.582   0.954  12.292 -0.0503  0.6251 -0.1273
13344TIP3    H161523   6.601   0.958  12.386  2.7754 -1.2633 -0.4695
13344TIP3    H261524   6.541   1.038  12.272  1.9996  2.3682  2.3008
13345TIP3   OH261525   3.096   4.435   1.569  0.1055 -0.6219  0.6127
13345TIP3    H161526   3.040   4.372   1.525 -1.9154  0.5619  1.3763
13345TIP3    H261527   3.132   4.489   1.499 -0.5169 -0.7721  0.1785
13346TIP3   OH261528   1.693   4.254   4.301  0.5488 -0.0417  0.2504
13346TIP3    H161529   1.745   4.335   4.306 -0.1931  0.5779 -1.5398
13346TIP3    H261530   1.696   4.219   4.390  1.4361  1.6125  0.9186
13347TIP3   OH261531   1.149   4.628  11.653  0.5044  0.0013 -0.1649
13347TIP3    H161532   1.177   4.719  11.638 -0.8586  0.3937 -0.4833
13347TIP3    H261533   1.217   4.575  11.612  1.8732  0.8214  0.9280
13348TIP3   OH261534   4.652   2.536   1.440  0.1905 -0.7886 -0.3947
13348TIP3    H161535   4.593   2.590   1.388 -0.6586 -0.2072  1.1024
13348TIP3    H261536   4.624   2.446   1.423 -0.7149 -0.5535 -0.2114
13349TIP3   OH261537   0.381   2.748   2.748 -0.0437  0.0278  0.5415
13349TIP3    H161538   0.348   2.776   2.833  0.6730 -0.4123  0.9844
13349TIP3    H261539   0.352   2.815   2.687 -1.3447 -0.1108  0.9721
13350TIP3   OH261540   1.845   1.002  14.396  0.5368  0.4120 -0.3505
13350TIP3    H161541   1.836   0.910  14.371  0.7998  0.7737 -1.8333
13350TIP3    H261542   1.797   1.051  14.329  1.6357  1.4469 -0.4185
13351TIP3   OH261543   0.003   3.094  15.572 -0.2789  0.1213  0.1390
13351TIP3    H161544  -0.016   3.059  15.485 -0.5680  2.1501 -0.6618
13351TIP3    H261545  -0.073   3.148  15.594  0.7045  1.3459  0.6963
13352TIP3   OH261546   0.641   3.633   5.309  0.5183  0.0228  0.6049
13352TIP3    H161547   0.643   3.686   5.389  1.7177 -0.5396  0.9709
13352TIP3    H261548   0.571   3.672   5.257  2.9999  3.8086 -0.3715
13353TIP3   OH261549   6.211   1.181   5.694  0.2381  0.2589  0.0205
13353TIP3    H161550   6.210   1.221   5.607 -4.0442 -0.8400 -0.6801
13353TIP3    H261551   6.200   1.255   5.754 -3.1523  0.7147 -0.9516
13354TIP3   OH261552   1.413   5.171   0.628 -0.0076 -0.1164 -0.1940
13354TIP3    H161553   1.325   5.179   0.590 -1.1827  0.1345  2.3651
13354TIP3    H261554   1.418   5.243   0.690  0.6468 -2.0644  2.1554
13355TIP3   OH261555   6.531   6.790   0.952 -0.4640 -0.2150 -0.3871
13355TIP3    H161556   6.470   6.751   0.889  0.3837  2.4927 -3.0994
13355TIP3    H261557   6.601   6.826   0.898  0.7178  1.6667  2.2133
13356TIP3   OH261558   2.752   5.116  15.961 -0.2833  0.3701 -0.5956
13356TIP3    H161559   2.733   5.209  15.968  1.8095  1.0162 -2.3745
13356TIP3    H261560   2.829   5.102  16.016  0.1031 -0.0338 -1.2162
13357TIP3   OH261561   2.956   5.956   0.726  0.0419  0.2001 -0.4195
13357TIP3    H161562   2.912   6.016   0.665 -0.7058  0.6786  0.5566
13357TIP3    H261563   3.015   6.012   0.776 -0.4103  0.0823  0.2661
13358TIP3   OH261564   5.029   4.708   0.818 -0.3234 -0.1352  0.1448
13358TIP3    H161565   4.973   4.658   0.758 -2.2618 -0.0943  1.8210
13358TIP3    H261566   5.006   4.800   0.801 -0.4811 -0.0975  0.5507
13359TIP3   OH261567   2.219   1.641   5.341  0.3417 -0.0218  0.4319
13359TIP3    H161568   2.207   1.668   5.432 -0.4630  0.9017  0.0737
13359TIP3    H261569   2.279   1.567   5.345  1.8562  1.2029  1.5769
13360TIP3   OH261570   5.246   0.674  13.419  0.5578 -0.0176 -0.0521
13360TIP3    H161571   5.197   0.707  13.343  2.1226 -2.0877 -2.0950
13360TIP3    H261572   5.183   0.674  13.490 -1.0741  1.7426 -1.3830
13361TIP3   OH261573   2.888   5.775  14.663 -0.1426  0.4984  0.1463
13361TIP3    H161574   2.904   5.831  14.739  0.6233  0.0251  0.3480
13361TIP3    H261575   2.964   5.789  14.607  0.3546 -0.7484  0.4600
13362TIP3   OH261576   2.888   4.118   2.804  0.4451  0.2636 -0.0641
13362TIP3    H161577   2.942   4.190   2.835  1.0410  0.7790 -2.1367
13362TIP3    H261578   2.817   4.111   2.868  2.2978  0.3210  2.1088
13363TIP3   OH261579   4.409   4.120  12.457  0.2243  0.3547 -0.2829
13363TIP3    H161580   4.402   4.064  12.380 -1.1278  1.3077 -0.9018
13363TIP3    H261581   4.391   4.062  12.531 -2.2417  0.1344 -0.9787
13364TIP3   OH261582   6.455   3.318  11.236 -0.6007  0.7298 -0.0611
13364TIP3    H161583   6.387   3.269  11.190 -2.3537  2.0696  0.9716
13364TIP3    H261584   6.525   3.328  11.171 -1.1397 -1.0929 -1.0114
13365TIP3   OH261585   0.664   6.311   1.598  0.1585  0.3202  0.5032
13365TIP3    H161586   0.689   6.218   1.595 -0.5621  0.1162  0.5342
13365TIP3    H261587   0.744   6.356   1.626  0.6486 -0.2350  0.0276
13366TIP3   OH261588   0.454   1.393   5.627  0.2877 -0.2420 -0.0895
13366TIP3    H161589   0.416   1.385   5.714 -2.3311  0.0167 -1.1153
13366TIP3    H261590   0.448   1.305   5.590  2.7131 -0.6911  0.4163
13367TIP3   OH261591   0.519   5.607   1.490  0.2556 -0.1320  0.1067
13367TIP3    H161592   0.491   5.548   1.420  0.0103 -0.5616  0.5609
13367TIP3    H261593   0.555   5.683   1.444 -1.3981  0.3329 -0.5227
13368TIP3   OH261594   1.746   5.024  10.782  0.0775 -0.5613  0.0429
13368TIP3    H161595   1.799   4.949  10.808  0.9806  0.4419  1.2814
13368TIP3    H261596   1.773   5.042  10.692 -0.1758 -1.7085 -0.2803
13369TIP3   OH261597   6.174   5.822   2.849 -0.0601 -0.2833  0.1651
13369TIP3    H161598   6.172   5.823   2.944 -0.2135  0.4718  0.1585
13369TIP3    H261599   6.256   5.777   2.827 -1.0500 -2.4245  0.6153
13370TIP3   OH261600   4.823   1.380  12.551 -0.3820 -0.4740  0.8210
13370TIP3    H161601   4.818   1.438  12.628  1.1443 -1.3757  1.6547
13370TIP3    H261602   4.836   1.440  12.477 -1.5418  0.3946  1.2862
13371TIP3   OH261603   0.074   0.148  16.068 -0.1306 -0.3477  0.4926
13371TIP3    H161604   0.157   0.119  16.106  0.4597 -2.0849 -1.8853
13371TIP3    H261605   0.024   0.067  16.056 -1.9155  0.5937  1.2478
13372TIP3   OH261606   1.860   2.891  15.761  0.1300  0.4973  0.3287
13372TIP3    H161607   1.939   2.907  15.710  0.2015 -0.0022  0.2728
13372TIP3    H261608   1.842   2.974  15.806 -0.3100  1.1495 -1.0134
13373TIP3   OH261609   3.068   5.092   3.982 -0.3332 -0.1531 -0.6193
13373TIP3    H161610   3.007   5.150   3.937  3.4427  3.7309 -1.4354
13373TIP3    H261611   3.122   5.054   3.913  0.1685 -1.0234  0.2096
13374TIP3   OH261612   4.303   0.370   5.456 -0.0183  0.0752 -0.6816
13374TIP3    H161613   4.226   0.329   5.417  0.0455 -2.2440  1.4131
13374TIP3    H261614   4.343   0.420   5.384 -2.4525 -0.1134 -2.2598
13375TIP3   OH261615   3.141   1.747   5.817 -0.0168 -1.0753 -0.6131
13375TIP3    H161616   3.079   1.693   5.867 -1.7944  0.3053 -1.2290
13375TIP3    H261617   3.219   1.752   5.874 -1.1145 -1.4084  1.0012
13376TIP3   OH261618   3.893   5.526   6.200 -0.0250  0.1511  0.1106
13376TIP3    H161619   3.943   5.581   6.260  1.0593  1.0123 -1.5000
13376TIP3    H261620   3.807   5.567   6.197 -0.1649 -0.0303  1.2051
13377TIP3   OH261621   0.657   4.672  14.670  0.5964  0.4101 -0.5553
13377TIP3    H161622   0.739   4.657  14.623  1.3049  1.7584  0.1753
13377TIP3    H261623   0.600   4.715  14.605  1.6513  2.4849 -0.2018
13378TIP3   OH261624   0.111   6.172   2.364 -0.4592 -0.0764 -0.4105
13378TIP3    H161625   0.112   6.094   2.309  1.4592  0.2130 -0.8341
13378TIP3    H261626   0.024   6.210   2.350 -1.6789 -2.4493  0.3077
13379TIP3   OH261627   0.017   4.513  16.436  0.5641 -0.4464  0.7346
13379TIP3    H161628   0.021   4.588  16.376 -0.3669 -1.5867 -0.8099
13379TIP3    H261629   0.012   4.553  16.523  0.1513  1.2934 -0.0359
13380TIP3   OH261630   0.387   1.982  15.375  0.2901 -0.2092  0.1003
13380TIP3    H161631   0.356   1.989  15.466 -0.5450 -0.1882 -0.1829
13380TIP3    H261632   0.343   2.054  15.330  2.5373  1.3139  0.1660
13381TIP3   OH261633   2.287   0.280  13.952 -0.2279 -0.2260  0.4865
13381TIP3    H161634   2.252   0.207  14.003 -0.3320 -0.7139 -0.2639
13381TIP3    H261635   2.381   0.281  13.973 -0.2425 -0.5215  0.5787
13382TIP3   OH261636   2.714   0.903  17.019  0.6697  0.4579  0.4345
13382TIP3    H161637   2.681   0.842  16.953 -1.0473  1.4782  0.2902
13382TIP3    H261638   2.786   0.949  16.975  1.2076 -0.6061  0.1604
13383TIP3   OH261639   0.268   5.651  13.965 -0.0922 -0.1104 -0.2150
13383TIP3    H161640   0.272   5.684  13.876  0.1589  0.7801  0.1101
13383TIP3    H261641   0.241   5.560  13.957 -0.3183  0.0403 -1.1775
13384TIP3   OH261642   5.724   1.691   3.499 -0.3888 -0.4769  0.6029
13384TIP3    H161643   5.631   1.703   3.479  0.2393 -0.6070 -3.0857
13384TIP3    H261644   5.757   1.780   3.512 -0.5810 -0.1552 -0.8882
13385TIP3   OH261645   6.078   6.794  11.562  0.0405 -0.2193  0.9015
13385TIP3    H161646   6.116   6.793  11.474 -1.9647 -1.2109 -0.0140
13385TIP3    H261647   6.040   6.881  11.571 -1.7656 -0.8413 -0.1920
13386TIP3   OH261648   3.319   1.807   3.446 -0.2385  0.0436  0.4464
13386TIP3    H161649   3.328   1.715   3.419 -1.6369 -0.1337  0.5155
13386TIP3    H261650   3.372   1.814   3.525 -3.4338 -1.8912  3.0321
13387TIP3   OH261651   4.242   0.719   3.512  0.0153  0.4933 -0.7633
13387TIP3    H161652   4.200   0.802   3.533  1.7301  1.2618 -0.2255
13387TIP3    H261653   4.189   0.653   3.557  0.3461  1.5866  1.3368
13388TIP3   OH261654   2.996   3.618   4.666 -0.1568 -0.2265 -0.4286
13388TIP3    H161655   2.969   3.678   4.597 -0.1553  0.6058  0.2785
13388TIP3    H261656   3.059   3.668   4.719  1.6950 -1.6118 -1.1868
13389TIP3   OH261657   6.707   3.964  13.003  0.2458  0.0433 -0.0148
13389TIP3    H161658   6.705   3.875  12.967 -0.4873  1.0476 -2.7706
13389TIP3    H261659   6.620   3.977  13.039 -0.2332  0.1454 -1.1435
13390TIP3   OH261660   5.981   3.038   0.851  0.2705  0.8948  0.1549
13390TIP3    H161661   6.056   2.994   0.812 -0.4358  0.0011 -0.2501
13390TIP3    H261662   5.929   2.967   0.888 -2.0614  1.0371 -2.4948
13391TIP3   OH261663   5.826   2.123   0.955  0.0441  0.8061 -0.0110
13391TIP3    H161664   5.786   2.192   1.007  0.7860 -0.1361  1.9181
13391TIP3    H261665   5.769   2.047   0.967 -0.6824  0.9786 -1.9843
13392TIP3   OH261666   5.899   5.760   2.123  0.2662  0.0414  0.2363
13392TIP3    H161667   5.990   5.742   2.097  0.7549 -1.0452  2.4949
13392TIP3    H261668   5.860   5.673   2.134 -0.2152  0.4346  1.9267
13393TIP3   OH261669   5.849   1.925   3.590  0.2160  0.0341  0.4372
13393TIP3    H161670   5.901   1.930   3.671 -1.2319  1.0362  1.3596
13393TIP3    H261671   5.788   1.998   3.597 -0.4577 -0.3338 -1.2266
13394TIP3   OH261672   5.664   0.544   5.236 -0.2902  0.0605 -0.1131
13394TIP3    H161673   5.587   0.494   5.210 -0.9622  1.0846 -0.1688
13394TIP3    H261674   5.693   0.587   5.156  0.5522 -0.5805 -0.1618
13395TIP3   OH261675   5.828   0.802   3.399 -0.1899  0.2189  0.2789
13395TIP3    H161676   5.735   0.801   3.375 -0.2988 -1.6190  0.6859
13395TIP3    H261677   5.860   0.715   3.376  1.1945  0.5006  1.0621
13396TIP3   OH261678   2.969   5.692  10.900 -0.1193  0.2533 -0.5528
13396TIP3    H161679   2.939   5.773  10.942  0.7949 -0.5810  1.8925
13396TIP3    H261680   2.971   5.713  10.807 -0.8309  2.7337 -0.0950
13397TIP3   OH261681   4.498   3.730   0.463  0.4714 -0.0743  0.1591
13397TIP3    H161682   4.422   3.675   0.445  1.6716 -2.2039  1.1411
13397TIP3    H261683   4.479   3.813   0.419 -0.9082 -1.6695 -2.5697
13398TIP3   OH261684   5.842   5.016  12.261 -0.1035 -0.4127  0.1980
13398TIP3    H161685   5.900   5.044  12.190 -2.1942  1.8299 -0.7936
13398TIP3    H261686   5.821   5.096  12.308 -2.5128 -1.0403  0.3449
13399TIP3   OH261687   2.421   1.404   5.230  0.5084  0.2206 -0.3482
13399TIP3    H161688   2.489   1.354   5.275  0.3202 -0.7637 -1.1240
13399TIP3    H261689   2.390   1.346   5.161 -0.6616  0.9150 -0.4334
13400TIP3   OH261690   4.428   1.827  12.187  0.1532 -0.3111  0.0929
13400TIP3    H161691   4.396   1.873  12.110  1.5021  1.4444  0.5045
13400TIP3    H261692   4.520   1.808  12.168  0.2010 -0.8735  0.8214
13401TIP3   OH261693   4.599   2.419  15.016 -0.7033 -0.4987 -0.3711
13401TIP3    H161694   4.539   2.442  15.087 -0.9395 -1.9632 -0.0819
13401TIP3    H261695   4.578   2.329  14.994 -1.5029  0.2821 -3.1782
13402TIP3   OH261696   5.371   6.558  13.565  0.1914 -0.8215 -0.0072
13402TIP3    H161697   5.359   6.489  13.630 -0.3473 -1.4441 -0.7535
13402TIP3    H261698   5.390   6.511  13.484 -1.4945 -0.1806 -0.8237
13403TIP3   OH261699   2.505   5.780  15.696 -0.1006 -0.3218 -0.0052
13403TIP3    H161700   2.508   5.843  15.624  0.5807 -0.7871 -0.3964
13403TIP3    H261701   2.433   5.810  15.750  1.3917  1.9583  0.8916
13404TIP3   OH261702   3.182   0.888  10.736  0.5356 -0.4777 -0.2417
13404TIP3    H161703   3.207   0.968  10.690 -2.5375  0.5730 -0.2783
13404TIP3    H261704   3.108   0.854  10.686  0.5604 -2.3074  0.8952
13405TIP3   OH261705   6.041   3.739  11.203 -0.3486  0.3232  0.2556
13405TIP3    H161706   5.987   3.732  11.124 -2.6404  0.6026  1.6914
13405TIP3    H261707   6.062   3.648  11.227 -1.6241  0.0920  0.5638
13406TIP3   OH261708   6.175   2.900   5.621 -0.0141 -0.3387  0.0042
13406TIP3    H161709   6.179   2.833   5.690  1.1276 -1.8641 -1.4412
13406TIP3    H261710   6.141   2.978   5.665  1.3877 -1.0015  2.4866
13407TIP3   OH261711   3.083   3.375   1.745  0.3900  0.2498  0.2210
13407TIP3    H161712   3.098   3.461   1.706 -0.9721  0.0369 -0.8620
13407TIP3    H261713   3.006   3.387   1.801  0.2081 -0.2370  0.0852
13408TIP3   OH261714   0.532   0.329  14.732  0.9171  0.2150  0.2075
13408TIP3    H161715   0.575   0.403  14.773 -1.8843  1.3486  1.3775
13408TIP3    H261716   0.477   0.367  14.664  0.0174 -0.8327  0.3038
13409TIP3   OH261717   5.348   1.335   4.137 -0.1033 -0.0307 -0.2897
13409TIP3    H161718   5.269   1.357   4.188  0.3112 -1.6922  1.2027
13409TIP3    H261719   5.324   1.254   4.092  0.7155 -0.5321  0.1532
13410TIP3   OH261720   5.359   3.129  13.869  0.2242  0.0958 -0.5450
13410TIP3    H161721   5.335   3.099  13.956 -0.5017  2.0816 -0.0147
13410TIP3    H261722   5.356   3.050  13.814 -3.0065 -0.5882  0.4395
13411TIP3   OH261723   0.112   4.234  16.614  0.2971 -0.2889 -0.4821
13411TIP3    H161724   0.093   4.147  16.650 -0.8846 -0.6228 -1.8196
13411TIP3    H261725   0.197   4.257  16.652  0.2099 -1.6236  0.6214
13412TIP3   OH261726   2.163   1.817   2.739  0.0136  0.1000 -0.5888
13412TIP3    H161727   2.106   1.805   2.815  1.6494  3.0056  1.3305
13412TIP3    H261728   2.252   1.805   2.774  0.7698 -0.1809 -2.4780
13413TIP3   OH261729   6.374   3.885   2.559 -0.2846 -0.0821 -0.3564
13413TIP3    H161730   6.414   3.814   2.510  0.2748  0.4584 -0.6923
13413TIP3    H261731   6.301   3.915   2.504 -1.0840 -0.9722  0.1910
13414TIP3   OH261732   1.818   2.960  14.229  0.0086  0.2855 -0.1768
13414TIP3    H161733   1.788   3.020  14.297  1.1340  0.2998  0.3314
13414TIP3    H261734   1.738   2.918  14.197 -0.5571  0.3428  1.0861
13415TIP3   OH261735   5.687   4.240  15.003  0.2566 -0.5014 -0.1014
13415TIP3    H161736   5.776   4.235  14.968  0.4515 -0.8077  0.4210
13415TIP3    H261737   5.680   4.327  15.042  0.3560 -0.5082 -0.0697
13416TIP3   OH261738   6.664   0.317  12.064 -0.4954  0.2969 -0.7068
13416TIP3    H161739   6.600   0.351  12.127  1.4758  1.6572  0.7040
13416TIP3    H261740   6.671   0.224  12.084  0.6297  0.8255  1.6936
13417TIP3   OH261741   1.396   6.776  13.019 -0.6440  0.1048 -0.3591
13417TIP3    H161742   1.455   6.701  13.017  0.5782  0.9686  1.1266
13417TIP3    H261743   1.391   6.805  12.928 -0.7920 -1.4926 -0.8840
13418TIP3   OH261744   1.479   0.249  15.350  0.7098  0.7178 -0.0195
13418TIP3    H161745   1.387   0.252  15.323  0.8497 -2.0966 -1.0735
13418TIP3    H261746   1.527   0.284  15.274  0.6169  0.2732 -0.2869
13419TIP3   OH261747   3.523   5.105  13.643  0.2107  0.7771 -0.1007
13419TIP3    H161748   3.438   5.089  13.685  0.4241 -0.4858 -0.1142
13419TIP3    H261749   3.520   5.054  13.562  0.7337  1.2632 -0.4336
13420TIP3   OH261750   4.590   5.803  12.003 -0.7110  0.0536  0.2558
13420TIP3    H161751   4.658   5.749  12.044 -0.1741  0.3223 -0.2665
13420TIP3    H261752   4.513   5.746  12.000 -0.2892 -0.5227  0.1582
13421TIP3   OH261753   2.316   1.323  16.312 -0.0260 -0.5150 -0.3347
13421TIP3    H161754   2.226   1.324  16.281 -0.2670  0.7163  0.3151
13421TIP3    H261755   2.369   1.334  16.234 -0.6109  2.4987 -0.4330
13422TIP3   OH261756   5.981   5.609  14.634  0.4315  0.3955 -0.2668
13422TIP3    H161757   6.030   5.658  14.700  1.1930 -0.7854  0.0878
13422TIP3    H261758   5.895   5.594  14.674  0.5773  0.4826  0.0848
13423TIP3   OH261759   3.860   5.325  14.980  0.5755 -0.4473  0.1810
13423TIP3    H161760   3.934   5.281  15.022  0.6284 -0.9868 -0.4487
13423TIP3    H261761   3.798   5.342  15.051  0.0864 -2.5040  0.3198
13424TIP3   OH261762   4.150   0.358  17.090  0.2547 -0.3393  0.4913
13424TIP3    H161763   4.109   0.283  17.133  0.8043 -1.0437 -0.1964
13424TIP3    H261764   4.203   0.320  17.021  0.1073  0.7212 -0.2245
13425TIP3   OH261765   6.209   1.769  15.322  0.1155 -0.0418  0.0090
13425TIP3    H161766   6.299   1.800  15.333  0.4441 -1.3074  1.2539
13425TIP3    H261767   6.156   1.849  15.317  1.3934  0.7706 -2.0721
13426TIP3   OH261768   6.069   5.048   1.579  0.2788  0.9783  0.5022
13426TIP3    H161769   6.069   5.122   1.519  0.7798 -1.7992 -3.3539
13426TIP3    H261770   6.001   4.990   1.545  1.7686 -1.5344  1.4641
13427TIP3   OH261771   1.043   2.066  12.748 -0.6121  0.2393  0.1465
13427TIP3    H161772   1.077   1.994  12.801  1.7532 -0.9697 -2.7010
13427TIP3    H261773   1.050   2.143  12.804 -2.4467 -1.4767  3.0175
13428TIP3   OH261774   6.409   1.800  15.620 -0.3907  0.6458 -0.3509
13428TIP3    H161775   6.493   1.845  15.626 -0.3820  0.4112  3.5343
13428TIP3    H261776   6.344   1.871  15.621 -0.3252  0.7632 -1.8881
13429TIP3   OH261777   1.712   4.617   4.902  0.5211  0.1479 -0.2577
13429TIP3    H161778   1.770   4.599   4.828 -1.2206  0.7913 -1.8604
13429TIP3    H261779   1.624   4.599   4.869 -0.4435  1.7830  1.2273
13430TIP3   OH261780   6.636   3.997   0.278  0.1530 -0.1180  0.0760
13430TIP3    H161781   6.573   3.941   0.321 -0.5705 -0.2677 -1.1160
13430TIP3    H261782   6.603   4.086   0.292 -0.1232 -0.1717 -0.2021
13431TIP3   OH261783   6.349   2.096  14.688  0.1574 -0.1925  0.6853
13431TIP3    H161784   6.387   2.055  14.610  0.5045  0.8725  0.2774
13431TIP3    H261785   6.322   2.022  14.742  1.3678 -0.9830  0.2793
13432TIP3   OH261786   4.713   3.427   4.028  0.2039 -0.1948 -0.1136
13432TIP3    H161787   4.659   3.500   3.999 -0.1246 -0.2574  0.3219
13432TIP3    H261788   4.766   3.404   3.952 -1.0568 -0.7532 -0.8563
13433TIP3   OH261789   3.594   4.362   1.520 -0.1580  0.2060 -0.0859
13433TIP3    H161790   3.605   4.455   1.501 -0.2786 -0.0927 -1.7091
13433TIP3    H261791   3.516   4.336   1.471 -1.2294 -0.3850  1.7962
13434TIP3   OH261792   6.651   4.774  12.067  0.3874 -0.7325  0.5276
13434TIP3    H161793   6.609   4.860  12.055 -0.5181 -1.3207 -0.7706
13434TIP3    H261794   6.693   4.780  12.152  0.3040  0.9926  0.4886
13435TIP3   OH261795   0.549   1.353  12.491  0.0878 -0.1380 -0.6180
13435TIP3    H161796   0.541   1.264  12.457  1.2923 -1.1914  1.6370
13435TIP3    H261797   0.481   1.358  12.559 -1.6568  1.5889 -2.3729
13436TIP3   OH261798   1.664   1.587  10.519 -0.2782 -0.7965  0.0497
13436TIP3    H161799   1.593   1.524  10.510 -1.1054  0.1786 -0.4281
13436TIP3    H261800   1.662   1.637  10.437  1.3202 -1.1052 -0.2103
13437TIP3   OH261801   3.143   0.888  17.227 -0.3670  0.6809 -0.3242
13437TIP3    H161802   3.123   0.981  17.236 -1.1571  0.6129 -1.1796
13437TIP3    H261803   3.227   0.886  17.181 -0.9191  0.9913 -1.3910
13438TIP3   OH261804   2.300   6.717   3.585 -0.6239 -0.1503 -0.0747
13438TIP3    H161805   2.251   6.714   3.503 -0.5667  0.1254 -0.1189
13438TIP3    H261806   2.262   6.647   3.638 -0.1242 -0.8649 -0.6423
13439TIP3   OH261807   4.144   6.555   4.081  0.3313 -0.0854  0.2939
13439TIP3    H161808   4.171   6.570   3.991  1.6211  1.4770  0.9119
13439TIP3    H261809   4.049   6.543   4.076  0.5547 -1.4760 -1.4109
13440TIP3   OH261810   0.534   3.769  14.704 -0.1859  0.4234  0.2095
13440TIP3    H161811   0.524   3.864  14.715 -0.3623  0.3798  0.4323
13440TIP3    H261812   0.447   3.739  14.678  0.3684  0.6151 -2.0384
13441TIP3   OH261813   1.117   1.836   2.419 -0.0834 -0.0353  0.3135
13441TIP3    H161814   1.114   1.932   2.426  0.1997 -0.1546  4.3508
13441TIP3    H261815   1.184   1.819   2.353  1.8967  2.6100  1.4399
13442TIP3   OH261816   2.888   3.073   2.877  0.6597 -0.4509  0.7443
13442TIP3    H161817   2.886   2.977   2.876 -0.2372 -0.4345 -1.0936
13442TIP3    H261818   2.797   3.099   2.886  0.7259  0.2248 -0.3993
13443TIP3   OH261819   2.463   3.938   4.572 -0.4264 -0.4663  0.5947
13443TIP3    H161820   2.471   3.926   4.477  0.0887  1.2057  0.3782
13443TIP3    H261821   2.457   4.033   4.583  1.0748 -0.5107  2.3348
13444TIP3   OH261822   6.634   6.712  15.651 -0.3017 -0.4965  0.8031
13444TIP3    H161823   6.623   6.626  15.613  0.6875 -1.2377  2.0922
13444TIP3    H261824   6.729   6.724  15.658 -0.4158  0.7167  0.6176
13445TIP3   OH261825   4.406   6.812  14.771 -0.3681 -0.1420 -0.4378
13445TIP3    H161826   4.355   6.887  14.740 -1.5134 -0.3716  0.7704
13445TIP3    H261827   4.421   6.830  14.864  0.1376 -0.9694 -0.3485
13446TIP3   OH261828   5.732   3.538  12.231  0.3207  0.2430 -0.6138
13446TIP3    H161829   5.725   3.482  12.154  1.9577  0.1029 -0.6942
13446TIP3    H261830   5.770   3.482  12.298 -1.6902  0.1684  0.5633
13447TIP3   OH261831   5.131   3.429   0.731  0.2173  0.2938  0.1248
13447TIP3    H161832   5.121   3.351   0.785  1.1540 -0.2555 -0.4590
13447TIP3    H261833   5.131   3.502   0.793 -2.9394  0.0904  0.5244
13448TIP3   OH261834   1.719   6.327  16.196 -0.5860 -0.2060 -0.4421
13448TIP3    H161835   1.635   6.292  16.228  0.6330 -2.8285  0.1524
13448TIP3    H261836   1.773   6.334  16.274 -0.2354  1.5657 -0.8142
13449TIP3   OH261837   3.597   3.176  13.234  0.4555 -0.1742  0.0586
13449TIP3    H161838   3.505   3.164  13.211  0.3861  0.4069  0.0111
13449TIP3    H261839   3.624   3.253  13.184  0.9171 -0.2304  0.2182
13450TIP3   OH261840   2.677   5.874  13.236  0.4413 -0.1166 -0.5648
13450TIP3    H161841   2.699   5.781  13.247  0.1367  0.0567  2.4306
13450TIP3    H261842   2.646   5.901  13.322 -0.7692  2.4681 -1.7085
13451TIP3   OH261843   4.793   3.617  13.967 -0.5198  0.2382 -0.0142
13451TIP3    H161844   4.699   3.622  13.952 -0.4879 -0.3272 -0.4418
13451TIP3    H261845   4.830   3.689  13.915 -0.7835  1.0179  0.8604
13452TIP3   OH261846   6.524   4.674   4.112 -0.1147 -0.3238  1.0532
13452TIP3    H161847   6.553   4.583   4.114  0.3320 -0.2655 -0.8307
13452TIP3    H261848   6.439   4.673   4.155 -0.4721 -1.7701  0.3563
13453TIP3   OH261849   5.358   5.561  11.917  0.0375  0.5177  0.6268
13453TIP3    H161850   5.398   5.556  12.004 -1.0593  0.5071  1.1517
13453TIP3    H261851   5.284   5.622  11.928  0.6291  1.5184 -0.6099
13454TIP3   OH261852   1.897   2.703  15.942 -0.2743  0.5806  0.3026
13454TIP3    H161853   1.986   2.686  15.911 -0.4572 -0.6159  0.4053
13454TIP3    H261854   1.858   2.757  15.872  0.4700  0.9899  0.1882
13455TIP3   OH261855   3.583   6.456  11.800  0.3140  0.0063  0.1517
13455TIP3    H161856   3.660   6.493  11.756  0.0291 -0.6205 -0.9107
13455TIP3    H261857   3.615   6.376  11.841 -0.0268 -1.0069 -1.4664
13456TIP3   OH261858   2.480   5.216   4.870 -0.2930 -0.4404  0.1524
13456TIP3    H161859   2.471   5.200   4.964 -0.0113 -0.8520  0.1116
13456TIP3    H261860   2.495   5.310   4.864 -0.4327 -0.3906  0.5109
13457TIP3   OH261861   4.217   3.277  16.576 -0.1794 -0.0683 -0.4139
13457TIP3    H161862   4.174   3.245  16.655 -1.4663  0.1109 -1.0164
13457TIP3    H261863   4.311   3.278  16.598 -0.4115 -1.1155  0.7005
13458TIP3   OH261864   5.494   4.634  12.249 -0.0229  0.2056 -0.1429
13458TIP3    H161865   5.490   4.554  12.196 -2.6314  0.4275 -0.4215
13458TIP3    H261866   5.403   4.653  12.269  0.6333  2.4444  0.9773
13459TIP3   OH261867   0.662   3.384  14.636  0.1238  0.2916  0.2798
13459TIP3    H161868   0.735   3.331  14.604  0.2880  0.3894  0.4845
13459TIP3    H261869   0.696   3.423  14.717 -0.3904 -0.2090  0.7389
13460TIP3   OH261870   4.863   5.928  13.745 -0.1553  0.4467  0.5258
13460TIP3    H161871   4.913   5.851  13.718 -1.3068 -0.3860  0.6885
13460TIP3    H261872   4.846   5.976  13.663  0.4057  0.4390  0.4005
13461TIP3   OH261873   5.857   1.773   2.849  0.3289 -0.2249 -0.1946
13461TIP3    H161874   5.784   1.753   2.908  1.3063 -0.3966  0.9859
13461TIP3    H261875   5.903   1.846   2.891  2.3630 -1.8052  0.4738
13462TIP3   OH261876   2.425   5.439   3.123  0.4854  0.2528  0.1382
13462TIP3    H161877   2.336   5.404   3.123  1.0847 -1.3889  1.0691
13462TIP3    H261878   2.416   5.529   3.154 -0.7473 -0.1984  1.1812
13463TIP3   OH261879   5.962   6.580   0.191  0.4226 -0.4608  0.6298
13463TIP3    H161880   5.892   6.519   0.167  0.8882 -0.4209 -0.9598
13463TIP3    H261881   5.947   6.656   0.135  1.8219 -0.5165  0.1526
13464TIP3   OH261882   1.636   4.483   1.515  0.3140 -0.1631 -0.4041
13464TIP3    H161883   1.604   4.451   1.431  0.1290 -0.1944 -0.3222
13464TIP3    H261884   1.635   4.579   1.505  1.6601 -0.1859 -0.9430
13465TIP3   OH261885   3.139   4.771  14.464  0.2623  0.3174  0.2625
13465TIP3    H161886   3.186   4.749  14.544  0.0590  1.1945  0.6365
13465TIP3    H261887   3.207   4.788  14.399  0.4874 -3.1719 -0.6302
13466TIP3   OH261888   3.363   6.096   0.606  0.1190 -0.2993 -0.2238
13466TIP3    H161889   3.309   6.034   0.655 -2.5961  2.4797  0.6511
13466TIP3    H261890   3.328   6.094   0.517  0.2339 -0.2410 -0.2706
13467TIP3   OH261891   1.366   4.472   3.064  0.5915 -0.1708 -0.6064
13467TIP3    H161892   1.398   4.561   3.049  0.4807 -0.4004 -2.3374
13467TIP3    H261893   1.405   4.447   3.148  0.6314  1.4981 -0.0932
13468TIP3   OH261894   0.112   6.097   6.169 -0.0393 -0.7161 -0.1663
13468TIP3    H161895   0.057   6.072   6.243  0.3268 -2.7930 -0.5195
13468TIP3    H261896   0.107   6.192   6.166 -0.6010 -0.6209  2.1008
13469TIP3   OH261897   0.082   3.386   0.185  0.0464 -0.4196  0.6722
13469TIP3    H161898   0.056   3.340   0.265 -1.3497  0.4370  0.7372
13469TIP3    H261899   0.003   3.431   0.156  0.7601 -0.0033 -0.7181
13470TIP3   OH261900   5.430   0.194   2.736  0.5306  0.0941  0.4406
13470TIP3    H161901   5.347   0.171   2.777 -0.9839  2.3577 -1.0924
13470TIP3    H261902   5.482   0.234   2.805  0.4121 -1.3695  1.4196
13471TIP3   OH261903   3.010   0.283  15.853  0.4969 -1.3561  0.5531
13471TIP3    H161904   2.939   0.272  15.789  0.7906 -1.2322  0.1981
13471TIP3    H261905   2.966   0.295  15.937  0.0504  0.1379  0.1412
13472TIP3   OH261906   5.580   6.350   4.478 -0.3454  0.0332 -0.1369
13472TIP3    H161907   5.590   6.340   4.384 -1.1954  1.0389 -0.3549
13472TIP3    H261908   5.515   6.420   4.488  1.2908  1.4804  1.2008
13473TIP3   OH261909   0.170   3.666  16.280 -0.2121 -0.1026  0.2843
13473TIP3    H161910   0.253   3.700  16.248 -0.5511  4.5200  3.3239
13473TIP3    H261911   0.107   3.736  16.262 -2.1760 -1.0029  3.0143
13474TIP3   OH261912   0.149   2.949  16.211 -0.3838 -0.0316 -0.0028
13474TIP3    H161913   0.226   2.892  16.206 -2.1697 -2.6241 -0.3000
13474TIP3    H261914   0.148   2.995  16.127  0.2733 -0.8227 -0.4609
13475TIP3   OH261915   4.848   0.545   1.838 -0.5183 -0.0459  0.1229
13475TIP3    H161916   4.911   0.478   1.863  0.2572  0.0791 -1.4390
13475TIP3    H261917   4.893   0.599   1.774 -1.5372  1.2779  0.4658
13476TIP3   OH261918   5.734   2.061   5.586  0.7047 -0.0683  0.3365
13476TIP3    H161919   5.699   2.103   5.665 -0.0406  1.0344 -0.5425
13476TIP3    H261920   5.791   2.128   5.547  1.1870 -0.6596  0.0179
13477TIP3   OH261921   2.602   1.906   0.180  0.1642  0.1691 -0.6766
13477TIP3    H161922   2.526   1.962   0.191 -1.1814 -1.4672 -1.2829
13477TIP3    H261923   2.646   1.939   0.102 -1.7657 -0.8059 -2.2511
13478TIP3   OH261924   5.682   4.709   4.233  0.0922 -0.0114 -0.2424
13478TIP3    H161925   5.735   4.712   4.313 -0.2613 -0.7792  0.0306
13478TIP3    H261926   5.709   4.628   4.189 -0.7338 -0.3287 -0.1806
13479TIP3   OH261927   6.752   1.954  14.676  0.2568  0.1595  0.2173
13479TIP3    H161928   6.703   2.016  14.621  0.2790  1.0605  1.1730
13479TIP3    H261929   6.688   1.926  14.742 -0.2391 -2.1199 -1.1051
13480TIP3   OH261930   6.088   0.988  13.999 -0.6428  0.5852 -0.2418
13480TIP3    H161931   6.147   0.979  14.073 -2.2184 -0.2561  0.9851
13480TIP3    H261932   6.065   1.081  13.998  1.1648  1.0694 -1.1737
13481TIP3   OH261933   0.622   5.126   0.349 -0.0850  0.2550  0.1349
13481TIP3    H161934   0.649   5.217   0.358 -0.5653  0.2626  1.8595
13481TIP3    H261935   0.529   5.126   0.369 -0.1143 -0.5997  0.0508
13482TIP3   OH261936   4.189   0.985   2.298  0.1050 -0.1727 -0.0185
13482TIP3    H161937   4.157   0.902   2.264 -0.0598  0.1947 -0.7663
13482TIP3    H261938   4.129   1.051   2.264  0.8144  0.3636 -0.2696
13483TIP3   OH261939   5.913   1.398  16.410 -0.2516 -0.5799 -0.3637
13483TIP3    H161940   5.986   1.372  16.467  0.2410  0.2682 -0.5889
13483TIP3    H261941   5.891   1.487  16.439 -0.3792 -0.3640 -1.1044
13484TIP3   OH261942   2.695   4.203  15.218  0.3312  0.1695 -0.8532
13484TIP3    H161943   2.763   4.205  15.150 -0.9767 -0.5435 -2.2371
13484TIP3    H261944   2.659   4.115  15.213 -0.2979  0.3550  0.2628
13485TIP3   OH261945   5.554   3.097   3.690  0.6436  0.2804  0.4509
13485TIP3    H161946   5.586   3.169   3.637  1.4512  0.4049  1.0957
13485TIP3    H261947   5.630   3.067   3.740  0.4013 -1.2272 -0.0320
13486TIP3   OH261948   5.016   2.373   4.870 -0.0158  0.1513 -0.0919
13486TIP3    H161949   5.110   2.356   4.872  0.3357  1.9031  0.6847
13486TIP3    H261950   4.990   2.376   4.962 -0.7492  0.0969 -0.2907
13487TIP3   OH261951   0.584   0.819   4.372 -0.0250 -0.5180 -0.3780
13487TIP3    H161952   0.598   0.901   4.324 -1.8952  0.4489  0.6155
13487TIP3    H261953   0.670   0.778   4.373  0.7892  0.9913 -1.6798
13488TIP3   OH261954   4.318   5.988   0.006 -0.7100  0.1313 -0.1972
13488TIP3    H161955   4.348   5.931   0.077  0.1442 -0.5885 -1.1036
13488TIP3    H261956   4.376   5.967  -0.068 -0.9304  1.5565 -0.8197
13489TIP3   OH261957   2.221   0.045  13.459 -0.4914  0.1184 -0.1972
13489TIP3    H161958   2.259  -0.041  13.479  0.5788  0.5860 -0.1568
13489TIP3    H261959   2.132   0.026  13.430 -0.6989 -0.9014  1.0379
13490TIP3   OH261960   5.221   4.461  15.573 -0.5566  0.3833  0.0690
13490TIP3    H161961   5.171   4.436  15.651 -0.7226  1.0919  0.1995
13490TIP3    H261962   5.292   4.397  15.569 -2.3458 -1.6942 -1.0338
13491TIP3   OH261963   1.325   0.106   4.143 -0.5539 -0.1900 -0.1027
13491TIP3    H161964   1.377   0.039   4.187  0.9002  0.3537 -0.9172
13491TIP3    H261965   1.363   0.189   4.173 -1.8721  0.2821  0.3496
13492TIP3   OH261966   2.882   1.968   2.056 -0.8895 -0.2792 -0.2458
13492TIP3    H161967   2.859   2.032   1.989  0.3167 -0.3388 -0.7408
13492TIP3    H261968   2.838   2.000   2.135  1.3606  2.4428  0.0779
13493TIP3   OH261969   3.344   4.622   3.528  0.0504  0.2934 -0.1228
13493TIP3    H161970   3.323   4.716   3.527  0.9824  0.5076 -0.6462
13493TIP3    H261971   3.369   4.605   3.619  0.7144  0.7470 -0.2157
13494TIP3   OH261972   4.778   3.404  12.632  0.2683 -0.1189  0.0435
13494TIP3    H161973   4.727   3.324  12.641  1.8183 -1.1154  0.2649
13494TIP3    H261974   4.715   3.474  12.647 -1.5870 -1.1833 -2.0391
13495TIP3   OH261975   6.064   2.099   1.076  0.1375  0.2875  0.1932
13495TIP3    H161976   5.990   2.130   1.023  0.9548 -0.1593 -1.2694
13495TIP3    H261977   6.040   2.010   1.102 -0.9226  1.0229  1.9064
13496TIP3   OH261978   3.052   1.113   5.332 -0.0669 -0.5078  0.3914
13496TIP3    H161979   3.104   1.133   5.254  0.3719 -2.8517  0.0092
13496TIP3    H261980   2.979   1.060   5.299 -0.2006 -1.0437  1.5137
13497TIP3   OH261981   0.389   4.399  14.757  0.5360 -0.8112 -0.4675
13497TIP3    H161982   0.478   4.425  14.781 -0.3844  1.1283  1.1864
13497TIP3    H261983   0.369   4.452  14.680  0.2020  0.1376  0.2572
13498TIP3   OH261984   1.916   1.156   0.138  0.0789  0.3549 -0.5828
13498TIP3    H161985   1.935   1.121   0.225  1.0573 -1.1713 -1.3647
13498TIP3    H261986   2.002   1.171   0.099 -0.2792 -1.2668 -2.1290
13499TIP3   OH261987   4.629   3.087  14.777  0.3576  0.3575  0.4581
13499TIP3    H161988   4.537   3.108  14.762 -0.2313  0.4079  3.4553
13499TIP3    H261989   4.677   3.163  14.745 -0.8402  1.2352  0.6786
13500TIP3   OH261990   3.627   4.038  16.491  0.3089  0.4702 -0.2299
13500TIP3    H161991   3.719   4.064  16.496  0.4153  0.5385 -1.9592
13500TIP3    H261992   3.598   4.071  16.407 -1.0507 -0.3618 -0.1109
13501TIP3   OH261993   6.199   4.496  13.326 -0.0431 -0.4124  0.4220
13501TIP3    H161994   6.227   4.587  13.338  0.2878 -0.5793  0.9459
13501TIP3    H261995   6.269   4.444  13.364 -0.9897 -0.8421  1.6644
13502TIP3   OH261996   4.596   3.184  15.431 -0.2360  0.0503 -0.0046
13502TIP3    H161997   4.652   3.231  15.493  0.8241  0.5409 -1.2952
13502TIP3    H261998   4.634   3.202  15.346 -0.1821 -2.6118 -0.6451
13503TIP3   OH261999   3.051   1.680  11.912 -0.3996 -0.8570  0.3475
13503TIP3    H162000   3.055   1.621  11.837 -2.9041 -0.4431 -0.2001
13503TIP3    H262001   3.124   1.653  11.968  0.8789 -1.8764 -1.7039
13504TIP3   OH262002   5.992   1.777   5.828 -0.1166  0.3564 -0.0424
13504TIP3    H162003   6.002   1.809   5.918 -1.1297  0.8474 -0.0804
13504TIP3    H262004   6.081   1.764   5.796  0.2387 -1.2643  1.5222
13505TIP3   OH262005   0.667   2.982   2.403  0.7731 -0.2684  0.6566
13505TIP3    H162006   0.742   2.980   2.463  0.6157 -0.0837  0.8614
13505TIP3    H262007   0.688   3.050   2.340  1.2559 -0.9399  0.0838
13506TIP3   OH262008   6.511   4.673  13.780 -0.8298 -0.1075 -0.0181
13506TIP3    H162009   6.509   4.641  13.870 -0.2801  1.1528  0.4615
13506TIP3    H262010   6.574   4.617  13.736 -0.7675 -0.4458  0.4955
13507TIP3   OH262011   0.401   2.682  13.192  0.0470  0.2662  0.6008
13507TIP3    H162012   0.318   2.685  13.143 -0.4892 -0.8085  1.3852
13507TIP3    H262013   0.403   2.765  13.240 -0.1141  0.7102 -0.1475
13508TIP3   OH262014   4.510   4.366  13.134  0.3567 -0.1026  0.3823
13508TIP3    H162015   4.494   4.451  13.093  1.1584 -1.5414 -3.2509
13508TIP3    H262016   4.476   4.376  13.223 -1.6843  3.2656 -0.5884
13509TIP3   OH262017   4.300   3.552   5.640 -0.3736  0.0517 -0.4508
13509TIP3    H162018   4.316   3.474   5.587  0.5878  0.4184 -0.7300
13509TIP3    H262019   4.384   3.599   5.639 -0.6915  0.6679  0.4051
13510TIP3   OH262020   6.610   5.886   1.240 -0.2341  0.1683 -0.3268
13510TIP3    H162021   6.533   5.854   1.287 -0.4278  0.9844 -0.0718
13510TIP3    H262022   6.608   5.840   1.156 -0.4807 -0.5025  0.0370
13511TIP3   OH262023   3.013   3.689  17.100 -0.0583 -1.2545  0.0122
13511TIP3    H162024   3.007   3.630  17.025 -1.8587 -1.4717  0.2880
13511TIP3    H262025   3.107   3.698  17.116  0.2961 -2.6879 -1.0932
13512TIP3   OH262026   6.696   2.568   0.737 -0.1236 -0.0209  0.1356
13512TIP3    H162027   6.647   2.598   0.814 -2.7820 -0.2298 -1.3415
13512TIP3    H262028   6.674   2.475   0.729  0.7461 -0.1903 -0.4361
13513TIP3   OH262029   2.287   5.530  13.551 -0.3528 -0.0433 -0.1360
13513TIP3    H162030   2.207   5.489  13.585  0.0778 -0.4386  0.4140
13513TIP3    H262031   2.316   5.471  13.481  0.4771 -0.9208  0.9063
13514TIP3   OH262032   5.495   3.260  12.081  0.9656 -0.5985  0.1251
13514TIP3    H162033   5.418   3.245  12.026 -0.4079 -0.7228  1.9750
13514TIP3    H262034   5.492   3.190  12.146  2.9339 -0.8761 -0.0207
13515TIP3   OH262035   2.919   5.896   2.115  0.3799 -0.2918 -0.3536
13515TIP3    H162036   2.916   5.932   2.204  2.8512  2.1457 -1.1112
13515TIP3    H262037   2.892   5.969   2.059  0.2985 -1.3174 -1.6916
13516TIP3   OH262038   0.386   5.429   0.469  0.3385 -0.0442 -0.2415
13516TIP3    H162039   0.349   5.403   0.385 -0.0280 -1.4546  0.3406
13516TIP3    H262040   0.480   5.436   0.453  0.2517 -0.1325 -0.8027
13517TIP3   OH262041   1.656   6.721  16.853  0.5323 -0.3232 -0.9145
13517TIP3    H162042   1.676   6.763  16.769 -0.0685  0.1347 -0.8373
13517TIP3    H262043   1.711   6.643  16.855  3.1001  1.4061 -0.2241
13518TIP3   OH262044   4.339   3.586   2.728 -0.7307 -0.3922  0.1370
13518TIP3    H162045   4.254   3.547   2.709 -1.4815  0.9792  0.5809
13518TIP3    H262046   4.377   3.529   2.796 -0.4258 -2.1052 -1.3700
13519TIP3   OH262047   1.246   6.526  15.869  0.0706  0.2566 -0.1053
13519TIP3    H162048   1.269   6.616  15.850  0.4138 -0.1763 -1.8504
13519TIP3    H262049   1.281   6.475  15.796  0.0511 -1.3192  0.9245
13520TIP3   OH262050   0.254   0.734  12.973 -0.1352 -0.0806  0.4234
13520TIP3    H162051   0.217   0.646  12.977 -1.9560  0.6398  0.3816
13520TIP3    H262052   0.348   0.722  12.990 -0.7262 -1.7220  2.9855
13521TIP3   OH262053   0.689   4.596   2.844 -0.1916 -0.0395  0.1259
13521TIP3    H162054   0.746   4.537   2.894 -2.0534 -1.2322  0.9513
13521TIP3    H262055   0.746   4.631   2.775  1.0812 -2.7654 -0.3787
13522TIP3   OH262056   4.047   6.678   5.485 -0.3213  0.7339 -0.0222
13522TIP3    H162057   4.013   6.752   5.535  0.5385 -0.0936  1.8854
13522TIP3    H262058   4.142   6.683   5.495 -0.1674  0.1187 -0.9984
13523TIP3   OH262059   2.346   2.358  11.162 -0.3906  0.3050 -0.5105
13523TIP3    H162060   2.398   2.279  11.144 -0.8200 -0.0576 -0.1909
13523TIP3    H262061   2.410   2.421  11.196 -0.2097 -0.2652  0.2478
13524TIP3   OH262062   1.753   0.858  11.898  0.4898 -0.2040 -0.4123
13524TIP3    H162063   1.658   0.866  11.886  0.5241 -0.2800 -0.7346
13524TIP3    H262064   1.785   0.948  11.904  0.2944 -0.1783  0.5412
13525TIP3   OH262065   5.252   6.213   5.594  0.3879 -1.3468  0.1651
13525TIP3    H162066   5.240   6.300   5.557  1.0059 -0.7231  1.3742
13525TIP3    H262067   5.195   6.212   5.672 -0.4987 -2.4453 -0.4588
13526TIP3   OH262068   5.008   4.785  13.984  0.5507 -0.0988  0.4734
13526TIP3    H162069   4.922   4.803  14.022 -0.5872  0.5514 -2.2024
13526TIP3    H262070   5.019   4.691  13.994 -0.5864 -0.2310  0.6367
13527TIP3   OH262071   5.288   3.229  15.538 -0.1952 -0.0976  0.6928
13527TIP3    H162072   5.261   3.267  15.622 -1.1540 -1.9747  1.2884
13527TIP3    H262073   5.361   3.284  15.509 -1.4912  2.1869  1.4668
13528TIP3   OH262074   3.269   3.611   0.654 -0.0063 -0.0684 -0.6924
13528TIP3    H162075   3.302   3.693   0.691 -0.1611  0.0867 -0.8967
13528TIP3    H262076   3.265   3.551   0.728  0.1383  0.0995 -0.5483
13529TIP3   OH262077   6.154   1.474  13.679  0.3629 -0.4044 -0.3051
13529TIP3    H162078   6.243   1.482  13.713 -0.1209  1.4040  0.6534
13529TIP3    H262079   6.159   1.507  13.590  1.3098 -3.6691 -1.6066
13530TIP3   OH262080   6.473   2.980  15.426 -0.1209  0.5644  0.0065
13530TIP3    H162081   6.496   3.067  15.460  0.6912 -0.0976  1.2352
13530TIP3    H262082   6.470   2.924  15.503  0.1936 -0.6798 -0.8487
13531TIP3   OH262083   3.716   2.817  14.381  0.0014 -0.0223  0.7400
13531TIP3    H162084   3.668   2.797  14.301 -3.9345  1.0218  2.5555
13531TIP3    H262085   3.773   2.742  14.395  1.0480 -0.1319 -3.0453
13532TIP3   OH262086   3.867   5.646   0.855 -0.1801  0.0006  0.5098
13532TIP3    H162087   3.811   5.723   0.865 -0.9364 -0.4616 -0.0288
13532TIP3    H262088   3.933   5.672   0.791 -1.2321 -0.2117 -0.6904
13533TIP3   OH262089   3.108   0.371  15.576 -0.4903 -0.2959 -0.3710
13533TIP3    H162090   3.121   0.277  15.559 -0.7706 -0.3131 -0.4999
13533TIP3    H262091   3.196   0.406  15.588 -0.0903 -0.0185 -3.2747
13534TIP3   OH262092   1.945   2.565   3.879  0.5619  0.1338  0.1814
13534TIP3    H162093   1.928   2.609   3.795 -0.1347 -0.3647  0.0558
13534TIP3    H262094   1.869   2.508   3.892  0.4295  0.5649  1.3952
13535TIP3   OH262095   0.307   2.905  13.616  0.2260  0.2213 -0.3913
13535TIP3    H162096   0.365   2.843  13.571 -0.4955 -0.8932  0.1664
13535TIP3    H262097   0.340   2.991  13.591  1.4546 -0.3840 -0.9400
13536TIP3   OH262098   2.858   4.000  13.459  0.1760 -0.0209  0.0502
13536TIP3    H162099   2.819   3.933  13.515  0.5998 -0.6026 -0.3314
13536TIP3    H262100   2.789   4.064  13.445 -0.6607 -1.0380 -0.6313
13537TIP3   OH262101   1.526   6.792   0.509 -0.1052 -0.0317 -0.3499
13537TIP3    H162102   1.594   6.800   0.442  0.2933  0.6283  0.1259
13537TIP3    H262103   1.448   6.830   0.468  0.1804  0.5345 -0.3743
13538TIP3   OH262104   2.826   0.720  15.977 -1.4001 -0.1272 -0.2110
13538TIP3    H162105   2.792   0.641  16.019  0.1499 -1.1499 -0.7662
13538TIP3    H262106   2.913   0.694  15.946 -0.2760  2.1995  0.7650
13539TIP3   OH262107   2.838   4.860  16.226 -0.0473 -0.5619  0.0751
13539TIP3    H162108   2.754   4.871  16.181 -0.6172 -0.7633  1.0804
13539TIP3    H262109   2.884   4.942  16.211 -1.2688  0.3839  1.2611
13540TIP3   OH262110   3.119   6.423   3.199  0.2685  0.3314  0.5995
13540TIP3    H162111   3.146   6.467   3.280 -3.0757  0.9943  1.4943
13540TIP3    H262112   3.086   6.338   3.227  1.1243 -0.3711 -0.4167
13541TIP3   OH262113   5.573   4.936   4.101  0.4256  0.0480 -0.2970
13541TIP3    H162114   5.502   4.965   4.160  0.6899  0.2499 -0.0770
13541TIP3    H262115   5.612   4.862   4.147  1.2093  0.7546  0.2164
13542TIP3   OH262116   4.308   3.721  13.474  0.0736 -0.1848 -0.5467
13542TIP3    H162117   4.385   3.667  13.495  0.7927  1.0667  0.1166
13542TIP3    H262118   4.245   3.702  13.543  0.5145  0.1775 -0.0382
13543TIP3   OH262119   3.277   4.884   2.039  0.7056  0.0773 -0.5187
13543TIP3    H162120   3.330   4.855   2.113  0.6673 -0.6549 -0.7709
13543TIP3    H262121   3.199   4.829   2.042 -0.5925  1.8673  0.4934
13544TIP3   OH262122   3.233   2.941   3.343 -0.4163 -0.1907 -0.2951
13544TIP3    H162123   3.204   3.029   3.368 -0.3203  0.0105 -0.8645
13544TIP3    H262124   3.190   2.926   3.258 -1.9264 -1.4376  0.6412
13545TIP3   OH262125   0.286   0.677   1.999 -0.2551  0.1039 -0.1327
13545TIP3    H162126   0.291   0.639   1.912 -1.2936 -0.5352  0.0666
13545TIP3    H262127   0.353   0.745   2.000 -1.3653  1.3085 -2.0198
13546TIP3   OH262128   5.175   6.037   3.521 -0.0660 -0.0071 -0.1974
13546TIP3    H162129   5.136   6.062   3.437  0.9277  0.5489 -0.5131
13546TIP3    H262130   5.257   5.993   3.497 -0.0872 -0.4163  0.4681
13547TIP3   OH262131   0.584   2.554   4.500 -1.0590  0.2490 -0.0374
13547TIP3    H162132   0.549   2.467   4.483 -0.8438 -0.2855  2.0563
13547TIP3    H262133   0.626   2.548   4.585 -0.7538  2.3246  0.0229
13548TIP3   OH262134   4.347   2.172   3.890 -0.2620  0.2319 -0.0450
13548TIP3    H162135   4.413   2.204   3.951  0.8141 -2.0784  0.0954
13548TIP3    H262136   4.304   2.251   3.858 -0.3473  1.5895  3.0803
13549TIP3   OH262137   2.512   2.268   4.162 -0.0208 -0.3319  0.5801
13549TIP3    H162138   2.584   2.306   4.113  0.0705  0.7999  1.5571
13549TIP3    H262139   2.433   2.299   4.117  0.0448 -2.4515 -1.1497
13550TIP3   OH262140   0.472   3.087  13.500  0.7348 -0.1717 -0.1573
13550TIP3    H162141   0.547   3.130  13.460  0.4998 -0.0643 -0.4862
13550TIP3    H262142   0.410   3.158  13.518  0.5046 -0.3233 -0.3494
13551TIP3   OH262143   5.402   4.189  17.026  0.2793  0.1128  0.7255
13551TIP3    H162144   5.453   4.108  17.021  2.3761  1.3896  0.5647
13551TIP3    H262145   5.355   4.192  16.942 -1.3398 -1.8226  1.4773
13552TIP3   OH262146   2.717   5.210   0.206 -0.1744 -0.2923  0.2371
13552TIP3    H162147   2.676   5.132   0.242 -0.7849 -1.0426 -1.9149
13552TIP3    H262148   2.801   5.180   0.172  0.1619  0.2757  0.5488
13553TIP3   OH262149   0.079   2.228  12.076  0.3572  0.3687  0.3658
13553TIP3    H162150   0.016   2.193  12.139 -1.1463  1.8316 -0.2599
13553TIP3    H262151   0.161   2.233  12.125 -0.2559 -0.5357  1.5402
13554TIP3   OH262152   3.524   6.192  14.239 -0.0591 -0.2816  0.2438
13554TIP3    H162153   3.454   6.219  14.299 -0.7308  0.6495 -0.9255
13554TIP3    H262154   3.479   6.169  14.158  0.7575 -2.3797  0.3306
13555TIP3   OH262155   5.035   2.163  13.374  0.0119  0.4827 -0.4015
13555TIP3    H162156   4.954   2.160  13.324  0.7926 -0.8376 -1.6612
13555TIP3    H262157   5.028   2.090  13.435 -0.4479  1.4050  0.6873
13556TIP3   OH262158   2.061   2.816   3.316  0.9098  0.0435 -0.1212
13556TIP3    H162159   2.020   2.839   3.399  0.4955  1.9827 -0.8157
13556TIP3    H262160   2.018   2.871   3.251  1.6510 -0.9818 -1.5483
13557TIP3   OH262161   0.878   4.529   0.395 -0.2517  0.3403  0.4212
13557TIP3    H162162   0.901   4.554   0.306 -0.1287  0.0009  0.3551
13557TIP3    H262163   0.792   4.569   0.410 -0.2753  0.3939  0.1495
13558TIP3   OH262164   5.446   6.191   3.587  0.3476  0.4108  0.6637
13558TIP3    H162165   5.433   6.098   3.570  1.4796  0.0939  1.3791
13558TIP3    H262166   5.392   6.235   3.523 -1.5856 -0.7386  1.4177
13559TIP3   OH262167   5.442   3.469   0.874 -0.1598  0.6526 -0.0090
13559TIP3    H162168   5.383   3.426   0.935  0.0080  0.0130 -0.2908
13559TIP3    H262169   5.417   3.434   0.788  1.2903 -0.4229 -0.0294
13560TIP3   OH262170   2.660   2.196  13.733 -0.1559  0.0221 -0.1051
13560TIP3    H162171   2.688   2.104  13.730  0.5638  0.1967  0.9126
13560TIP3    H262172   2.566   2.192  13.754  0.2471 -0.4560  1.7386
13561TIP3   OH262173   2.110   2.799  16.831  0.2089  0.1418  0.2742
13561TIP3    H162174   2.077   2.804  16.741 -1.5561  1.1403  0.9214
13561TIP3    H262175   2.198   2.762  16.823  0.4583  1.0678 -1.9495
13562TIP3   OH262176   6.619   1.106   3.112  0.4230  0.3337 -0.1627
13562TIP3    H162177   6.540   1.089   3.061 -0.2708  1.4208  0.4905
13562TIP3    H262178   6.650   1.191   3.080 -0.0515  1.0520  1.2097
13563TIP3   OH262179   1.922   1.160  11.129  0.7828  0.2766  0.0838
13563TIP3    H162180   1.994   1.176  11.069  0.2476  0.4035 -0.5309
13563TIP3    H262181   1.900   1.067  11.117  0.3611  0.4210 -0.2664
13564TIP3   OH262182   3.694   0.593   0.525  0.2864  0.0968  0.0638
13564TIP3    H162183   3.641   0.666   0.557  1.2291  1.1694 -0.7414
13564TIP3    H262184   3.755   0.633   0.463  0.4020 -1.4726 -0.9027
13565TIP3   OH262185   1.998   3.042   0.050 -0.3505 -0.5278  0.3365
13565TIP3    H162186   2.082   3.000   0.070 -0.7172 -1.6996 -0.4801
13565TIP3    H262187   1.959   3.060   0.135  0.6539 -0.1217  0.7221
13566TIP3   OH262188   5.412   4.979   0.831 -0.4936 -0.5252 -0.6441
13566TIP3    H162189   5.460   5.062   0.822 -0.9619  0.2176  2.4507
13566TIP3    H262190   5.324   5.000   0.799 -1.0200  0.7119  1.4068
13567TIP3   OH262191   1.523   0.606  11.376  0.9870 -0.4971  0.0445
13567TIP3    H162192   1.477   0.671  11.323  2.0861 -0.1825 -0.5441
13567TIP3    H262193   1.597   0.653  11.413 -0.0463 -0.5498  2.3718
13568TIP3   OH262194   0.754   1.698  14.223  0.4514 -0.0194 -0.3337
13568TIP3    H162195   0.782   1.674  14.312  1.2000  0.1963 -0.4996
13568TIP3    H262196   0.731   1.791  14.229 -0.2993 -0.2146 -0.1825
13569TIP3   OH262197   2.967   1.612  14.875  0.2763  0.0998 -0.3947
13569TIP3    H162198   3.004   1.572  14.954 -0.0481  2.5837  1.1258
13569TIP3    H262199   2.880   1.641  14.902  0.7139  2.3000 -1.2048
13570TIP3   OH262200   5.714   0.998   6.375 -0.1042  0.0977 -0.5332
13570TIP3    H162201   5.722   0.903   6.367  0.3435  0.1869 -1.2193
13570TIP3    H262202   5.780   1.022   6.440 -0.6713 -0.1300  0.1372
13571TIP3   OH262203   4.472   6.209   4.728  0.1118  1.0972  0.1020
13571TIP3    H162204   4.471   6.169   4.815 -0.0081  1.2079  0.1521
13571TIP3    H262205   4.431   6.294   4.741  0.7103  1.3918  0.0676
13572TIP3   OH262206   3.286   0.192  13.432  0.5687 -1.0188 -0.4330
13572TIP3    H162207   3.293   0.101  13.460  0.6268 -1.5824 -2.1971
13572TIP3    H262208   3.220   0.191  13.363  1.2104  0.1248 -1.0964
13573TIP3   OH262209   5.485   2.624  14.966  0.0494  0.9810 -0.1345
13573TIP3    H162210   5.463   2.533  14.951 -0.5145  1.0156  0.4201
13573TIP3    H262211   5.438   2.672  14.898  0.1786  0.8770 -0.2974
13574TIP3   OH262212   1.637   1.722  13.450 -0.5760  0.2947 -0.1080
13574TIP3    H162213   1.605   1.773  13.525 -0.4302  1.0865 -0.5669
13574TIP3    H262214   1.566   1.663  13.429 -0.6872  0.1806  0.5498
13575TIP3   OH262215   1.610   3.347  10.650  0.0442  0.3467 -0.3634
13575TIP3    H162216   1.547   3.328  10.580  0.1627 -1.0106 -0.1296
13575TIP3    H262217   1.574   3.423  10.695  0.0777  1.4016 -2.0259
13576TIP3   OH262218   4.285   1.104   1.394  0.7356  0.3870  0.5014
13576TIP3    H162219   4.346   1.074   1.327 -0.8285 -0.6317 -0.5461
13576TIP3    H262220   4.213   1.143   1.344  0.4708  1.4902  1.6896
13577TIP3   OH262221   6.527   5.083  11.492 -0.3383 -0.2092 -0.1962
13577TIP3    H162222   6.448   5.076  11.439 -0.3643 -1.0702 -0.0654
13577TIP3    H262223   6.498   5.061  11.581 -0.5042  2.1834  0.4003
13578TIP3   OH262224   4.376   4.615  14.684 -0.2290  0.0315 -0.2903
13578TIP3    H162225   4.465   4.587  14.706 -0.3181 -0.9625 -1.1278
13578TIP3    H262226   4.357   4.572  14.601 -0.8743  1.5946 -0.9904
13579TIP3   OH262227   0.569   1.759   3.550  0.0249  0.0969 -0.5150
13579TIP3    H162228   0.481   1.726   3.531 -1.0645  2.4372  0.1152
13579TIP3    H262229   0.573   1.765   3.645  0.1727  1.6976 -0.6063
13580TIP3   OH262230   5.775   6.795  12.544 -1.1617  0.2709 -0.2479
13580TIP3    H162231   5.745   6.772  12.632 -0.0007  0.8644  0.3266
13580TIP3    H262232   5.721   6.742  12.486 -1.6284 -0.4917  0.8401
13581TIP3   OH262233   4.924   0.038   4.289  0.3000  0.0293 -0.7461
13581TIP3    H162234   4.886   0.103   4.349  2.2202  1.5044 -1.0409
13581TIP3    H262235   4.940   0.086   4.208  2.6425 -0.5289 -0.6767
13582TIP3   OH262236   3.085   6.213  11.773  1.1234 -0.2511 -0.2854
13582TIP3    H162237   3.180   6.214  11.766  1.1493  1.7029 -0.2134
13582TIP3    H262238   3.068   6.211  11.867  1.1536  1.4309 -0.2158
13583TIP3   OH262239   0.992   1.155   4.690 -0.1456 -0.3726  0.1493
13583TIP3    H162240   0.923   1.198   4.740  1.6007  2.4723  0.3566
13583TIP3    H262241   1.046   1.112   4.756  1.0063  1.6487  0.5968
13584TIP3   OH262242   2.640   0.880  14.303 -0.1583  0.1184 -0.2604
13584TIP3    H162243   2.724   0.888  14.259 -0.8032  1.4988 -1.2997
13584TIP3    H262244   2.650   0.930  14.384  0.2922 -0.4821  0.0614
13585TIP3   OH262245   5.343   4.849   2.835 -0.3002  0.3314  0.2559
13585TIP3    H162246   5.394   4.928   2.854  0.6704  0.3103 -1.9690
13585TIP3    H262247   5.254   4.872   2.859  0.0730  1.9102  0.2173
13586TIP3   OH262248   3.241   3.794  11.938 -0.5383  0.1053 -0.2336
13586TIP3    H162249   3.319   3.778  11.991  0.3347 -1.1379 -1.7887
13586TIP3    H262250   3.174   3.822  12.001  0.8456  0.1306  1.2915
13587TIP3   OH262251   0.791   1.280  13.086  0.0044 -0.1224 -0.6629
13587TIP3    H162252   0.710   1.258  13.132 -0.9236 -0.6044 -2.4309
13587TIP3    H262253   0.854   1.214  13.114 -0.6776 -0.6978 -0.4561
13588TIP3   OH262254   0.187   2.325  16.119 -0.0413 -0.0445 -0.6166
13588TIP3    H162255   0.280   2.313  16.101 -0.2055 -0.6902 -1.0342
13588TIP3    H262256   0.165   2.256  16.181 -0.9219 -1.8579 -2.8321
13589TIP3   OH262257   1.527   6.268  11.177 -0.7935  0.4156 -0.5683
13589TIP3    H162258   1.573   6.185  11.166  1.1786  1.2039  1.0829
13589TIP3    H262259   1.497   6.291  11.089  1.1337 -0.6593 -1.5671
13590TIP3   OH262260   3.639   1.824  17.166 -0.3367  0.0330  0.4201
13590TIP3    H162261   3.704   1.756  17.146  0.8016  0.9950  0.7571
13590TIP3    H262262   3.663   1.854  17.254 -1.7107 -0.1057  0.8664
13591TIP3   OH262263   3.735   4.680   0.389 -0.1956  0.8851 -0.3061
13591TIP3    H162264   3.672   4.640   0.329 -1.9491  0.1801  1.9156
13591TIP3    H262265   3.797   4.725   0.331 -0.4467 -1.6336 -2.7555
13592TIP3   OH262266   4.752   6.600  12.243 -0.1795 -0.0919 -0.4925
13592TIP3    H162267   4.729   6.578  12.334 -0.2159 -0.8327 -0.6728
13592TIP3    H262268   4.703   6.680  12.224  0.1403  0.2924  0.2717
13593TIP3   OH262269   0.873   2.151  12.558 -0.6007 -0.6707 -0.0499
13593TIP3    H162270   0.879   2.121  12.468  1.8348  2.0575 -0.9553
13593TIP3    H262271   0.936   2.096  12.606 -1.0765 -1.3718 -0.2131
13594TIP3   OH262272   0.279   4.350  16.867  0.5788  0.0354  0.0335
13594TIP3    H162273   0.280   4.254  16.864 -0.6159  0.0152 -0.1499
13594TIP3    H262274   0.227   4.371  16.945 -0.1302  0.5215 -0.5570
13595TIP3   OH262275   2.016   1.737  15.918  0.0226 -0.4545 -0.1174
13595TIP3    H162276   1.983   1.783  15.995 -1.1605  0.0283 -0.8861
13595TIP3    H262277   2.053   1.655  15.952  1.9511  0.9132  1.2455
13596TIP3   OH262278   1.456   3.026  14.811  0.2036  0.0821  0.5398
13596TIP3    H162279   1.486   3.115  14.830 -0.7587  0.6842 -0.5627
13596TIP3    H262280   1.536   2.975  14.800  0.7832  0.9587  0.5674
13597TIP3   OH262281   0.995   3.646   1.562 -0.2311 -0.1275 -0.2925
13597TIP3    H162282   1.008   3.554   1.587 -1.2803  0.0755  1.1374
13597TIP3    H262283   1.051   3.695   1.623 -1.3056  0.2695  0.4175
13598TIP3   OH262284   0.439   4.602  13.565 -0.4779  0.2237 -0.4985
13598TIP3    H162285   0.439   4.525  13.509 -0.7995  0.8693 -1.4018
13598TIP3    H262286   0.445   4.567  13.654 -2.2735 -0.9231 -0.7902
13599TIP3   OH262287   2.087   0.671  10.623 -0.0266  0.4824 -0.1336
13599TIP3    H162288   2.165   0.617  10.616 -0.4624  0.0199 -2.0815
13599TIP3    H262289   2.015   0.609  10.633 -0.4213  0.7289 -1.2813
13600TIP3   OH262290   4.783   3.415  17.220  0.5230 -0.4987  0.1691
13600TIP3    H162291   4.869   3.453  17.200 -0.0025  0.2648 -0.7728
13600TIP3    H262292   4.747   3.394  17.134 -0.2488 -0.7716  0.5561
13601TIP3   OH262293   0.134   4.564  13.630 -0.5205 -0.6389  0.4828
13601TIP3    H162294   0.139   4.499  13.701  2.0655  0.8011  1.7753
13601TIP3    H262295   0.220   4.606  13.630 -0.3552 -0.5625 -3.6038
13602TIP3   OH262296   5.662   4.413   2.311  0.1987  0.0543 -0.7440
13602TIP3    H162297   5.637   4.367   2.231 -0.3160  0.1581 -0.6416
13602TIP3    H262298   5.758   4.414   2.309  0.2426 -1.6103 -0.4132
13603TIP3   OH262299   0.201   2.766  12.290  0.6685  0.0844 -0.2064
13603TIP3    H162300   0.153   2.833  12.241  0.9294  1.1542  0.9542
13603TIP3    H262301   0.170   2.683  12.254 -1.8553  0.7308  0.3314
13604TIP3   OH262302   4.121   0.664  15.880  0.1758  0.4152 -0.3333
13604TIP3    H162303   4.107   0.728  15.810  2.1291  0.4171 -0.7638
13604TIP3    H262304   4.047   0.679  15.940  0.0105  2.3672 -0.9345
13605TIP3   OH262305   4.599   1.361  16.474  0.4060 -0.0429  0.8913
13605TIP3    H162306   4.608   1.451  16.443 -1.7089  0.9506  2.9167
13605TIP3    H262307   4.675   1.347  16.529  0.1766  0.9476  1.4893
13606TIP3   OH262308   1.383   0.798   0.012 -0.1275  0.0698  0.3999
13606TIP3    H162309   1.408   0.749   0.091 -0.4283  0.5122  0.7701
13606TIP3    H262310   1.374   0.730  -0.055  1.3832 -0.1819  0.4131
13607TIP3   OH262311   4.640   2.556  14.746  0.2312  1.0520  0.0149
13607TIP3    H162312   4.712   2.517  14.699 -0.5597 -0.3846 -0.0489
13607TIP3    H262313   4.649   2.523  14.836  0.0966  1.5044  0.2013
13608TIP3   OH262314   5.880   2.925  14.042  0.1475  0.5373  0.1019
13608TIP3    H162315   5.910   3.014  14.058 -0.2504  0.4845  1.1929
13608TIP3    H262316   5.923   2.900  13.960 -2.3515  2.9042 -2.0942
13609TIP3   OH262317   3.549   1.259  13.825 -0.2212 -0.3045 -0.0170
13609TIP3    H162318   3.565   1.267  13.731 -2.0747  1.2697 -0.2598
13609TIP3    H262319   3.508   1.173  13.836 -3.1802  0.8386 -1.2327
13610TIP3   OH262320   0.218   4.526  13.157  0.6085 -0.4162  0.1216
13610TIP3    H162321   0.299   4.577  13.160 -1.1099  2.5166  1.3542
13610TIP3    H262322   0.172   4.559  13.080 -0.4972 -0.1559  0.8703
13611TIP3   OH262323   3.558   0.036   4.037 -0.1695 -0.2409  0.0478
13611TIP3    H162324   3.644  -0.002   4.021 -0.1619  0.2690 -1.2135
13611TIP3    H262325   3.509  -0.035   4.080  0.2981 -1.1781 -0.9233
13612TIP3   OH262326   6.715   5.296   6.612 -0.1697 -0.2414  0.1175
13612TIP3    H162327   6.624   5.313   6.588 -0.2286  1.2808  1.3127
13612TIP3    H262328   6.763   5.374   6.583  0.8382 -1.1640 -0.8001
13613TIP3   OH262329   5.493   4.506   0.388 -0.0843 -0.0952  0.1863
13613TIP3    H162330   5.522   4.571   0.453  0.6148 -0.0931 -0.1114
13613TIP3    H262331   5.404   4.484   0.414  0.2337 -0.2158  1.2405
13614TIP3   OH262332   5.207   2.830  14.972  0.1530 -0.4651 -0.0718
13614TIP3    H162333   5.276   2.836  15.038 -0.1286 -0.5961  0.2337
13614TIP3    H262334   5.140   2.891  15.001  0.0831 -0.4282 -0.3052
13615TIP3   OH262335   1.445   4.994  11.771 -0.0914 -0.2341  0.0196
13615TIP3    H162336   1.498   4.952  11.839 -0.9673  0.6678  1.2954
13615TIP3    H262337   1.369   4.938  11.761  1.1445 -1.6747 -2.0073
13616TIP3   OH262338   1.120   3.495  16.820  0.3455  0.3413 -0.0842
13616TIP3    H162339   1.181   3.421  16.816  0.1384  0.1897 -0.5984
13616TIP3    H262340   1.034   3.455  16.832  0.3757  0.5715  0.9714
13617TIP3   OH262341   4.201   0.923  16.700  0.0392 -0.5145  0.4250
13617TIP3    H162342   4.239   0.841  16.733  0.2355 -0.1858  1.0224
13617TIP3    H262343   4.274   0.984  16.698 -0.4463  0.1222  1.5869
13618TIP3   OH262344   4.080   6.355   1.709 -0.3306  0.7756  0.6682
13618TIP3    H162345   4.024   6.280   1.690  0.1552  0.5329  0.1371
13618TIP3    H262346   4.020   6.428   1.722 -0.7647  0.5888 -0.1974
13619TIP3   OH262347   3.779   5.898   3.039  0.0081 -0.3109 -0.3297
13619TIP3    H162348   3.829   5.887   2.959 -0.3858 -0.8465 -0.5056
13619TIP3    H262349   3.801   5.821   3.092  2.3561  1.2617  1.2528
13620TIP3   OH262350   5.990   0.795  11.044 -0.9133  0.0763 -0.0696
13620TIP3    H162351   5.958   0.705  11.051 -2.1791  0.4881 -0.2197
13620TIP3    H262352   5.911   0.848  11.051 -0.3945  1.1169 -1.7077
13621TIP3   OH262353   0.704   5.257   4.569  0.3195  0.0131 -0.3762
13621TIP3    H162354   0.696   5.338   4.520 -2.0158  1.0085  1.4664
13621TIP3    H262355   0.795   5.230   4.557  1.7329  3.8537  0.3943
13622TIP3   OH262356   0.535   4.855  14.819 -0.5830 -0.0734  0.1488
13622TIP3    H162357   0.575   4.783  14.769 -0.1314  0.9530 -1.0149
13622TIP3    H262358   0.457   4.879  14.769  0.4608  1.6935 -0.7161
13623TIP3   OH262359   2.400   1.839  15.097 -0.0422  0.4100 -0.6524
13623TIP3    H162360   2.376   1.747  15.103 -0.7531  0.6951  2.2812
13623TIP3    H262361   2.331   1.886  15.144  1.5136  2.1764  0.0312
13624TIP3   OH262362   1.815   4.039   1.967 -0.3137  0.1812  0.1439
13624TIP3    H162363   1.803   4.126   1.929 -1.5451  0.6839  1.5957
13624TIP3    H262364   1.812   4.053   2.061  0.3441 -1.3369  0.4215
13625TIP3   OH262365   5.011   5.138  10.948  0.5996 -0.3493 -0.8732
13625TIP3    H162366   5.019   5.160  10.855  0.4788 -0.1238 -0.8314
13625TIP3    H262367   4.973   5.216  10.987  1.5103 -0.0893 -0.4749
13626TIP3   OH262368   2.756   2.865   6.003 -0.0850  0.7171 -0.0694
13626TIP3    H162369   2.734   2.799   5.937  0.5833  0.0847  0.3122
13626TIP3    H262370   2.795   2.937   5.953  1.5583 -0.2698 -0.2951
13627TIP3   OH262371   2.350   5.189   1.216  0.0505  0.2740 -0.6992
13627TIP3    H162372   2.292   5.253   1.258  0.5999 -0.0197  0.5574
13627TIP3    H262373   2.399   5.240   1.151 -0.4077  0.8610 -0.5995
13628TIP3   OH262374   5.026   5.433   4.979  0.3884  0.3465  0.1859
13628TIP3    H162375   5.067   5.433   5.065 -0.9805 -0.7201  0.8649
13628TIP3    H262376   4.964   5.361   4.981 -1.9838  2.2246 -0.5964
13629TIP3   OH262377   3.639   1.979   2.710 -0.1692 -0.1024  0.0220
13629TIP3    H162378   3.650   1.895   2.667 -1.9145  0.5019 -1.7877
13629TIP3    H262379   3.660   2.044   2.643 -0.3356  0.9173  0.9107
13630TIP3   OH262380   0.274   6.542  13.906  0.5189 -0.3349  0.0412
13630TIP3    H162381   0.268   6.456  13.865 -0.0360 -0.3270  0.0922
13630TIP3    H262382   0.185   6.577  13.901  0.9123  0.6227 -0.8208
13631TIP3   OH262383   2.633   5.602  16.553 -0.0057 -0.0359 -0.3978
13631TIP3    H162384   2.633   5.525  16.610 -0.6097  0.3615  0.1590
13631TIP3    H262385   2.697   5.661  16.593 -1.9909  1.1637  1.2054
13632TIP3   OH262386   5.013   5.800  12.212 -0.5001  0.0371  0.6378
13632TIP3    H162387   5.039   5.886  12.247 -0.5529 -0.3139  1.5862
13632TIP3    H262388   5.046   5.738  12.277 -1.8373 -0.5637  0.7780
13633TIP3   OH262389   2.636   1.686  13.876 -0.0753  0.4222  0.4242
13633TIP3    H162390   2.718   1.689  13.926 -0.5453 -0.6420  1.3169
13633TIP3    H262391   2.616   1.592  13.869 -1.2576  0.6678  0.3042
13634TIP3   OH262392   5.194   6.707  17.230 -0.3691  0.1096  0.0751
13634TIP3    H162393   5.183   6.779  17.168  1.9365 -0.3769 -1.0114
13634TIP3    H262394   5.163   6.629  17.182  2.5709 -0.4697 -1.0896
13635TIP3   OH262395   3.051   0.186  14.145  0.1420 -0.1917 -0.1361
13635TIP3    H162396   3.135   0.217  14.180  0.4408 -0.7283 -0.3519
13635TIP3    H262397   3.046   0.225  14.057 -0.1161  0.3117  0.0965
13636TIP3   OH262398   4.074   5.802   0.975 -0.3654  0.1889 -0.2585
13636TIP3    H162399   4.016   5.752   0.918  0.8354  0.7993 -2.1367
13636TIP3    H262400   4.155   5.751   0.978 -1.4525 -1.6693  3.9372
13637TIP3   OH262401   2.744   2.347  12.078 -0.5580  0.4368  0.3359
13637TIP3    H162402   2.783   2.322  11.994 -0.9900  0.1294  0.2209
13637TIP3    H262403   2.730   2.441  12.072  0.1852  0.5515  0.3870
13638TIP3   OH262404   1.163   5.222   2.014  0.0172  0.3620  0.7506
13638TIP3    H162405   1.133   5.247   2.102  2.4150  0.8319  1.5129
13638TIP3    H262406   1.091   5.171   1.978 -1.1708  0.4091  2.8683
13639TIP3   OH262407   3.243   4.553   4.835 -0.1740 -0.2172 -0.5512
13639TIP3    H162408   3.250   4.604   4.916  1.1336  0.5033 -1.0803
13639TIP3    H262409   3.149   4.540   4.823 -0.4892  1.1269  0.1975
13640TIP3   OH262410   1.874   5.530  14.980 -0.6001  0.5682 -0.1564
13640TIP3    H162411   1.838   5.616  14.998 -1.4653 -0.0055  1.0041
13640TIP3    H262412   1.931   5.511  15.054  0.2754  0.4923 -0.8358
13641TIP3   OH262413   5.702   6.181   6.026  0.2158  0.3906  0.3197
13641TIP3    H162414   5.728   6.255   5.971 -0.4118  0.9630  0.7712
13641TIP3    H262415   5.709   6.215   6.116  0.0256 -0.1339  0.5335
13642TIP3   OH262416   1.980   6.024   2.035 -0.5258  0.1164  0.1642
13642TIP3    H162417   1.948   5.946   2.080  0.1418 -0.8907 -1.0395
13642TIP3    H262418   1.940   6.097   2.082  0.2550 -0.8575  2.4905
13643TIP3   OH262419   1.044   6.799  14.822 -0.5407 -0.1079  0.0430
13643TIP3    H162420   1.023   6.879  14.870 -1.5450 -0.4489  0.2093
13643TIP3    H262421   0.959   6.764  14.796 -0.0264  0.2304 -2.2862
13644TIP3   OH262422   0.468   6.327  15.490 -0.1492 -0.1419  0.0470
13644TIP3    H162423   0.416   6.250  15.465 -0.9375  0.3410  0.1766
13644TIP3    H262424   0.487   6.313  15.583 -1.2601  0.3504  0.3682
13645TIP3   OH262425   5.801   0.850   1.471 -0.6843  0.5066 -0.2986
13645TIP3    H162426   5.790   0.868   1.564 -1.4500  0.2391 -0.3314
13645TIP3    H262427   5.824   0.935   1.433  0.2240  0.5019  0.2165
13646TIP3   OH262428   4.392   4.292  14.770  0.0777  0.1265 -0.5395
13646TIP3    H162429   4.339   4.348  14.826 -0.4990  0.0199 -0.9739
13646TIP3    H262430   4.482   4.322  14.784 -0.0549  0.0525  0.4814
13647TIP3   OH262431   4.260   6.162   1.772 -0.3883 -0.2155  0.0126
13647TIP3    H162432   4.191   6.115   1.725  0.1386  0.4104 -1.4628
13647TIP3    H262433   4.223   6.249   1.788 -1.2918 -0.9989  2.5667
13648TIP3   OH262434   5.028   3.693   5.534  0.1661  0.0599  0.0834
13648TIP3    H162435   4.959   3.627   5.546  1.1543 -1.0537 -0.1733
13648TIP3    H262436   5.022   3.717   5.441  1.6457 -1.8661 -0.5891
13649TIP3   OH262437   1.009   4.856  13.461  0.2498 -0.7421  0.0889
13649TIP3    H162438   1.044   4.800  13.529  0.0310 -0.7968  0.1580
13649TIP3    H262439   0.915   4.836  13.459  0.2438 -0.6921 -0.1794
13650TIP3   OH262440   0.476   5.394   3.086  0.7791 -0.6253  0.3071
13650TIP3    H162441   0.524   5.433   3.013 -0.3272  1.0179  0.3953
13650TIP3    H262442   0.432   5.468   3.128 -1.3885 -1.9462  0.5246
13651TIP3   OH262443   2.204   5.141  11.131  0.7770  0.1700 -0.1362
13651TIP3    H162444   2.266   5.143  11.058 -0.7638  1.7919 -1.5185
13651TIP3    H262445   2.137   5.205  11.107 -0.2758  0.1081  2.3212
13652TIP3   OH262446   0.234   0.558  11.747 -0.7086  0.3019 -0.4612
13652TIP3    H162447   0.153   0.525  11.786 -1.9956  1.8417 -1.6830
13652TIP3    H262448   0.250   0.501  11.672 -0.7838  0.1251 -0.3424
13653TIP3   OH262449   4.110   4.260  16.622 -0.1940  0.3838 -0.2921
13653TIP3    H162450   4.193   4.259  16.576 -0.0611 -0.2666 -0.0493
13653TIP3    H262451   4.122   4.326  16.691  0.9471 -1.2795  1.1936
13654TIP3   OH262452   0.895   0.884   2.361  0.0024 -0.2169 -0.5094
13654TIP3    H162453   0.803   0.859   2.372 -0.2812  0.1931 -1.8249
13654TIP3    H262454   0.896   0.979   2.374  0.2677 -0.2449 -0.3197
13655TIP3   OH262455   3.080   4.062  15.206 -0.1361  0.2144  0.2725
13655TIP3    H162456   3.132   4.080  15.284  0.7276  0.6376 -0.3778
13655TIP3    H262457   3.139   4.012  15.149 -1.3996 -1.8939  0.6837
13656TIP3   OH262458   5.962   0.283   3.578  0.6623  0.0943  0.2370
13656TIP3    H162459   6.040   0.250   3.534  0.5658  0.1920 -0.0147
13656TIP3    H262460   5.917   0.205   3.610  0.7403  0.0217  0.1682
13657TIP3   OH262461   4.692   4.869   2.133  0.3544  0.1366 -0.1278
13657TIP3    H162462   4.648   4.821   2.204  2.2417 -0.4314  0.7177
13657TIP3    H262463   4.771   4.818   2.115  1.3808  1.8434 -0.6397
13658TIP3   OH262464   1.457   4.999   5.194  0.0503  0.1587 -0.2195
13658TIP3    H162465   1.377   4.983   5.143 -1.0130  0.8942  1.1575
13658TIP3    H262466   1.522   4.941   5.154 -0.8556  0.3179 -2.0660
13659TIP3   OH262467   6.678   6.269   2.290 -0.0321  0.0353 -0.1851
13659TIP3    H162468   6.592   6.269   2.248 -1.3058 -4.6884  1.7963
13659TIP3    H262469   6.667   6.324   2.368 -0.8341  0.5072 -0.6202
13660TIP3   OH262470   6.264   2.822   0.245  0.1219 -0.1609  0.4670
13660TIP3    H162471   6.265   2.830   0.340  0.9947 -0.5847  0.5055
13660TIP3    H262472   6.255   2.728   0.229  0.4775 -0.1423  0.1417
13661TIP3   OH262473   0.118   1.573   5.459  0.3899 -0.2558  0.0723
13661TIP3    H162474   0.117   1.561   5.364 -1.7506  0.1515 -0.0132
13661TIP3    H262475   0.193   1.631   5.475  0.5746 -0.0392 -1.4068
13662TIP3   OH262476   4.978   5.303  13.756 -0.5374  0.1532  0.0964
13662TIP3    H162477   5.005   5.257  13.836 -0.5086  0.8822  0.5239
13662TIP3    H262478   4.986   5.396  13.779  0.2477  0.3822 -1.0180
13663TIP3   OH262479   2.642   1.054   0.318 -0.0556  0.2416 -0.2070
13663TIP3    H162480   2.550   1.032   0.333 -0.1896 -0.2723 -1.6109
13663TIP3    H262481   2.639   1.132   0.262  0.3247 -0.3687 -1.1081
13664TIP3   OH262482   5.885   0.438  14.123 -0.1200 -0.4465 -0.6790
13664TIP3    H162483   5.974   0.406  14.107  0.7100  0.0631  2.2669
13664TIP3    H262484   5.832   0.359  14.129  0.1745 -0.7727 -2.1091
13665TIP3   OH262485   2.598   0.770  15.840 -0.2035 -0.2875 -0.5975
13665TIP3    H162486   2.583   0.692  15.787 -0.0896 -0.5392 -0.2622
13665TIP3    H262487   2.670   0.746  15.898 -0.7309 -0.2217  0.0948
13666TIP3   OH262488   6.039   2.951  12.261  0.9388 -0.1796 -0.0739
13666TIP3    H162489   6.082   3.033  12.240  1.2745 -0.1201  0.8222
13666TIP3    H262490   6.040   2.901  12.179  0.7479  0.6891 -0.6122
13667TIP3   OH262491   6.241   6.743  13.080 -0.3883  0.3633 -0.2042
13667TIP3    H162492   6.251   6.657  13.121 -1.8106 -0.7723 -2.1135
13667TIP3    H262493   6.245   6.805  13.154  1.6609 -1.2027  1.1080
13668TIP3   OH262494   6.334   1.567   3.034  0.0136 -0.5019 -0.0357
13668TIP3    H162495   6.308   1.593   2.946  0.1249 -1.4900 -0.3648
13668TIP3    H262496   6.426   1.595   3.041 -0.1353  0.0016 -0.0559
13669TIP3   OH262497   0.991   5.835  13.906  0.2875 -1.3334  0.6352
13669TIP3    H162498   1.022   5.847  13.817 -1.1156 -0.9052  0.1687
13669TIP3    H262499   1.061   5.787  13.950  0.4942 -2.6438 -1.0271
13670TIP3   OH262500   5.958   1.485  12.559 -0.3591 -0.4907 -0.2672
13670TIP3    H162501   6.012   1.406  12.561  1.9285  0.9683  2.2373
13670TIP3    H262502   5.964   1.515  12.468  1.1053 -1.6675 -0.6183
13671TIP3   OH262503   2.277   2.998  11.976 -0.0825  0.0144  0.0754
13671TIP3    H162504   2.322   3.081  11.959 -1.5845  0.6784 -0.8457
13671TIP3    H262505   2.212   3.019  12.043 -1.9943  0.2032 -1.7157
13672TIP3   OH262506   1.482   5.950  12.082 -0.1988 -0.2308 -0.8737
13672TIP3    H162507   1.556   5.898  12.050 -1.6466 -2.4061 -0.9209
13672TIP3    H262508   1.429   5.968  12.005 -0.7510 -0.4676 -0.5581
13673TIP3   OH262509   2.797   1.921  16.601  0.0231  0.2776 -0.3208
13673TIP3    H162510   2.820   1.828  16.609 -0.9296  0.0461 -0.2317
13673TIP3    H262511   2.864   1.957  16.542  0.2782 -0.5092 -0.5246
13674TIP3   OH262512   4.422   1.467   0.503  0.6291 -0.2755 -0.4482
13674TIP3    H162513   4.490   1.534   0.499  0.5888 -0.1931  0.2379
13674TIP3    H262514   4.361   1.492   0.433 -0.0484  1.1346  0.6035
13675TIP3   OH262515   6.205   3.134   1.316 -0.1621 -0.3186 -0.2207
13675TIP3    H162516   6.155   3.072   1.368 -0.6270 -0.8339 -1.2522
13675TIP3    H262517   6.189   3.108   1.225  1.1975  0.1049 -0.6121
13676TIP3   OH262518   3.726   1.041  13.614  0.5344 -0.4874  0.1530
13676TIP3    H162519   3.635   1.065  13.598  0.6219  0.1365  0.5729
13676TIP3    H262520   3.741   0.967  13.555 -0.1097 -0.3148 -0.2452
13677TIP3   OH262521   5.247   4.055   2.275 -0.3938 -0.8015 -0.1327
13677TIP3    H162522   5.249   4.146   2.305 -2.1237  0.0122 -2.1845
13677TIP3    H262523   5.289   4.005   2.345 -0.5644  1.4077  1.6457
13678TIP3   OH262524   5.106   6.496   2.247  0.0668  0.5174 -0.6153
13678TIP3    H162525   5.096   6.429   2.179 -1.9157 -1.0887  1.1284
13678TIP3    H262526   5.182   6.468   2.298  1.4788  1.6567 -1.9699
13679TIP3   OH262527   0.926   5.273  15.033  0.0523  0.2254  0.1087
13679TIP3    H162528   0.985   5.310  15.098 -0.0580  0.1637  0.2423
13679TIP3    H262529   0.905   5.186  15.065 -0.0959  0.2391  0.0497
13680TIP3   OH262530   2.179   4.408   0.040  0.2130  0.7735 -0.1793
13680TIP3    H162531   2.161   4.386  -0.051 -0.3902 -0.3556  0.1945
13680TIP3    H262532   2.093   4.411   0.082  0.5854 -0.7746  0.7777
13681TIP3   OH262533   1.698   0.415  16.030  0.1960  0.3544 -0.6770
13681TIP3    H162534   1.614   0.459  16.016 -0.9537 -1.4087  0.3394
13681TIP3    H262535   1.703   0.349  15.961  0.2989 -0.1384 -0.2131
13682TIP3   OH262536   5.295   5.770   1.735 -0.2527  0.4822  0.2687
13682TIP3    H162537   5.366   5.738   1.679  0.0805  0.0699  0.9075
13682TIP3    H262538   5.333   5.770   1.823 -1.5753 -1.4885  0.9114
13683TIP3   OH262539   2.402   3.161   0.882 -0.7501  0.4327  0.1666
13683TIP3    H162540   2.465   3.231   0.895  0.9680 -0.6541 -1.7057
13683TIP3    H262541   2.418   3.131   0.792 -1.6416 -2.1032  0.7781
13684TIP3   OH262542   6.040   4.222  15.901 -0.4749  0.2229  0.5411
13684TIP3    H162543   5.963   4.279  15.890 -0.2100  0.5064  0.1267
13684TIP3    H262544   6.081   4.253  15.981  0.3015  1.3854 -0.2751
13685TIP3   OH262545   1.068   0.488   6.293  0.5139 -0.4990  0.3613
13685TIP3    H162546   1.055   0.398   6.322  2.5129 -1.5141 -1.5750
13685TIP3    H262547   1.038   0.488   6.202  2.5744  0.1189 -0.3881
13686TIP3   OH262548   4.173   3.347   1.296 -0.0728 -0.0914  0.3013
13686TIP3    H162549   4.110   3.293   1.344 -0.2859 -0.3848 -0.3002
13686TIP3    H262550   4.247   3.289   1.279 -0.0506 -0.0245  0.1658
13687TIP3   OH262551   1.806   0.226  15.310 -0.0340 -0.1831 -0.2497
13687TIP3    H162552   1.774   0.310  15.344 -2.6776 -2.1816  2.7205
13687TIP3    H262553   1.777   0.224  15.219 -2.0018  1.1894  0.2885
13688TIP3   OH262554   2.392   1.681   2.946 -0.1165  0.3700 -0.0995
13688TIP3    H162555   2.408   1.675   3.040  2.7806 -0.5899 -0.5567
13688TIP3    H262556   2.407   1.592   2.914  2.3504  1.3345 -1.8752
13689TIP3   OH262557   0.067   0.074   4.401  0.6496 -0.0300  0.3120
13689TIP3    H162558   0.102  -0.015   4.403 -2.6492 -1.5162 -0.7141
13689TIP3    H262559   0.073   0.100   4.309  0.4799  0.3301  0.3993
13690TIP3   OH262560   2.268   4.492   3.511 -0.1345 -1.3252 -0.2620
13690TIP3    H162561   2.276   4.554   3.583  0.7997 -1.4155 -0.2706
13690TIP3    H262562   2.231   4.413   3.550  0.0667 -1.2634  0.0524
13691TIP3   OH262563   0.017   5.302  14.660  0.7403 -0.3272  0.6671
13691TIP3    H162564  -0.065   5.254  14.648 -0.1243  1.4695 -1.2294
13691TIP3    H262565   0.024   5.314  14.754 -0.9577 -0.8870  0.9065
13692TIP3   OH262566   0.425   2.185   3.615  0.1589 -0.0012  0.5263
13692TIP3    H162567   0.344   2.208   3.661 -1.1870 -1.0986 -1.1797
13692TIP3    H262568   0.476   2.266   3.617 -0.6811  0.5515  2.1838
13693TIP3   OH262569   2.137   6.291   0.579  0.2824 -0.3153  0.2859
13693TIP3    H162570   2.119   6.358   0.644  0.0895 -0.9213  0.8702
13693TIP3    H262571   2.093   6.322   0.500 -1.1847 -0.5103  0.9902
13694TIP3   OH262572   4.153   3.018   4.065 -0.1071 -0.0827 -0.1229
13694TIP3    H162573   4.142   3.112   4.055  0.6226  0.0003 -0.1803
13694TIP3    H262574   4.178   2.987   3.978 -0.5715 -0.3687 -0.1596
13695TIP3   OH262575   4.587   0.394  13.162 -0.2953 -0.6730  0.5497
13695TIP3    H162576   4.640   0.467  13.195  0.7022 -0.6659 -1.0159
13695TIP3    H262577   4.535   0.432  13.091 -0.5645 -1.2486  0.4325
13696TIP3   OH262578   0.071   0.666  12.020 -0.1027  0.2619 -0.5847
13696TIP3    H162579   0.046   0.581  11.984  2.3881 -1.0493  0.5540
13696TIP3    H262580   0.167   0.664  12.023 -0.0296  1.4875  3.1471
13697TIP3   OH262581   0.075   3.601   6.222  0.3910  0.0852  0.3733
13697TIP3    H162582   0.062   3.689   6.259 -0.5403  0.7924 -1.5171
13697TIP3    H262583   0.030   3.603   6.138  0.6877 -2.1059  0.0978
13698TIP3   OH262584   5.960   4.485   2.212  0.0816 -0.0607 -0.1162
13698TIP3    H162585   5.968   4.580   2.218  0.2286  0.0243 -1.3416
13698TIP3    H262586   6.040   4.452   2.253  0.1692  0.3525  0.0554
13699TIP3   OH262587   1.141   0.888   6.517  0.0173  0.4996 -0.2682
13699TIP3    H162588   1.196   0.883   6.595  0.7635 -1.2313 -0.8601
13699TIP3    H262589   1.169   0.968   6.473  0.8290  0.5618  0.3444
13700TIP3   OH262590   0.257   6.040  12.365 -0.8122 -0.1867  0.0232
13700TIP3    H162591   0.341   6.086  12.368  0.4691 -1.9569 -3.3089
13700TIP3    H262592   0.275   5.960  12.316 -4.3366 -0.9563 -0.3110
13701TIP3   OH262593   2.424   1.248   0.636 -0.3076 -0.1185 -0.2129
13701TIP3    H162594   2.337   1.236   0.673 -0.4579  0.2821 -0.4372
13701TIP3    H262595   2.409   1.277   0.546  0.0412  1.4219  0.1964
13702TIP3   OH262596   5.071   1.544   3.621 -0.6049  0.4456 -0.1930
13702TIP3    H162597   5.073   1.448   3.626  0.4638  0.4518 -0.1297
13702TIP3    H262598   5.052   1.573   3.710 -1.1948  0.2957 -0.2661
13703TIP3   OH262599   1.202   0.992   4.804  0.1495 -0.2466  0.3239
13703TIP3    H162600   1.275   0.941   4.771  0.0103  0.0773 -0.5148
13703TIP3    H262601   1.127   0.933   4.801  0.1645 -0.2583  0.1813
13704TIP3   OH262602   2.105   6.205   6.306 -0.0960  0.2200  0.4018
13704TIP3    H162603   2.160   6.274   6.271  0.8968 -0.0970  1.2966
13704TIP3    H262604   2.044   6.250   6.366 -0.1944  0.4482  0.1322
13705TIP3   OH262605   3.840   0.982   0.423 -0.0833  0.2129  0.5849
13705TIP3    H162606   3.925   0.952   0.390  0.1299  0.6963  0.6945
13705TIP3    H262607   3.860   1.062   0.471 -1.0355  2.4507 -2.4253
13706TIP3   OH262608   2.976   1.584   1.557  0.0744  0.0021 -0.6370
13706TIP3    H162609   2.903   1.625   1.604  1.1325  0.3468  0.7668
13706TIP3    H262610   2.947   1.494   1.542 -0.5348  0.0588  0.1442
13707TIP3   OH262611   1.356   1.535   2.453 -0.6161 -0.7536 -0.3518
13707TIP3    H162612   1.448   1.548   2.431 -0.1279 -0.5940  1.5926
13707TIP3    H262613   1.314   1.511   2.371  1.1425 -0.7397 -1.2830
13708TIP3   OH262614   3.395   5.813  14.197  0.1914 -0.2964  0.4073
13708TIP3    H162615   3.399   5.898  14.152  0.0139  0.0680  1.0714
13708TIP3    H262616   3.476   5.808  14.247  0.0579 -0.3766  0.6171
13709TIP3   OH262617   4.559   1.399   1.607 -1.0711  0.3781  0.1902
13709TIP3    H162618   4.504   1.400   1.529 -2.4163  0.0777  1.0919
13709TIP3    H262619   4.504   1.437   1.675  0.0399  0.5512  1.0183
13710TIP3   OH262620   3.059   1.893  11.723  0.3227 -0.0404  0.3760
13710TIP3    H162621   3.036   1.815  11.772  2.0292 -2.0999 -1.8566
13710TIP3    H262622   3.083   1.958  11.790 -1.4491 -1.2728  2.3056
13711TIP3   OH262623   4.128   5.528  12.562 -0.3277 -0.2621  0.0176
13711TIP3    H162624   4.061   5.590  12.532 -0.7902 -0.7843 -0.0441
13711TIP3    H262625   4.154   5.560  12.648  0.9471  1.2063 -0.8604
13712TIP3   OH262626   2.099   2.501  14.623  0.3896 -0.2939  0.0163
13712TIP3    H162627   2.130   2.509  14.713 -1.9343 -0.5515  0.9193
13712TIP3    H262628   2.021   2.557  14.620  0.2772 -0.4775 -1.7792
13713TIP3   OH262629   3.675   4.328   0.451  0.1305  0.1109 -0.3133
13713TIP3    H162630   3.765   4.302   0.472 -0.0701 -0.0779  0.3468
13713TIP3    H262631   3.644   4.261   0.391  0.5007  0.2947 -0.7190
13714TIP3   OH262632   3.297   0.036  12.204 -0.4244 -0.6050 -0.1197
13714TIP3    H162633   3.333   0.017  12.117 -0.6462 -0.1121 -0.3195
13714TIP3    H262634   3.297   0.131  12.211 -0.3901 -0.6392  0.4320
13715TIP3   OH262635   0.721   0.498   2.268 -0.2990  0.4597  0.3270
13715TIP3    H162636   0.808   0.535   2.278  0.5575 -0.7139 -2.0135
13715TIP3    H262637   0.713   0.434   2.339  0.7886  0.5219  0.5098
13716TIP3   OH262638   5.659   4.419  14.284  0.3877  0.2427 -0.2484
13716TIP3    H162639   5.741   4.437  14.329  0.8435 -1.0401 -0.5234
13716TIP3    H262640   5.592   4.459  14.340  0.8088 -2.2022  2.2372
13717TIP3   OH262641   5.271   0.311  15.730  0.1400  0.0752  0.4778
13717TIP3    H162642   5.212   0.330  15.657 -1.0749  1.2294  1.6952
13717TIP3    H262643   5.232   0.235  15.774  2.1145 -2.1117 -1.3156
13718TIP3   OH262644   3.790   1.950   4.937 -0.2373  0.4996  0.3143
13718TIP3    H162645   3.819   1.859   4.939 -0.6293  0.3869  1.4473
13718TIP3    H262646   3.742   1.963   5.019 -0.7858  1.5330 -0.1348
13719TIP3   OH262647   3.705   3.195  16.785  0.1459  0.3021 -0.4029
13719TIP3    H162648   3.753   3.237  16.713 -1.7639  0.4232 -1.6750
13719TIP3    H262649   3.672   3.268  16.837  0.9275  0.2251  0.2254
13720TIP3   OH262650   2.465   3.174  11.798 -0.4294 -0.1869 -0.3523
13720TIP3    H162651   2.431   3.263  11.791  0.0503  0.4244  3.1012
13720TIP3    H262652   2.550   3.184  11.842  0.0981 -2.2835 -0.7821
13721TIP3   OH262653   2.770   6.010   4.442  0.6496  0.0117 -0.2843
13721TIP3    H162654   2.744   6.010   4.350 -0.9821 -1.8704  0.1213
13721TIP3    H262655   2.726   6.087   4.479 -0.6315 -0.5425 -0.6079
13722TIP3   OH262656   0.259   0.194  12.914  0.0508  0.3488 -0.5490
13722TIP3    H162657   0.219   0.231  12.836 -0.8868  2.1477  0.7302
13722TIP3    H262658   0.199   0.125  12.941  1.3336 -1.6346 -2.4051
13723TIP3   OH262659   3.330   1.520   3.449 -0.0925 -0.2557  0.3765
13723TIP3    H162660   3.276   1.479   3.383  0.3530 -0.1827 -0.0366
13723TIP3    H262661   3.419   1.491   3.429 -0.0696 -1.1062  1.5852
13724TIP3   OH262662   0.590   2.457   2.928  0.1271 -0.4963 -0.1578
13724TIP3    H162663   0.630   2.420   2.849 -1.0473 -1.1036 -0.4943
13724TIP3    H262664   0.662   2.465   2.990  1.4227  1.5042 -1.7816
13725TIP3   OH262665   2.663   1.291  16.534 -0.1868 -0.9723 -0.7465
13725TIP3    H162666   2.726   1.311  16.603  0.2699  0.7387 -1.6130
13725TIP3    H262667   2.578   1.294  16.578  0.0891  0.1837 -0.2598
13726TIP3   OH262668   2.631   3.026  14.208  0.3431 -0.0369 -0.2517
13726TIP3    H162669   2.666   3.079  14.137 -1.2222 -0.4313 -1.3665
13726TIP3    H262670   2.544   3.063  14.225 -0.2326 -1.3988 -0.1403
13727TIP3   OH262671   6.721   4.655  12.420  0.1916 -0.1564  0.5000
13727TIP3    H162672   6.626   4.665  12.427  0.1471 -0.5703  0.5366
13727TIP3    H262673   6.748   4.726  12.362 -0.0543  0.3463  0.9913
13728TIP3   OH262674   3.463   4.261  14.856  0.4459 -0.3388 -0.7311
13728TIP3    H162675   3.433   4.346  14.823 -0.2508 -0.7660 -1.2233
13728TIP3    H262676   3.558   4.271  14.862  0.4700  0.1926 -1.6334
13729TIP3   OH262677   3.887   4.110  16.488 -0.1271 -0.4081  0.5662
13729TIP3    H162678   3.900   4.152  16.403  1.3917 -1.5606  0.1716
13729TIP3    H262679   3.946   4.157  16.547 -2.0164  1.1399  1.2999
13730TIP3   OH262680   4.289   1.735   3.741 -0.0504  0.6820  0.1381
13730TIP3    H162681   4.362   1.680   3.714 -0.1112 -0.7531  2.5637
13730TIP3    H262682   4.328   1.822   3.755  1.1455  0.0404  0.9930
13731TIP3   OH262683   5.094   6.157   0.910  0.7318 -0.6403 -0.0964
13731TIP3    H162684   5.156   6.091   0.878  1.9284  0.9591 -1.2678
13731TIP3    H262685   5.150   6.233   0.931 -0.7825  0.7300 -0.8242
13732TIP3   OH262686   1.367   5.414   0.789 -0.8728 -0.1913  0.4004
13732TIP3    H162687   1.406   5.494   0.754 -1.8393  0.1834  0.1476
13732TIP3    H262688   1.273   5.431   0.790 -0.9990 -0.8625  1.5407
13733TIP3   OH262689   0.654   3.921   5.173  0.0825 -0.3324  0.1272
13733TIP3    H162690   0.610   3.845   5.135 -1.1048  1.3530 -2.1607
13733TIP3    H262691   0.710   3.954   5.103  0.8022  0.7391  1.1626
13734TIP3   OH262692   5.360   0.850   1.771  0.1944 -0.1279  0.0235
13734TIP3    H162693   5.388   0.913   1.705  0.6217 -1.2079 -0.8536
13734TIP3    H262694   5.439   0.801   1.793 -0.3072 -0.9346  0.0593
13735TIP3   OH262695   0.262   0.888  13.569  0.0342  0.3360  0.8623
13735TIP3    H162696   0.289   0.882  13.477  1.6977  0.9003  1.2783
13735TIP3    H262697   0.178   0.842  13.573 -1.0456  1.9520 -1.3109
13736TIP3   OH262698   4.020   1.252  12.448  0.2732  0.0223 -0.2929
13736TIP3    H162699   4.056   1.341  12.441 -2.2667  1.0886 -1.1144
13736TIP3    H262700   3.934   1.265  12.488  1.0982 -2.4963  2.6205
13737TIP3   OH262701   3.902   3.386  12.091  0.2479 -0.6073 -0.1106
13737TIP3    H162702   3.824   3.338  12.116 -0.4971  1.2791  1.4747
13737TIP3    H262703   3.951   3.397  12.173 -0.1321  2.0800 -0.1356
13738TIP3   OH262704   0.143   3.715   3.511  0.7364 -0.0670  1.2484
13738TIP3    H162705   0.236   3.695   3.512  0.5439 -1.4187 -0.8814
13738TIP3    H262706   0.102   3.638   3.470 -0.8540  1.9386 -1.3157
13739TIP3   OH262707   1.556   3.110  13.766  0.8887  0.4933  0.0369
13739TIP3    H162708   1.489   3.062  13.815  1.3008  0.8958  1.0409
13739TIP3    H262709   1.602   3.043  13.716 -0.9704  0.3475 -1.5921
13740TIP3   OH262710   5.389   3.018   5.473  0.4595 -0.4137 -0.0716
13740TIP3    H162711   5.474   3.056   5.497  0.4196  1.3542 -2.3860
13740TIP3    H262712   5.325   3.078   5.512  0.3736  0.5286 -1.5724
13741TIP3   OH262713   2.112   4.891   4.894 -0.3052 -0.5588 -0.1447
13741TIP3    H162714   2.059   4.925   4.966 -1.3125 -2.4758  0.0851
13741TIP3    H262715   2.165   4.821   4.934  1.1747  0.1803 -0.7266
13742TIP3   OH262716   6.589   1.475  15.594  0.2498  0.2751  0.6382
13742TIP3    H162717   6.630   1.438  15.672 -0.6370 -1.3559  0.3935
13742TIP3    H262718   6.636   1.435  15.521 -0.2993  0.1371  0.3547
13743TIP3   OH262719   2.955   0.095   2.287  0.9823 -0.2736  0.0596
13743TIP3    H162720   2.982   0.125   2.200  1.3417 -0.4098  0.1231
13743TIP3    H262721   3.017   0.027   2.309  2.1838  1.1531  1.3057
13744TIP3   OH262722   5.064   0.832   1.694 -0.2777  0.6205 -0.3239
13744TIP3    H162723   5.085   0.741   1.671  0.0913  0.6643 -0.1669
13744TIP3    H262724   5.143   0.865   1.737 -1.4270  0.1087  2.3578
13745TIP3   OH262725   0.325   3.736  16.826  0.1604  0.2536  0.1696
13745TIP3    H162726   0.255   3.704  16.768  0.3749 -0.3101  0.2095
13745TIP3    H262727   0.280   3.756  16.908 -0.0973  0.7652 -0.0955
13746TIP3   OH262728   6.655   0.097   3.855  0.3746  0.9318  0.2455
13746TIP3    H162729   6.627   0.005   3.848  1.9918  0.2759  1.5884
13746TIP3    H262730   6.727   0.104   3.794 -0.3483  1.6009 -0.5485
13747TIP3   OH262731   3.196   6.535   6.522 -0.3890 -0.2235 -0.4063
13747TIP3    H162732   3.220   6.472   6.454  0.0477  0.6483 -1.0777
13747TIP3    H262733   3.257   6.516   6.593  0.7583  0.4077 -1.1862
13748TIP3   OH262734   1.869   5.892  13.421 -0.0246 -0.0630 -0.5426
13748TIP3    H162735   1.948   5.945  13.419  0.6131 -1.0043 -1.9811
13748TIP3    H262736   1.842   5.886  13.329 -1.3588 -0.3566 -0.1517
13749TIP3   OH262737   2.425   6.316  16.895  0.0745 -0.5033  0.4535
13749TIP3    H162738   2.366   6.253  16.852  0.2292 -1.1695  1.1891
13749TIP3    H262739   2.437   6.281  16.983 -0.4185  0.9629  1.1337
13750TIP3   OH262740   1.928   1.743   5.306  0.1372 -0.4249  0.1250
13750TIP3    H162741   1.934   1.651   5.331  1.1113 -0.5692 -0.6178
13750TIP3    H262742   1.993   1.754   5.236  1.4224  1.2686  1.5074
13751TIP3   OH262743   5.551   6.639   2.395 -0.8263 -1.0509  0.0136
13751TIP3    H162744   5.548   6.635   2.490 -0.3281 -1.2607  0.0228
13751TIP3    H262745   5.545   6.732   2.374 -2.0032 -1.0736  0.2055
13752TIP3   OH262746   5.336   3.698   1.481  0.0937 -0.2924 -0.1322
13752TIP3    H162747   5.418   3.650   1.469 -0.0341 -0.0598 -2.4230
13752TIP3    H262748   5.319   3.693   1.575  1.5640 -2.2494  0.0966
13753TIP3   OH262749   6.156   0.560  14.934 -0.0129  0.3596  0.1646
13753TIP3    H162750   6.074   0.606  14.946 -0.7223 -1.3329  2.5350
13753TIP3    H262751   6.176   0.569  14.841 -1.3048  3.3034  0.0944
13754TIP3   OH262752   0.795   3.240   4.660  0.3687 -0.5026  0.0487
13754TIP3    H162753   0.875   3.246   4.713  0.7001 -1.9019 -0.2293
13754TIP3    H262754   0.823   3.192   4.581 -0.8568 -1.4874  0.1942
13755TIP3   OH262755   0.652   4.043   2.494 -0.1923  0.0315 -0.1556
13755TIP3    H162756   0.606   4.052   2.411 -1.1834 -1.0177  0.2612
13755TIP3    H262757   0.703   4.124   2.502 -2.1330  1.3496 -0.5230
13756TIP3   OH262758   0.739   0.378  11.866  0.0711 -0.4820  0.6660
13756TIP3    H162759   0.772   0.293  11.837  1.2662  0.7523 -1.8996
13756TIP3    H262760   0.701   0.418  11.788  0.9196  1.9486  1.3877
13757TIP3   OH262761   5.010   0.671  16.996  0.0048 -0.1766 -0.0718
13757TIP3    H162762   5.073   0.730  17.037  0.3815  0.4607 -1.5402
13757TIP3    H262763   5.044   0.656  16.908 -0.4982 -1.9728  0.0007
13758TIP3   OH262764   3.368   2.207  15.410 -0.0776 -0.1889 -0.4934
13758TIP3    H162765   3.440   2.158  15.450 -0.4685 -2.8320 -2.7629
13758TIP3    H262766   3.394   2.217  15.318 -1.6708  0.7301 -0.8876
13759TIP3   OH262767   0.017   6.187  16.571  0.1943 -0.1404  0.2088
13759TIP3    H162768   0.008   6.165  16.479  0.6777 -1.9993  0.5569
13759TIP3    H262769   0.110   6.208  16.582  0.1574 -0.0120  0.2741
13760TIP3   OH262770   3.652   3.404  15.751  0.2364  0.0672 -0.3891
13760TIP3    H162771   3.630   3.317  15.718 -0.8919  0.1804  0.0224
13760TIP3    H262772   3.745   3.416  15.730  0.1690 -0.8717 -1.2365
13761TIP3   OH262773   4.268   1.912   4.807  0.2313 -0.4155  0.0555
13761TIP3    H162774   4.347   1.915   4.861  0.5313  0.6346 -0.4142
13761TIP3    H262775   4.237   1.822   4.815  3.1105 -1.7646 -2.0417
13762TIP3   OH262776   0.040   4.985   1.175 -0.3425  0.2580 -0.5374
13762TIP3    H162777   0.032   5.025   1.088 -0.2869 -0.5305 -0.9073
13762TIP3    H262778  -0.008   4.903   1.169  0.7414 -0.4270 -0.2236
13763TIP3   OH262779   4.003   6.180   2.450  0.0492 -0.0260 -0.0021
13763TIP3    H162780   3.921   6.132   2.448 -0.2756  0.4977  0.5568
13763TIP3    H262781   4.043   6.155   2.534  0.0160  0.4469  0.1549
13764TIP3   OH262782   0.845   5.887   4.802  0.0285  0.0368  0.3220
13764TIP3    H162783   0.933   5.867   4.770 -1.1965 -0.2364 -3.3705
13764TIP3    H262784   0.840   5.983   4.799 -0.4556  0.0047 -1.8701
13765TIP3   OH262785   2.945   4.129   6.760  0.1068 -0.0986  0.3194
13765TIP3    H162786   2.937   4.039   6.789  3.3859 -0.8183 -0.5349
13765TIP3    H262787   2.927   4.126   6.666  0.8951 -0.0491  0.1539
13766TIP3   OH262788   5.071   6.756   2.667 -0.2909 -0.3565  0.5098
13766TIP3    H162789   5.096   6.826   2.726 -0.9983 -0.0622  0.4713
13766TIP3    H262790   5.059   6.679   2.724 -0.1191 -0.2906  0.6331
13767TIP3   OH262791   0.015   6.023   1.444 -0.6368 -0.3000  0.5385
13767TIP3    H162792  -0.034   6.048   1.365 -1.0696  0.9471  1.1790
13767TIP3    H262793   0.090   5.974   1.410 -0.4333  0.7988 -0.7233
13768TIP3   OH262794   5.567   0.384  16.791 -0.2191 -0.1156  0.0910
13768TIP3    H162795   5.493   0.435  16.759  1.1433  1.3953 -0.7919
13768TIP3    H262796   5.609   0.440  16.856  0.8424 -0.4147 -0.3084
13769TIP3   OH262797   5.252   0.211   4.467 -0.1687  0.7322 -0.4959
13769TIP3    H162798   5.266   0.147   4.397  0.2753  0.0299  0.2237
13769TIP3    H262799   5.158   0.206   4.484 -0.1613  0.3532 -0.5374
13770TIP3   OH262800   1.693   3.106   2.005  0.2742  0.0296  0.3318
13770TIP3    H162801   1.627   3.174   2.019  1.6652  1.6090 -0.5340
13770TIP3    H262802   1.746   3.137   1.932  1.0640 -1.9353 -0.0106
13771TIP3   OH262803   1.854   3.204   4.135 -0.0011  0.0126  0.3594
13771TIP3    H162804   1.931   3.176   4.086  0.4490  0.0661  1.0140
13771TIP3    H262805   1.885   3.277   4.189 -0.8421  0.9354 -0.3665
13772TIP3   OH262806   5.622   0.674  11.584 -0.6243 -0.3734  0.4011
13772TIP3    H162807   5.619   0.763  11.619 -0.1901 -0.6959  1.2915
13772TIP3    H262808   5.673   0.625  11.648 -0.8119 -1.2541 -0.1089
13773TIP3   OH262809   1.724   5.469   5.661  0.1281 -0.1260 -0.4323
13773TIP3    H162810   1.644   5.515   5.636  0.0468  0.1516  0.3139
13773TIP3    H262811   1.795   5.524   5.628  0.0184 -0.4916 -1.3032
13774TIP3   OH262812   3.429   1.572  13.654  0.4837  0.1911 -0.2057
13774TIP3    H162813   3.453   1.661  13.627  1.2189 -0.0559 -0.4026
13774TIP3    H262814   3.489   1.515  13.606 -1.3546 -0.5609 -1.7080
13775TIP3   OH262815   4.754   3.664  11.183  0.3526  0.0735  0.2626
13775TIP3    H162816   4.826   3.602  11.175  1.1563  0.7540  1.7214
13775TIP3    H262817   4.788   3.746  11.148  0.4102  0.4634  1.1888
13776TIP3   OH262818   0.394   1.465   5.341 -0.4506  0.1080 -0.2162
13776TIP3    H162819   0.307   1.484   5.305 -0.5941 -1.6453 -0.8781
13776TIP3    H262820   0.377   1.418   5.422 -0.1065  0.2317 -0.0704
13777TIP3   OH262821   3.991   5.365   3.196 -0.1561  0.2887 -0.8057
13777TIP3    H162822   4.017   5.343   3.285 -0.5483  1.8315 -0.2789
13777TIP3    H262823   3.904   5.327   3.186  0.0229 -0.1684 -0.6545
13778TIP3   OH262824   1.774   1.788   1.562  0.5394  0.1488 -0.5893
13778TIP3    H162825   1.744   1.764   1.475 -1.7076  2.3140 -0.5197
13778TIP3    H262826   1.695   1.790   1.616  1.5080  1.1915  0.8993
13779TIP3   OH262827   6.388   1.679   1.075 -0.0558 -0.3593  0.1874
13779TIP3    H162828   6.350   1.600   1.115  0.2084 -0.8001 -0.4163
13779TIP3    H262829   6.446   1.646   1.007 -0.0979  0.3687 -0.2149
13780TIP3   OH262830   4.098   5.590   2.234  0.2219  0.2510  0.1908
13780TIP3    H162831   4.122   5.529   2.304 -1.7446 -0.2555  0.4879
13780TIP3    H262832   4.030   5.645   2.273 -0.1003  0.7096 -0.9856
13781TIP3   OH262833   6.303   0.943   0.407  0.0886  0.4145  0.8107
13781TIP3    H162834   6.230   0.965   0.466 -1.4786 -0.7127 -0.6139
13781TIP3    H262835   6.340   1.028   0.383 -0.1711  0.9664  2.2445
13782TIP3   OH262836   2.256   4.382   4.636  0.1225 -0.0936  0.0486
13782TIP3    H162837   2.208   4.431   4.569  0.8227  0.3649 -0.1275
13782TIP3    H262838   2.292   4.449   4.694  1.2551 -0.3708 -0.3113
13783TIP3   OH262839   4.951   4.460  15.408 -0.5858  0.1955 -0.7746
13783TIP3    H162840   5.036   4.461  15.364  0.0116  0.1512  0.3388
13783TIP3    H262841   4.970   4.486  15.498 -1.5822 -0.8883 -0.2196
13784TIP3   OH262842   3.915   5.497   5.522 -0.4497 -0.0931  0.0692
13784TIP3    H162843   3.871   5.467   5.442  0.7475  1.2996 -1.1616
13784TIP3    H262844   3.868   5.577   5.546  0.9186  1.0251 -0.8627
13785TIP3   OH262845   5.194   1.591   5.646 -0.5689 -0.2918  0.3042
13785TIP3    H162846   5.199   1.687   5.638 -1.8925 -0.1006  1.3827
13785TIP3    H262847   5.100   1.572   5.645 -0.4721 -1.3011  2.6615
13786TIP3   OH262848   1.604   6.544   5.150  0.6326 -0.7930  0.5970
13786TIP3    H162849   1.674   6.484   5.174  1.9910  1.0051  1.3348
13786TIP3    H262850   1.583   6.590   5.231 -0.0368  0.0556 -0.0405
13787TIP3   OH262851   0.750   5.168   0.099  0.0695 -0.1576  0.0306
13787TIP3    H162852   0.703   5.204   0.024  0.1307 -0.3672 -0.1084
13787TIP3    H262853   0.683   5.127   0.153  0.0014  0.1504  0.1815
13788TIP3   OH262854   5.230   5.734   1.387  0.0692 -0.2359  0.7991
13788TIP3    H162855   5.244   5.789   1.464 -0.2100  0.2244  0.5257
13788TIP3    H262856   5.143   5.759   1.356  0.9294  0.9601 -0.7724
13789TIP3   OH262857   4.493   3.387   5.117 -0.4176 -0.0748  0.3359
13789TIP3    H162858   4.578   3.388   5.161 -0.5121  1.5335  0.5367
13789TIP3    H262859   4.501   3.318   5.051  0.1588 -1.6872  2.0021
13790TIP3   OH262860   6.350   3.753   1.206  0.3994 -0.2675  0.4462
13790TIP3    H162861   6.349   3.675   1.150 -0.6283  0.1652 -0.1721
13790TIP3    H262862   6.310   3.821   1.152  1.3262  0.7145  0.9555
13791TIP3   OH262863   2.304   1.346   6.104  0.1231 -0.5233 -0.3908
13791TIP3    H162864   2.395   1.341   6.134  0.2029 -0.8836 -0.6811
13791TIP3    H262865   2.252   1.336   6.183  0.3300  0.9806 -0.0307
13792TIP3   OH262866   3.435   5.397   5.087 -0.0954 -0.1058 -0.0447
13792TIP3    H162867   3.341   5.389   5.106 -0.4301 -0.4079 -1.6522
13792TIP3    H262868   3.465   5.306   5.078  0.5143 -0.0342  1.1062
13793TIP3   OH262869   5.863   1.923   5.159 -0.8114  0.5843  0.4029
13793TIP3    H162870   5.786   1.967   5.196 -0.4754  0.6504  1.0351
13793TIP3    H262871   5.843   1.914   5.066 -2.4619 -1.1671  0.8557
13794TIP3   OH262872   2.174   4.921  16.391 -0.4437  0.3412 -0.6461
13794TIP3    H162873   2.225   4.952  16.315  0.1810  2.5227  0.5630
13794TIP3    H262874   2.090   4.896  16.354  0.1687  0.4008 -2.1884
13795TIP3   OH262875   6.177   0.556  11.318 -0.3339 -0.1455 -0.7790
13795TIP3    H162876   6.088   0.571  11.287 -0.7629 -1.6230 -0.3414
13795TIP3    H262877   6.190   0.621  11.387 -1.3306 -0.3670 -0.3654
13796TIP3   OH262878   6.813   3.003   5.378  0.1828  0.1147 -0.7914
13796TIP3    H162879   6.747   2.945   5.414 -0.6083  0.4196 -1.7256
13796TIP3    H262880   6.788   3.015   5.286  1.2565  0.6184 -1.0374
13797TIP3   OH262881   1.468   6.077   1.125 -0.1787 -0.0802 -0.1858
13797TIP3    H162882   1.527   6.062   1.199 -0.2758 -1.0467 -0.2878
13797TIP3    H262883   1.446   5.989   1.094  1.4243  0.2911 -2.6208
13798TIP3   OH262884   4.004   1.845  15.361 -0.5356 -0.3207 -0.3766
13798TIP3    H162885   4.052   1.767  15.386  0.8972  0.9963  1.2674
13798TIP3    H262886   4.040   1.869  15.275  0.6127 -0.2679  0.0989
13799TIP3   OH262887   3.062   5.072  12.462 -0.7905  0.4415 -0.0561
13799TIP3    H162888   3.143   5.029  12.489 -1.0824  0.4616  0.9030
13799TIP3    H262889   3.089   5.136  12.396 -0.1399 -0.0911 -0.3163
13800TIP3   OH262890   2.116   2.185  11.246 -0.1356 -0.1466  0.6793
13800TIP3    H162891   2.196   2.236  11.231 -0.8089  0.4829 -0.9572
13800TIP3    H262892   2.059   2.243  11.296  0.0588 -0.2672  1.0527
13801TIP3   OH262893   2.146   5.622  15.473 -0.1995  0.2954 -0.4061
13801TIP3    H162894   2.216   5.603  15.536  0.2029 -0.9734 -1.2003
13801TIP3    H262895   2.071   5.570  15.504  0.1895 -0.8377 -1.2774
13802TIP3   OH262896   1.043   6.160   4.219  0.5247  0.0037  0.1611
13802TIP3    H162897   1.033   6.139   4.126  0.8213 -0.1161  0.1548
13802TIP3    H262898   1.012   6.250   4.227 -0.1581 -0.2147  0.0732
13803TIP3   OH262899   2.136   4.677  13.290 -0.1731 -0.1860  0.1364
13803TIP3    H162900   2.063   4.626  13.324 -0.2257 -0.5362 -0.4966
13803TIP3    H262901   2.138   4.657  13.197 -0.8718  1.7698 -0.3567
13804TIP3   OH262902   5.600   0.383  10.776 -0.0675  0.3967  0.2615
13804TIP3    H162903   5.608   0.336  10.694 -1.3696 -1.0743  0.9261
13804TIP3    H262904   5.601   0.476  10.751  0.4113 -0.0082 -1.2956
13805TIP3   OH262905   3.420   2.320  15.091  0.2164 -0.0961 -0.3384
13805TIP3    H162906   3.490   2.293  15.033 -0.2759 -0.0282 -0.9748
13805TIP3    H262907   3.413   2.415  15.079 -1.3004 -0.3397 -1.8177
13806TIP3   OH262908   5.284   0.032   3.980  0.0582 -0.0857 -0.6742
13806TIP3    H162909   5.246   0.078   3.904  0.6145  0.4722 -0.6239
13806TIP3    H262910   5.356  -0.019   3.944 -0.7049 -1.1432 -0.7666
13807TIP3   OH262911   2.096   3.292  15.579  0.3250 -0.3237  0.3096
13807TIP3    H162912   2.074   3.295  15.486 -0.1699  0.3042  0.4480
13807TIP3    H262913   2.116   3.382  15.603  0.0725 -0.4214  0.9072
13808TIP3   OH262914   1.556   4.222  16.331 -0.0615  0.1190 -0.0530
13808TIP3    H162915   1.630   4.176  16.292  1.3212  2.3791 -0.2760
13808TIP3    H262916   1.589   4.256  16.414 -1.4510 -0.4205  0.7517
13809TIP3   OH262917   0.656   1.686  15.709 -0.4204 -0.0870  0.1484
13809TIP3    H162918   0.696   1.627  15.646  0.0425  0.0170  0.3397
13809TIP3    H262919   0.622   1.759  15.656 -1.3147 -0.6800 -0.1264
13810TIP3   OH262920   6.235   4.279   6.512 -0.1494  0.3645  0.9181
13810TIP3    H162921   6.286   4.312   6.586 -0.1304 -0.8948  1.4843
13810TIP3    H262922   6.223   4.186   6.530  0.1607 -0.0569 -0.8428
13811TIP3   OH262923   4.698   2.863  16.437 -0.2086  0.3879  0.2821
13811TIP3    H162924   4.602   2.858  16.435 -0.1735 -0.3981 -0.9803
13811TIP3    H262925   4.719   2.928  16.369  0.1833 -0.8656 -0.8491
13812TIP3   OH262926   6.322   0.677   0.663 -0.4285  0.4896  0.2400
13812TIP3    H162927   6.240   0.646   0.624 -0.1658 -0.5988  0.5078
13812TIP3    H262928   6.384   0.678   0.589 -0.7265  1.5264 -0.0077
13813TIP3   OH262929   2.597   2.341  15.976 -0.5012 -0.1108  0.1560
13813TIP3    H162930   2.534   2.409  15.999  1.0640  1.2208  0.6941
13813TIP3    H262931   2.553   2.290  15.908 -2.0765  0.8623  0.3921
13814TIP3   OH262932   3.013   4.357   6.946 -0.2120 -0.1648  0.2975
13814TIP3    H162933   3.095   4.321   6.913 -0.3680 -1.0624  0.8575
13814TIP3    H262934   2.945   4.297   6.914 -0.6524  0.5365 -0.1128
13815TIP3   OH262935   3.349   1.950  17.167  0.2296  0.7723  0.2075
13815TIP3    H162936   3.434   1.915  17.192  0.0126  0.8026  0.9916
13815TIP3    H262937   3.305   1.970  17.249 -1.1886 -0.7478 -0.1131
13816TIP3   OH262938   2.917   3.999   5.841 -0.0658  0.1646  0.4556
13816TIP3    H162939   2.993   4.000   5.900 -0.2010  1.2329  0.6419
13816TIP3    H262940   2.886   4.089   5.842 -1.3538 -0.2642  0.3902
13817TIP3   OH262941   2.372   3.078  15.478 -0.4064  0.7034  0.8598
13817TIP3    H162942   2.398   3.011  15.541  1.7876  0.7726  0.1072
13817TIP3    H262943   2.294   3.041  15.435 -0.4532 -0.4450  1.8781
13818TIP3   OH262944   0.599   0.427   5.284  0.1523  0.0957  0.0624
13818TIP3    H162945   0.526   0.488   5.287 -0.1512  0.0151 -2.8405
13818TIP3    H262946   0.596   0.381   5.368 -1.6218  1.7526  0.9738
13819TIP3   OH262947   0.206   5.639   5.411 -0.1662 -0.0053  0.7723
13819TIP3    H162948   0.115   5.645   5.440  0.0760 -1.2194  1.8921
13819TIP3    H262949   0.249   5.586   5.478  1.3158  0.3434  0.1339
13820TIP3   OH262950   2.331   0.834   3.694  0.5374  0.0819 -0.0924
13820TIP3    H162951   2.384   0.818   3.616 -0.4829 -1.5086 -0.4904
13820TIP3    H262952   2.375   0.784   3.763  0.2126 -0.3143 -0.1666
13821TIP3   OH262953   5.720   1.570   5.641  0.2627  0.2646 -0.3411
13821TIP3    H162954   5.775   1.632   5.594  1.6969 -2.5466 -2.7371
13821TIP3    H262955   5.778   1.496   5.660 -1.0232  0.0507  3.4634
13822TIP3   OH262956   1.148   6.666   2.556  0.3522  0.0924 -0.6652
13822TIP3    H162957   1.206   6.741   2.571  0.5115 -0.3267  1.0909
13822TIP3    H262958   1.208   6.592   2.546  0.1646 -0.1102 -0.3050
13823TIP3   OH262959   2.993   3.183  14.831 -0.1683 -0.7195  0.5596
13823TIP3    H162960   2.974   3.172  14.738 -0.4971 -0.3759  0.5842
13823TIP3    H262961   2.934   3.123  14.875 -0.9237  0.0451  0.6137
13824TIP3   OH262962   5.488   6.765  17.205  0.4048  0.1287 -0.1486
13824TIP3    H162963   5.405   6.718  17.195  0.2231  0.4225 -0.0086
13824TIP3    H262964   5.532   6.721  17.278 -0.3226  0.9835  0.8256
13825TIP3   OH262965   3.866   2.288  12.939 -0.3941  0.3078 -0.0923
13825TIP3    H162966   3.893   2.375  12.911  0.4883 -0.5515 -2.0934
13825TIP3    H262967   3.948   2.243  12.960 -0.7370 -0.4591 -0.3683
13826TIP3   OH262968   0.084   5.516   5.901 -0.4233 -0.0621 -0.2983
13826TIP3    H162969  -0.005   5.489   5.877 -1.6065  2.0654  1.3866
13826TIP3    H262970   0.108   5.457   5.972 -0.9894  0.1045  0.0395
13827TIP3   OH262971   5.476   6.730  15.694 -0.1874 -0.1664 -0.6455
13827TIP3    H162972   5.508   6.753  15.606 -1.2182  0.3452 -0.9049
13827TIP3    H262973   5.431   6.808  15.724  0.9578 -0.0130  0.7504
13828TIP3   OH262974   5.053   0.653   4.763  0.1395  0.0254  0.6807
13828TIP3    H162975   5.138   0.616   4.786  1.0397  0.5309 -1.5525
13828TIP3    H262976   5.074   0.732   4.712 -1.6023 -0.4144 -0.8253
13829TIP3   OH262977   4.300   2.258  16.315 -0.4639  0.4627  0.3948
13829TIP3    H162978   4.257   2.243  16.231  1.0642  0.9690 -0.5256
13829TIP3    H262979   4.339   2.173  16.337 -0.2600  0.5079  0.2179
13830TIP3   OH262980   3.253   2.973   2.963 -0.2383 -0.3867 -0.6939
13830TIP3    H162981   3.263   3.063   2.932 -0.8474 -0.8051 -2.1696
13830TIP3    H262982   3.167   2.973   3.007  0.3089  0.0311  0.4159
13831TIP3   OH262983   1.053   5.136   5.962 -0.3049 -0.3430 -0.0636
13831TIP3    H162984   1.036   5.182   5.880 -1.3107  2.8197  1.7483
13831TIP3    H262985   1.133   5.177   5.996  1.0730 -2.7634 -0.1191
13832TIP3   OH262986   1.477   3.575   0.542  0.4422  0.0999  0.2201
13832TIP3    H162987   1.475   3.646   0.606 -1.2099 -1.2429  1.7548
13832TIP3    H262988   1.536   3.510   0.580  0.1631 -0.3224 -0.0650
13833TIP3   OH262989   2.242   6.577  12.074  0.3203  0.0192  0.4206
13833TIP3    H162990   2.154   6.571  12.037  0.1342  1.5500  0.5668
13833TIP3    H262991   2.300   6.568  11.998 -0.0427  2.0038 -0.1587
13834TIP3   OH262992   4.188   0.839   5.168  0.1276  0.0208 -0.3237
13834TIP3    H162993   4.116   0.802   5.220  0.9784 -1.8756 -0.4363
13834TIP3    H262994   4.148   0.914   5.124 -1.3884 -0.0813  0.7711
13835TIP3   OH262995   1.153   6.455  13.575  0.3888  0.0550  0.2332
13835TIP3    H162996   1.070   6.422  13.543 -0.4081  0.5874  1.6781
13835TIP3    H262997   1.159   6.544  13.540  1.0337 -0.4465 -1.0087
13836TIP3   OH262998   2.761   1.262   2.665  0.4827  0.5319  0.3155
13836TIP3    H162999   2.790   1.353   2.651 -1.6896  1.5455  1.8459
13836TIP3    H263000   2.737   1.258   2.757  1.0995 -1.8376  0.4448
13837TIP3   OH263001   2.341   4.655   0.366 -0.6576 -0.1209  0.1758
13837TIP3    H163002   2.265   4.697   0.327  0.9973  0.5580 -2.5651
13837TIP3    H263003   2.320   4.562   0.366 -1.7516  0.1132  0.1929
13838TIP3   OH263004   2.932   5.018  11.888  0.0421  0.7566 -0.3537
13838TIP3    H163005   2.865   5.078  11.853 -0.5310  1.0177  1.1421
13838TIP3    H263006   2.905   4.932  11.857 -1.9174  0.6340  1.4970
13839TIP3   OH263007   4.501   6.113  15.373  0.1136 -0.5512 -0.3529
13839TIP3    H163008   4.585   6.067  15.368 -0.6063 -1.7769 -1.8036
13839TIP3    H263009   4.512   6.175  15.445  1.8141 -1.5826  0.3267
13840TIP3   OH263010   1.292   0.937   5.089 -0.1090 -0.3025  0.3493
13840TIP3    H163011   1.234   0.930   5.014 -0.2232 -2.3593  0.5700
13840TIP3    H263012   1.374   0.897   5.060  0.0300 -0.6072  1.1318
13841TIP3   OH263013   6.142   5.621  11.782  0.0533  0.1964 -0.3538
13841TIP3    H163014   6.082   5.688  11.749  0.3180 -0.1249 -1.5381
13841TIP3    H263015   6.148   5.558  11.711  1.5079  0.0335 -0.1006
13842TIP3   OH263016   3.100   1.106  14.616 -0.5146  0.2224 -0.1883
13842TIP3    H163017   3.130   1.106  14.707 -1.8253 -1.3419  0.2900
13842TIP3    H263018   3.141   1.184  14.578  0.1834  0.8445  1.6835
13843TIP3   OH263019   6.049   3.743   0.015 -0.2469  0.2291 -0.4717
13843TIP3    H163020   6.030   3.759   0.107 -1.0461 -0.0766 -0.5769
13843TIP3    H263021   6.124   3.799  -0.004  0.8351 -0.7692  0.7222
13844TIP3   OH263022   2.132   0.614   3.178  0.3448  0.2511 -0.3237
13844TIP3    H163023   2.189   0.691   3.175 -0.8262  1.2422  1.2666
13844TIP3    H263024   2.191   0.541   3.200  1.2032  1.0096 -0.0398
13845TIP3   OH263025   0.519   3.209  10.848  0.1831  0.1765  0.0678
13845TIP3    H163026   0.589   3.182  10.790 -0.4586  0.2848 -0.7780
13845TIP3    H263027   0.546   3.179  10.935  0.3785 -1.4663 -0.5308
13846TIP3   OH263028   0.548   2.498   6.529 -0.0086 -0.1432  0.0600
13846TIP3    H163029   0.642   2.482   6.532 -0.0567 -0.3358  0.9478
13846TIP3    H263030   0.516   2.437   6.462  0.4551 -0.2811 -0.0440
13847TIP3   OH263031   4.633   1.815   2.221 -0.5424  0.0715 -0.1054
13847TIP3    H163032   4.680   1.893   2.249 -2.0281  1.2433 -0.8003
13847TIP3    H263033   4.614   1.769   2.303  1.1955 -0.1253  0.2427
13848TIP3   OH263034   0.927   0.049  15.690  0.0162  0.0533 -0.8435
13848TIP3    H163035   0.904   0.104  15.765  2.0331  0.3366 -0.3834
13848TIP3    H263036   0.943   0.110  15.619  0.9680 -0.0094 -0.6921
13849TIP3   OH263037   2.567   2.696   1.885 -0.2645  0.4680 -0.3041
13849TIP3    H163038   2.490   2.684   1.828 -0.4413  2.1024 -0.4553
13849TIP3    H263039   2.637   2.720   1.824 -0.0535  0.6467  0.0131
13850TIP3   OH263040   0.297   3.344  15.555  0.2569  0.1931 -0.0706
13850TIP3    H163041   0.245   3.311  15.482 -0.1231  0.5193  0.0488
13850TIP3    H263042   0.276   3.438  15.558  1.7277  0.5787 -0.7584
13851TIP3   OH263043   2.463   3.089  16.846  0.0986 -0.2308 -0.0329
13851TIP3    H163044   2.527   3.021  16.866 -0.7860 -1.5421 -1.4044
13851TIP3    H263045   2.467   3.148  16.920  0.8259 -1.8456  1.2909
13852TIP3   OH263046   0.048   3.999   0.455 -0.3995 -0.4614 -0.0188
13852TIP3    H163047   0.128   3.950   0.438 -0.9957 -1.0049 -1.3882
13852TIP3    H263048  -0.003   3.990   0.375 -1.7026  0.1332  0.7173
13853TIP3   OH263049   0.346   4.792  17.088 -0.8274  0.2110 -0.1838
13853TIP3    H163050   0.284   4.832  17.027 -0.6489  2.4847  1.0007
13853TIP3    H263051   0.333   4.840  17.170  1.0747 -0.6418  0.6891
13854TIP3   OH263052   1.813   6.665  13.966  0.0658  0.6681 -0.1085
13854TIP3    H163053   1.786   6.594  13.908 -0.6751  0.3794  0.5645
13854TIP3    H263054   1.825   6.622  14.051  0.1362  1.2605  0.1822
13855TIP3   OH263055   3.953   1.240   0.178  0.2091  0.3584  0.1419
13855TIP3    H163056   3.947   1.257   0.272 -0.7125 -1.1627  0.3955
13855TIP3    H263057   4.008   1.310   0.145  2.2462 -0.1898  2.1152
13856TIP3   OH263058   5.665   6.254   3.240  0.1623  0.1924  0.0738
13856TIP3    H163059   5.617   6.239   3.321  0.2638 -1.1184 -0.0917
13856TIP3    H263060   5.671   6.168   3.199  1.4360  0.5721 -0.5893
13857TIP3   OH263061   3.439   0.710  10.764 -0.0363 -0.2982 -0.2325
13857TIP3    H163062   3.492   0.740  10.838  0.1324 -1.5854  0.1956
13857TIP3    H263063   3.358   0.677  10.804  0.9847 -3.1793 -0.3062
13858TIP3   OH263064   4.870   3.790  13.776  0.0852  0.8015  0.5583
13858TIP3    H163065   4.911   3.833  13.851  0.3767 -0.3421  1.0733
13858TIP3    H263066   4.934   3.801  13.705  0.8892 -0.1785  1.1165
13859TIP3   OH263067   1.688   2.435  15.110 -0.5146 -0.3076 -0.1631
13859TIP3    H163068   1.692   2.410  15.017 -0.7024 -1.0091  0.0118
13859TIP3    H263069   1.775   2.414  15.144 -0.7652 -1.0302  0.0533
13860TIP3   OH263070   3.465   5.312  15.055 -0.2652 -0.1693  0.2674
13860TIP3    H163071   3.545   5.336  15.102 -0.1932  0.6853 -0.2745
13860TIP3    H263072   3.399   5.303  15.124  0.1645 -0.3487  0.6647
13861TIP3   OH263073   4.606   4.979  16.252  0.5568  0.2672  0.2364
13861TIP3    H163074   4.525   4.929  16.258  1.2167 -0.8162  0.2664
13861TIP3    H263075   4.591   5.041  16.180 -0.8533  1.1529  1.2314
13862TIP3   OH263076   6.061   0.025   2.938  0.6886 -0.0871  0.8459
13862TIP3    H163077   6.153   0.043   2.955  0.6269 -0.2918  1.4345
13862TIP3    H263078   6.045  -0.058   2.983  0.5218 -0.6809 -0.2731
13863TIP3   OH263079   0.945   3.149   4.463  0.6414 -0.1065 -0.2064
13863TIP3    H163080   1.019   3.090   4.479  0.6852  0.5268  2.4106
13863TIP3    H263081   0.984   3.225   4.421  1.0615 -0.7369 -0.9962
13864TIP3   OH263082   5.486   1.580   2.687  0.3103  0.2253  0.0879
13864TIP3    H163083   5.449   1.644   2.748 -0.5894 -0.7730  0.6201
13864TIP3    H263084   5.439   1.596   2.605  0.7088  0.8088 -0.0347
13865TIP3   OH263085   3.608   4.800   3.061  0.8579 -0.2634  0.2112
13865TIP3    H163086   3.598   4.885   3.019  0.3772  0.4681  1.7344
13865TIP3    H263087   3.521   4.778   3.093  1.0792 -1.1035  0.2809
13866TIP3   OH263088   3.102   1.341  15.290  0.0617 -0.0930 -0.7314
13866TIP3    H163089   3.084   1.270  15.352  1.7662  0.1915  0.1298
13866TIP3    H263090   3.031   1.335  15.226 -0.6713 -1.6073  0.1706
13867TIP3   OH263091   3.099   0.147  14.665  0.1840  0.4166  0.0270
13867TIP3    H163092   3.120   0.239  14.683  0.2045  0.1811  1.3530
13867TIP3    H263093   3.014   0.134  14.707  0.2060 -0.1882 -0.1125
13868TIP3   OH263094   3.217   4.057  15.450 -0.2260  0.1730  0.9028
13868TIP3    H163095   3.261   4.103  15.521  1.0179 -0.2361  0.4178
13868TIP3    H263096   3.144   4.011  15.493 -0.9996  1.8960  1.5182
13869TIP3   OH263097   3.769   1.591  13.063  0.2335 -0.2610  0.8707
13869TIP3    H163098   3.773   1.613  12.970 -2.4183 -0.8628  0.5344
13869TIP3    H263099   3.839   1.643  13.103  0.6686  0.9352 -1.2842
13870TIP3   OH263100   2.073   0.193   2.464 -0.4473  0.0187  0.2975
13870TIP3    H163101   2.154   0.239   2.442  0.0860 -1.5597 -1.2692
13870TIP3    H263102   2.012   0.219   2.395 -1.4238  1.4343  1.6347
13871TIP3   OH263103   2.011   3.488  13.588 -0.2050 -0.1788  0.1346
13871TIP3    H163104   1.964   3.410  13.559  0.9418 -0.0635 -2.2948
13871TIP3    H263105   1.961   3.561  13.551 -0.1866  0.1487  0.7443
13872TIP3   OH263106   4.080   1.889  17.140 -0.3226  0.1448 -0.0682
13872TIP3    H163107   4.167   1.883  17.103  0.0117 -0.9404  0.8194
13872TIP3    H263108   4.022   1.899  17.065  0.3638 -1.5492 -0.8883
13873TIP3   OH263109   2.887   4.489  16.090 -0.9248 -0.2794  0.6370
13873TIP3    H163110   2.973   4.451  16.074 -0.1756  1.9520 -1.1570
13873TIP3    H263111   2.825   4.424  16.057  0.2243 -0.6512 -0.8809
13874TIP3   OH263112   1.885   5.091  12.747 -0.0655  0.0768  0.9900
13874TIP3    H163113   1.958   5.032  12.767  0.7555  0.6624 -0.1380
13874TIP3    H263114   1.841   5.049  12.673  0.3246  0.6841  0.3992
13875TIP3   OH263115   5.737   4.926   3.379  0.1435  0.6027  0.7324
13875TIP3    H163116   5.807   4.948   3.440  1.7610 -3.1542  0.4808
13875TIP3    H263117   5.779   4.928   3.293 -0.7076  0.6994  0.3106
13876TIP3   OH263118   5.567   3.585   4.740 -1.2789 -0.1225  0.3209
13876TIP3    H163119   5.550   3.494   4.763  0.8995 -0.0955  2.3521
13876TIP3    H263120   5.596   3.581   4.648 -2.5166 -1.2563 -0.0523
13877TIP3   OH263121   4.987   1.371  15.807 -0.6992 -0.5745  0.2769
13877TIP3    H163122   4.952   1.460  15.804  1.7606  0.4898 -2.7004
13877TIP3    H263123   5.030   1.364  15.892 -1.0072  1.0249  0.5832
13878TIP3   OH263124   3.325   0.830  13.166  0.5203 -0.3421  0.0151
13878TIP3    H163125   3.396   0.889  13.142  1.6337 -2.0635 -1.1383
13878TIP3    H263126   3.299   0.788  13.084  1.0073 -2.7343  0.9846
13879TIP3   OH263127   1.742   3.792  12.876  0.0237 -0.6256 -0.3623
13879TIP3    H163128   1.669   3.805  12.815 -0.8817 -0.0202  0.8201
13879TIP3    H263129   1.799   3.729  12.832 -1.0336 -0.8426 -1.4655
13880TIP3   OH263130   6.749   1.047  11.205 -0.3084 -0.2504 -0.5183
13880TIP3    H163131   6.775   1.070  11.295  0.5369  0.1614 -0.8513
13880TIP3    H263132   6.801   0.970  11.184  0.3042  0.2804 -1.0156
13881TIP3   OH263133   1.616   5.614  15.940 -0.4118  0.1154  0.8315
13881TIP3    H163134   1.548   5.600  15.874  1.5714 -1.4101 -1.0077
13881TIP3    H263135   1.659   5.695  15.913  0.6504 -0.7101 -0.0639
13882TIP3   OH263136   2.626   1.178   1.188 -1.0332  0.2037 -0.4121
13882TIP3    H163137   2.689   1.204   1.255  0.0114  0.7952 -1.5804
13882TIP3    H263138   2.616   1.084   1.200 -0.0808  0.1356 -0.0595
13883TIP3   OH263139   6.431   0.849   1.478  0.0223  0.5940 -0.3658
13883TIP3    H163140   6.428   0.876   1.570 -1.0469  0.0614 -0.2249
13883TIP3    H263141   6.521   0.821   1.464 -0.3861 -1.8644  1.3036
13884TIP3   OH263142   2.108   1.569  12.943  0.4118  0.1310  0.3883
13884TIP3    H163143   2.183   1.559  13.002  1.6147  0.5370 -1.0341
13884TIP3    H263144   2.127   1.648  12.893 -0.7349 -0.0469 -0.3577
13885TIP3   OH263145   2.630   4.158  11.471  0.0197 -0.4027  0.2244
13885TIP3    H163146   2.547   4.191  11.435 -1.0479 -0.0145  2.8175
13885TIP3    H263147   2.695   4.223  11.443 -0.8844  0.3366 -0.2428
13886TIP3   OH263148   4.508   4.011   0.654 -0.0850  0.3761  0.1089
13886TIP3    H163149   4.533   4.099   0.624 -0.2623  0.2729 -0.3542
13886TIP3    H263150   4.419   3.999   0.622  0.4064 -0.4976 -1.0309
13887TIP3   OH263151   2.043   5.353  13.465 -0.4853 -0.4485  0.4573
13887TIP3    H163152   2.014   5.431  13.418  0.4548 -0.4175 -0.0883
13887TIP3    H263153   2.041   5.378  13.557 -0.2712  0.1961  0.2875
13888TIP3   OH263154   6.275   1.114  13.177 -0.0578  0.2678  0.4639
13888TIP3    H163155   6.218   1.098  13.102 -0.4172 -1.0434  1.0079
13888TIP3    H263156   6.216   1.142  13.247 -0.3621 -2.7273  1.5515
13889TIP3   OH263157   4.773   4.558   1.740 -0.4776  0.1285  0.4580
13889TIP3    H163158   4.750   4.479   1.788  0.2092  1.8951  4.0709
13889TIP3    H263159   4.860   4.581   1.772  0.9146  0.5418 -3.1612
13890TIP3   OH263160   1.541   3.481  11.226  0.4270 -0.2987 -0.2444
13890TIP3    H163161   1.588   3.433  11.295  2.5666 -0.3870 -1.6465
13890TIP3    H263162   1.507   3.412  11.169  0.1200 -0.2080 -0.1675
13891TIP3   OH263163   6.598   3.654  14.152 -0.1110 -0.1221 -0.3949
13891TIP3    H163164   6.577   3.654  14.059 -0.0342  0.8323 -0.4163
13891TIP3    H263165   6.638   3.568  14.168  1.0299  0.1857 -1.4932
13892TIP3   OH263166   5.339   6.061   2.438  0.3195  0.1919 -0.0893
13892TIP3    H163167   5.427   6.094   2.452  1.0470 -1.4425 -0.6011
13892TIP3    H263168   5.342   5.970   2.467 -0.5448 -0.5811 -2.2356
13893TIP3   OH263169   4.260   5.152  12.449  0.5218 -0.1487  0.1036
13893TIP3    H163170   4.190   5.162  12.384  1.1483  0.8831 -0.4395
13893TIP3    H263171   4.326   5.099  12.405  0.6571 -0.0187  0.1513
13894TIP3   OH263172   5.151   1.273   0.818 -0.1980  0.4500  0.1151
13894TIP3    H163173   5.216   1.334   0.855  0.4616 -0.5855  0.7180
13894TIP3    H263174   5.185   1.186   0.840 -1.9930 -0.1324  0.7957
13895TIP3   OH263175   3.003   3.308   1.460  0.1132 -0.4386  0.1854
13895TIP3    H163176   2.955   3.388   1.486  0.1883 -0.1903 -0.4323
13895TIP3    H263177   3.066   3.294   1.531 -0.7140 -0.6379  0.8984
13896TIP3   OH263178   5.250   4.414  17.101  0.1767  0.0177  0.3821
13896TIP3    H163179   5.291   4.329  17.086  1.0250  0.2138  1.4593
13896TIP3    H263180   5.279   4.467  17.026  1.3185 -0.0653  0.7414
13897TIP3   OH263181   0.313   1.621   3.460 -0.1404  0.6683  0.2514
13897TIP3    H163182   0.248   1.553   3.477  2.5409 -1.4346  3.1031
13897TIP3    H263183   0.305   1.681   3.534  0.4724  1.0511  0.0156
13898TIP3   OH263184   2.463   1.360  10.173 -0.0718 -0.2762  0.2834
13898TIP3    H163185   2.442   1.375  10.265 -1.2613 -1.4001  0.2209
13898TIP3    H263186   2.471   1.265  10.165 -0.4849 -0.2340 -0.8679
13899TIP3   OH263187   1.855   4.682  13.509 -0.7630 -0.1742  0.0348
13899TIP3    H163188   1.796   4.700  13.582  0.7441  2.2109  0.7642
13899TIP3    H263189   1.927   4.633  13.549  0.3114  1.5721  0.3286
13900TIP3   OH263190   5.453   1.972   4.260 -0.1551  0.1291 -0.3309
13900TIP3    H163191   5.437   1.984   4.354 -0.6847 -1.1662 -0.2344
13900TIP3    H263192   5.367   1.949   4.224  0.2766 -0.5820 -0.9266
13901TIP3   OH263193   5.028   0.630   6.595  0.0234  0.4186  0.8030
13901TIP3    H163194   4.988   0.551   6.631  0.8817 -0.5297 -0.2568
13901TIP3    H263195   5.122   0.614   6.598  0.1627  0.5695 -1.1803
13902TIP3   OH263196   1.640   3.661   1.310  0.0450  0.7495  0.0581
13902TIP3    H163197   1.552   3.626   1.325  0.4289  0.6413  2.5216
13902TIP3    H263198   1.648   3.734   1.372  2.1843 -0.1823  0.9738
13903TIP3   OH263199   1.412   2.542   2.580 -0.0970  0.0232 -0.4792
13903TIP3    H163200   1.317   2.533   2.573 -0.2896  1.0608  0.4754
13903TIP3    H263201   1.432   2.629   2.547  0.2034  0.7596  1.4873
13904TIP3   OH263202   2.056   4.462  13.969 -0.3750 -0.1046 -0.0579
13904TIP3    H163203   2.066   4.475  13.875 -1.0645 -0.7179 -0.2257
13904TIP3    H263204   2.068   4.368  13.982  0.2916  0.0511  0.5536
13905TIP3   OH263205   4.169   1.823  11.367 -0.0252  0.0282  0.0455
13905TIP3    H163206   4.090   1.865  11.334 -0.1534 -0.1569  0.1108
13905TIP3    H263207   4.144   1.731  11.380 -0.0351  0.1375  0.8363
13906TIP3   OH263208   4.283   6.254   1.086 -0.1354 -0.4478  0.2482
13906TIP3    H163209   4.218   6.261   1.016 -2.4453 -1.5289  2.1287
13906TIP3    H263210   4.324   6.340   1.090 -0.9419  0.0573 -1.4822
13907TIP3   OH263211   0.306   0.561   2.250  0.3255  0.0509  0.7392
13907TIP3    H163212   0.282   0.620   2.179  1.7170  0.5801  0.6842
13907TIP3    H263213   0.343   0.484   2.207  0.5565  0.0893  0.8635
13908TIP3   OH263214   1.694   3.346   4.790 -0.2403  0.4020 -0.1856
13908TIP3    H163215   1.762   3.408   4.815 -0.7369  1.0069 -0.3032
13908TIP3    H263216   1.612   3.391   4.811 -0.5994 -0.7197  0.9092
13909TIP3   OH263217   0.510   5.889  16.735  0.2855  0.0483 -0.6492
13909TIP3    H163218   0.482   5.981  16.744  0.4938  0.3528 -2.5820
13909TIP3    H263219   0.440   5.839  16.777 -0.4914  1.0496 -0.6869
13910TIP3   OH263220   0.940   5.881  14.577 -0.2921  0.2015 -0.0961
13910TIP3    H163221   0.954   5.914  14.488  0.8763  2.7320  0.9246
13910TIP3    H263222   1.028   5.875  14.614 -0.6643 -1.9902  0.5564
13911TIP3   OH263223   0.975   0.524  12.498 -0.5392 -0.3333  0.2994
13911TIP3    H163224   0.895   0.525  12.446  0.2688  0.9798 -0.9857
13911TIP3    H263225   1.034   0.466  12.449 -0.3864 -0.5672  0.7523
13912TIP3   OH263226   5.090   4.283  10.874 -0.1457  0.1409  0.1579
13912TIP3    H163227   5.128   4.337  10.804  1.4971  0.2420  1.0786
13912TIP3    H263228   5.031   4.342  10.921  1.4147  1.1285  0.9832
13913TIP3   OH263229   5.905   5.197  11.199  0.4808  0.2646 -0.4558
13913TIP3    H163230   5.963   5.253  11.250  0.0087  0.2258  0.1480
13913TIP3    H263231   5.963   5.142  11.146  1.0852 -0.9823  1.3935
13914TIP3   OH263232   4.289   5.207  15.190 -0.2131  0.2938  0.2836
13914TIP3    H163233   4.282   5.232  15.283  0.1317  0.4176  0.2763
13914TIP3    H263234   4.372   5.161  15.184 -0.5040 -0.2159  0.1465
13915TIP3   OH263235   6.278   2.992   0.045 -0.0799 -0.6051  0.2430
13915TIP3    H163236   6.301   2.935   0.119  3.4829  1.9367  1.3764
13915TIP3    H263237   6.312   2.946  -0.032 -0.4812 -1.5870  0.6252
13916TIP3   OH263238   6.753   6.607  14.829  0.1605  0.2357  0.0752
13916TIP3    H163239   6.836   6.652  14.815  0.4482 -0.9300 -2.5076
13916TIP3    H263240   6.724   6.638  14.915  4.0115 -0.4945  1.8819
13917TIP3   OH263241   1.606   0.938  11.041  0.3784 -0.2566 -0.1242
13917TIP3    H163242   1.696   0.970  11.032  0.2316  0.0539 -0.5393
13917TIP3    H263243   1.578   0.919  10.951 -0.4638  1.0607 -0.1782
13918TIP3   OH263244   0.890   4.211   3.854 -0.2708 -0.0769 -0.2322
13918TIP3    H163245   0.897   4.262   3.773 -0.3934  1.3824  0.6445
13918TIP3    H263246   0.819   4.253   3.903  0.2072 -0.5445  0.9069
13919TIP3   OH263247   4.304   2.335  14.862  0.8134  0.4042  0.2852
13919TIP3    H163248   4.384   2.310  14.909  1.1060  0.0149 -0.4151
13919TIP3    H263249   4.320   2.426  14.835  1.1559  0.2250 -0.1307
13920TIP3   OH263250   5.932   0.826  13.479  0.0515  0.1578 -0.1584
13920TIP3    H163251   5.946   0.825  13.573  0.8122 -1.1465 -0.2625
13920TIP3    H263252   5.906   0.916  13.459  0.7670  0.6749  1.1631
13921TIP3   OH263253   4.665   0.679   5.238  0.1437  0.2271 -0.0050
13921TIP3    H163254   4.757   0.662   5.256  0.4269 -1.4836 -2.5133
13921TIP3    H263255   4.641   0.750   5.297  1.8628 -2.0207  3.7590
13922TIP3   OH263256   0.521   5.978  12.022  0.7157  0.1102  0.1809
13922TIP3    H163257   0.485   5.955  12.108  1.0408  1.4223  0.6960
13922TIP3    H263258   0.614   5.957  12.029  0.4425 -1.4934 -0.5031
13923TIP3   OH263259   6.578   1.362  12.250 -0.2044 -0.3574 -0.1268
13923TIP3    H163260   6.665   1.335  12.221 -0.3604  0.3825 -1.3220
13923TIP3    H263261   6.523   1.359  12.171 -0.6498  1.6552  0.0451
13924TIP3   OH263262   4.952   1.092   5.411 -0.2269 -0.3643  0.2197
13924TIP3    H163263   4.890   1.093   5.484 -0.7155  2.7915 -0.1261
13924TIP3    H263264   4.906   1.049   5.340 -1.0556 -0.3241  0.7234
13925TIP3   OH263265   0.748   3.687  14.555  0.1706 -0.4693  0.1029
13925TIP3    H163266   0.691   3.705  14.630 -0.9402 -0.3799 -0.7367
13925TIP3    H263267   0.709   3.612  14.512  0.7798 -0.5031 -0.4082
13926TIP3   OH263268   5.586   6.081   0.905  0.0079 -0.5036  0.0344
13926TIP3    H163269   5.542   6.001   0.878  2.5410 -2.4150  1.1610
13926TIP3    H263270   5.665   6.084   0.851  1.0347  0.0314  1.5071
13927TIP3   OH263271   6.125   0.711  14.204 -0.1157 -0.1774  0.0650
13927TIP3    H163272   6.176   0.728  14.284 -0.9522 -1.5953  0.9363
13927TIP3    H263273   6.156   0.776  14.142  0.9791  0.5934  1.3660
13928TIP3   OH263274   5.216   3.115  14.672 -0.3703  0.0308 -0.0174
13928TIP3    H163275   5.193   3.125  14.765  0.1947  0.0943  0.1153
13928TIP3    H263276   5.181   3.193  14.630 -0.8355 -0.1092  0.0996
13929TIP3   OH263277   4.382   2.773  17.247  0.1673  0.2284  0.4227
13929TIP3    H163278   4.338   2.689  17.263  0.5954 -0.5062 -1.8138
13929TIP3    H263279   4.474   2.749  17.237  0.1292  0.7144 -1.5436
13930TIP3   OH263280   4.040   3.952   5.540 -0.0405 -0.1804 -0.0138
13930TIP3    H163281   4.065   3.881   5.599  3.0545  0.5557 -0.2238
13930TIP3    H263282   4.055   3.917   5.452  3.5322  1.1609 -0.1070
13931TIP3   OH263283   6.329   0.072  12.170  0.1280  0.0553 -0.0584
13931TIP3    H163284   6.412   0.091  12.213  0.0133  0.2719  0.0738
13931TIP3    H263285   6.309   0.152  12.121 -0.1045  0.0841  0.0811
13932TIP3   OH263286   0.120   4.329   4.217 -0.0610 -0.1541  0.4854
13932TIP3    H163287   0.190   4.290   4.270  0.6584 -0.9533 -0.9973
13932TIP3    H263288   0.041   4.284   4.245  0.5571 -1.7857 -0.2332
13933TIP3   OH263289   1.011   6.678   3.130  0.0069 -0.2853  0.0340
13933TIP3    H163290   1.096   6.686   3.088  0.1859 -1.7497  0.0623
13933TIP3    H263291   0.972   6.599   3.091 -0.7796 -0.3700  0.9457
13934TIP3   OH263292   2.804   5.950  11.225  0.3993  0.4198  0.5004
13934TIP3    H163293   2.875   5.887  11.223  1.0684  1.1760 -0.2596
13934TIP3    H263294   2.824   6.008  11.299 -0.0730 -0.0844  1.0318
13935TIP3   OH263295   0.240   0.385   6.427 -0.4259  0.5289  0.2827
13935TIP3    H163296   0.178   0.326   6.471 -1.0686  1.5245  0.7420
13935TIP3    H263297   0.315   0.389   6.487  0.3443 -1.0689 -0.5041
13936TIP3   OH263298   1.634   5.081   0.243 -0.1433  0.0937  0.2804
13936TIP3    H163299   1.564   5.145   0.255  0.1071  0.3603  0.3216
13936TIP3    H263300   1.656   5.087   0.150  2.1019  2.4127  0.8564
13937TIP3   OH263301   5.167   2.188  16.695  0.2741  0.0315 -0.2123
13937TIP3    H163302   5.208   2.260  16.742 -0.1049 -0.8030  1.4744
13937TIP3    H263303   5.146   2.123  16.763 -2.2638 -0.3237 -1.2041
13938TIP3   OH263304   2.749   1.796   5.047  0.0369 -0.1685  0.3383
13938TIP3    H163305   2.712   1.813   5.134 -2.8382 -1.4863 -0.5194
13938TIP3    H263306   2.797   1.714   5.057  0.6039  0.2119  0.8712
13939TIP3   OH263307   5.203   0.125  13.767 -0.4600  0.0008  1.0744
13939TIP3    H163308   5.156   0.139  13.685  1.4753  0.3329 -0.0355
13939TIP3    H263309   5.219   0.030  13.769  0.8197  0.1831  0.2727
13940TIP3   OH263310   3.867   0.213  15.227 -0.0934 -0.3209  0.5881
13940TIP3    H163311   3.945   0.158  15.217  0.6369  0.7792  0.1118
13940TIP3    H263312   3.812   0.192  15.152 -0.4029 -1.3018  1.0702
13941TIP3   OH263313   0.186   6.588   0.917 -0.1821 -0.0954 -0.1480
13941TIP3    H163314   0.114   6.524   0.917 -0.5110  0.2446 -1.4746
13941TIP3    H263315   0.263   6.538   0.943 -0.5257 -0.9263 -0.6866
13942TIP3   OH263316   2.981   1.790  13.096  0.3536 -0.1038  0.9480
13942TIP3    H163317   2.926   1.818  13.023  0.0791  2.3717  2.0015
13942TIP3    H263318   3.055   1.746  13.055  0.1918  1.2060 -0.8533
13943TIP3   OH263319   2.269   5.519   4.465  0.0949  0.0364 -0.3324
13943TIP3    H163320   2.363   5.512   4.478 -0.0494 -0.2239  0.6017
13943TIP3    H263321   2.258   5.602   4.419  0.7007  0.5638  0.4439
13944TIP3   OH263322   2.633   1.382  15.594  0.1607  0.2236 -0.0165
13944TIP3    H163323   2.684   1.302  15.581 -0.0002  0.1413 -0.1485
13944TIP3    H263324   2.687   1.451  15.556  0.9720  0.4068  1.4057
13945TIP3   OH263325   5.318   1.072  15.637 -0.9173 -0.4771 -0.0961
13945TIP3    H163326   5.358   1.155  15.665 -1.4773  0.0290 -0.7720
13945TIP3    H263327   5.338   1.011  15.708 -1.5290  0.5355  0.9832
13946TIP3   OH263328   3.288   4.689  11.690  0.4008  0.4047 -0.5913
13946TIP3    H163329   3.368   4.708  11.641 -0.5008  1.6203 -1.6461
13946TIP3    H263330   3.275   4.766  11.747  0.8674 -0.5273  0.8289
13947TIP3   OH263331   6.771   3.073  14.405  0.0960  0.3171 -0.2288
13947TIP3    H163332   6.785   2.979  14.419 -0.4023 -0.1040 -2.2563
13947TIP3    H263333   6.682   3.079  14.371 -0.4738  1.7260  1.3983
13948TIP3   OH263334   1.958   2.992   1.728 -0.6541  0.4070  0.0321
13948TIP3    H163335   2.037   2.948   1.760 -0.5021 -0.7541 -1.7894
13948TIP3    H263336   1.896   2.985   1.801 -0.3564 -2.1631  0.1300
13949TIP3   OH263337   5.295   6.610   4.303  0.6447  0.0058  0.3081
13949TIP3    H163338   5.279   6.573   4.390 -0.4274 -1.4513 -0.4526
13949TIP3    H263339   5.217   6.586   4.253  1.7596 -0.2464 -1.3860
13950TIP3   OH263340   5.196   0.447  11.908  0.9721 -0.4992  0.4336
13950TIP3    H163341   5.260   0.433  11.977  3.4540 -0.0043 -1.6147
13950TIP3    H263342   5.153   0.530  11.931  1.1108 -0.7917  1.8105
13951TIP3   OH263343   1.076   3.870  15.595 -0.3104 -0.3134  0.4345
13951TIP3    H163344   0.990   3.839  15.567 -0.6514  1.2334 -0.3476
13951TIP3    H263345   1.119   3.898  15.515 -0.4801  2.2256  1.1455
13952TIP3   OH263346   0.604   5.763   2.951  0.4365  0.1288 -0.0751
13952TIP3    H163347   0.645   5.682   2.981  0.5777  0.3967  0.4806
13952TIP3    H263348   0.670   5.803   2.894 -0.5591 -1.3052 -2.3925
13953TIP3   OH263349   5.091   0.335   2.465  0.0575 -0.4217 -0.4102
13953TIP3    H163350   5.093   0.244   2.494  0.2022 -0.7091 -1.2811
13953TIP3    H263351   5.179   0.369   2.484  0.2021 -0.6566 -0.6559
13954TIP3   OH263352   4.581   4.713  16.715 -0.2333  0.3613  0.1687
13954TIP3    H163353   4.591   4.748  16.804  0.5230  1.9703 -0.5078
13954TIP3    H263354   4.517   4.771  16.674 -1.0920 -0.7829 -0.1650
13955TIP3   OH263355   0.738   4.589  11.959  0.0091  0.3356  0.4865
13955TIP3    H163356   0.696   4.513  11.998  0.4896  0.1829  0.7226
13955TIP3    H263357   0.780   4.556  11.880  2.3076 -0.2251  1.8300
13956TIP3   OH263358   5.312   0.817  14.248 -0.0711  0.3968 -0.2306
13956TIP3    H163359   5.298   0.873  14.172 -0.4167 -0.2186 -0.6364
13956TIP3    H263360   5.295   0.873  14.323  0.7932  1.1583 -0.5816
13957TIP3   OH263361   3.210   6.039   0.372  0.0741 -0.6440 -0.2134
13957TIP3    H163362   3.119   6.047   0.344  0.8468  0.5029 -2.6746
13957TIP3    H263363   3.252   5.987   0.303  1.9222  1.6246 -0.9470
13958TIP3   OH263364   3.346   5.307  11.007  0.1444 -0.1642 -0.3571
13958TIP3    H163365   3.261   5.327  10.969 -0.8586 -1.0218  1.3389
13958TIP3    H263366   3.387   5.247  10.944 -1.1741 -1.0074 -0.4476
13959TIP3   OH263367   2.530   0.795  16.405 -0.5071  0.4160 -0.2982
13959TIP3    H163368   2.599   0.778  16.341  0.1530  0.4293  0.3974
13959TIP3    H263369   2.489   0.710  16.419  0.7963 -0.0438  0.8951
13960TIP3   OH263370   0.063   2.071   6.308  0.9748  0.1347  0.2227
13960TIP3    H163371   0.050   1.991   6.258 -0.5140  0.5234 -0.0643
13960TIP3    H263372   0.156   2.070   6.332  0.5943 -2.6964  2.0168
13961TIP3   OH263373   3.866   2.926   1.509 -0.2928 -0.0429 -0.4484
13961TIP3    H163374   3.774   2.940   1.491  0.2933  2.1171 -2.1912
13961TIP3    H263375   3.871   2.918   1.604 -2.1751  0.4473 -0.2707
13962TIP3   OH263376   5.603   3.461  11.761 -0.4499  0.2364  0.1138
13962TIP3    H163377   5.595   3.421  11.674 -0.7255 -0.6837  0.5482
13962TIP3    H263378   5.676   3.416  11.802 -0.9532 -0.0511  0.7207
13963TIP3   OH263379   4.465   0.874  11.673 -0.1317  0.3525 -0.3236
13963TIP3    H163380   4.541   0.888  11.617  0.8758 -1.7249  0.4179
13963TIP3    H263381   4.404   0.822  11.620 -0.5131  0.9601 -0.4930
13964TIP3   OH263382   0.769   3.785  15.577  0.1943 -0.1891 -0.8785
13964TIP3    H163383   0.715   3.729  15.633  2.0508 -0.8831  0.3277
13964TIP3    H263384   0.707   3.846  15.537 -1.2847  0.2765  1.8716
13965TIP3   OH263385   4.934   4.283   4.336 -0.1780 -0.0965  0.0831
13965TIP3    H163386   4.954   4.297   4.429  0.1789  1.1541 -0.1586
13965TIP3    H263387   4.868   4.349   4.316 -0.0881 -0.2135 -0.5998
13966TIP3   OH263388   3.617   4.857   3.782 -0.1641  0.2958 -0.0217
13966TIP3    H163389   3.578   4.916   3.718 -0.9016  1.0852  1.1230
13966TIP3    H263390   3.553   4.853   3.853  1.9424  1.9649  2.1370
13967TIP3   OH263391   6.013   6.142  15.260  0.1343 -0.2865  0.0643
13967TIP3    H163392   5.963   6.080  15.313  0.5274 -0.6504  0.0114
13967TIP3    H263393   6.105   6.120  15.278  0.2782 -0.7645 -1.1842
13968TIP3   OH263394   2.825   0.090   0.028  0.2097  0.3400  0.2862
13968TIP3    H163395   2.819   0.074  -0.066 -2.0314  0.0994  0.4267
13968TIP3    H263396   2.905   0.044   0.055  0.8962  0.4404 -1.4880
13969TIP3   OH263397   1.695   4.304   4.767 -0.0845 -0.0075 -0.3861
13969TIP3    H163398   1.780   4.342   4.789  0.6334 -1.6264 -0.2116
13969TIP3    H263399   1.664   4.357   4.693  0.8785  0.8719 -0.1854
13970TIP3   OH263400   3.732   0.101  15.440 -0.1112 -0.6481  0.4833
13970TIP3    H163401   3.778   0.165  15.386 -0.0382  0.3694  1.6963
13970TIP3    H263402   3.801   0.047  15.479 -0.0638 -0.4588  0.6666
13971TIP3   OH263403   3.301   6.574  12.622  0.2405 -0.2823 -0.1560
13971TIP3    H163404   3.211   6.567  12.655  0.3909 -0.0987  0.3114
13971TIP3    H263405   3.300   6.528  12.539 -0.2420 -0.4531 -0.0597
13972TIP3   OH263406   3.511   4.070  12.942 -0.3921 -0.2645 -0.4014
13972TIP3    H163407   3.473   3.993  12.985 -1.1720  1.0557  1.3839
13972TIP3    H263408   3.478   4.145  12.992  0.9903  1.2096 -1.5772
13973TIP3   OH263409   1.981   3.649  15.039  0.3320  0.4843  0.2102
13973TIP3    H163410   1.938   3.695  15.111  0.0168  2.6742 -1.3048
13973TIP3    H263411   2.073   3.643  15.066  0.1529  0.9185  0.9448
13974TIP3   OH263412   3.423   4.471   3.770 -0.5112  0.4212 -0.4349
13974TIP3    H163413   3.503   4.487   3.720 -1.2410  0.6312 -1.5655
13974TIP3    H263414   3.408   4.377   3.762  0.5330  0.0521  1.2428
13975TIP3   OH263415   1.409   1.111   5.564  0.1291 -0.0502  0.5987
13975TIP3    H163416   1.334   1.109   5.624  1.7081  1.0236  2.7638
13975TIP3    H263417   1.466   1.041   5.596  0.5724 -0.1080 -0.3019
13976TIP3   OH263418   3.450   4.457   0.772  0.3727  0.1098 -0.4013
13976TIP3    H163419   3.540   4.424   0.771  1.6088  3.0498  0.8011
13976TIP3    H263420   3.436   4.492   0.684  1.3043  1.6057  0.0016
13977TIP3   OH263421   5.279   1.848   1.374 -0.2506  0.1747 -0.0445
13977TIP3    H163422   5.366   1.859   1.412  0.1016  1.7188 -1.1825
13977TIP3    H263423   5.249   1.763   1.407  1.6352 -0.3589  0.4563
13978TIP3   OH263424   3.603   3.720   0.260  0.1556  0.6485 -0.6452
13978TIP3    H163425   3.574   3.647   0.315  1.7457  0.8784  0.5633
13978TIP3    H263426   3.587   3.798   0.313 -2.6466  1.4087 -2.3818
13979TIP3   OH263427   3.696   1.114   2.410  0.1874  0.0922  0.1882
13979TIP3    H163428   3.634   1.065   2.355 -0.5523  1.0461  0.1464
13979TIP3    H263429   3.642   1.158   2.475  1.0268 -0.7314  1.4832
13980TIP3   OH263430   5.391   5.216  15.939  0.1463  0.2950 -0.3335
13980TIP3    H163431   5.455   5.234  15.870  0.3188 -0.7055 -0.4488
13980TIP3    H263432   5.313   5.264  15.912  0.5902  0.8618 -0.6162
13981TIP3   OH263433   6.598   1.895   0.931 -0.3228 -0.1365 -0.4703
13981TIP3    H163434   6.690   1.871   0.938 -0.5660 -1.2284 -0.8039
13981TIP3    H263435   6.576   1.930   1.018 -0.0254 -1.5113  0.1915
13982TIP3   OH263436   3.732   2.069  11.089 -0.1214 -0.9583  0.0498
13982TIP3    H163437   3.819   2.053  11.125 -1.0724 -2.8248  1.7446
13982TIP3    H263438   3.742   2.058  10.995  1.3730 -1.6341  0.2676
13983TIP3   OH263439   3.941   1.105  17.049  0.1855 -0.1413  0.2061
13983TIP3    H163440   3.940   1.085  16.956 -4.0188  0.8973 -0.1360
13983TIP3    H263441   4.006   1.176  17.057  2.2657 -1.7292 -1.4328
13984TIP3   OH263442   5.732   4.415   4.945 -0.9403 -0.5156 -0.1579
13984TIP3    H163443   5.787   4.471   4.999  0.1389 -0.7521 -0.9708
13984TIP3    H263444   5.711   4.340   5.001 -0.3514 -0.4600  0.1434
13985TIP3   OH263445   3.294   2.036  16.100  0.6171 -0.1123  0.2209
13985TIP3    H163446   3.344   2.004  16.025  0.6166 -0.2357  0.2726
13985TIP3    H263447   3.203   2.029  16.073  0.6156 -0.1843  0.2440
13986TIP3   OH263448   2.488   5.239  16.431  0.5603  0.3617 -0.8368
13986TIP3    H163449   2.525   5.316  16.475  0.9435  0.2435 -0.9409
13986TIP3    H263450   2.414   5.213  16.486  1.0708  0.1794 -0.2228
13987TIP3   OH263451   1.182   5.896  11.950 -0.8429  0.0501  0.4890
13987TIP3    H163452   1.143   5.829  11.893  0.0143 -0.0679  0.0207
13987TIP3    H263453   1.252   5.934  11.897 -0.3838  0.3200  1.2776
13988TIP3   OH263454   2.504   6.777  12.199  0.3963 -0.4811  0.7849
13988TIP3    H163455   2.426   6.739  12.239 -0.3990 -0.6050 -0.8077
13988TIP3    H263456   2.496   6.756  12.106  1.0034  1.7465  0.1702
13989TIP3   OH263457   0.731   6.514  13.451 -0.9066  0.1425 -0.0956
13989TIP3    H163458   0.770   6.433  13.484  2.8035  2.6382  2.4591
13989TIP3    H263459   0.763   6.522  13.362 -0.0597 -0.4952  0.1424
13990TIP3   OH263460   0.020   1.623  12.139 -0.1248  0.5542  0.4596
13990TIP3    H163461  -0.034   1.587  12.068 -0.0794 -0.5481  0.9675
13990TIP3    H263462   0.031   1.550  12.200 -0.3041  1.5219  1.6879
13991TIP3   OH263463   6.273   2.143   3.911 -0.7072  0.1155  0.3387
13991TIP3    H163464   6.249   2.181   3.826  1.0132 -1.6429 -0.9980
13991TIP3    H263465   6.354   2.187   3.935 -0.9521  0.2849  0.8770
13992TIP3   OH263466   1.358   2.665  11.991  0.2361 -0.2660  0.5633
13992TIP3    H163467   1.315   2.710  12.064  3.1076  1.5203  1.3360
13992TIP3    H263468   1.336   2.719  11.915  1.8063  1.2558  1.1202
13993TIP3   OH263469   5.966   4.259   5.633  0.0451 -0.4048 -0.3440
13993TIP3    H163470   5.927   4.210   5.561 -0.0531  0.1814 -0.7024
13993TIP3    H263471   5.907   4.334   5.645  0.3166 -0.2485  0.0278
13994TIP3   OH263472   5.376   4.773   5.939 -0.0395 -0.4712  0.1631
13994TIP3    H163473   5.378   4.868   5.924  1.4944 -0.2647  1.3774
13994TIP3    H263474   5.363   4.736   5.852  1.3743  0.8234 -0.6680
13995TIP3   OH263475   5.777   6.643  16.012  0.3957  0.4118  0.2711
13995TIP3    H163476   5.817   6.696  15.942 -1.5905  3.2233  1.1038
13995TIP3    H263477   5.693   6.614  15.975  0.0478  0.5511  0.9546
13996TIP3   OH263478   4.495   4.343   5.930  0.4754 -0.5007  0.0270
13996TIP3    H163479   4.439   4.360   5.855 -1.5080 -0.8445  1.3435
13996TIP3    H263480   4.550   4.421   5.938 -0.5884  0.3388 -0.6685
13997TIP3   OH263481   6.519   0.983  13.293  0.0892  0.0021  0.2699
13997TIP3    H163482   6.522   1.022  13.380 -1.7246  0.1488  0.3010
13997TIP3    H263483   6.507   0.889  13.310  0.7488 -0.1028  0.1741
13998TIP3   OH263484   1.578   2.744   4.507 -0.6463 -0.4030 -0.1898
13998TIP3    H163485   1.649   2.791   4.551 -0.9250  0.0764 -0.2444
13998TIP3    H263486   1.576   2.658   4.550 -0.1701 -0.3468 -0.0499
13999TIP3   OH263487   4.758   3.316   5.150  0.0592 -0.0442  0.1542
13999TIP3    H163488   4.814   3.239   5.155  0.8685  0.3872 -1.7492
13999TIP3    H263489   4.818   3.389   5.136 -0.8770  0.5964 -0.6441
14000TIP3   OH263490   5.565   0.226   3.000  0.0118 -0.0531 -0.4760
14000TIP3    H163491   5.644   0.278   2.989  0.2986 -0.4838 -0.4822
14000TIP3    H263492   5.594   0.148   3.048 -0.5905  0.2532  0.4323
14001TIP3   OH263493   2.565   4.448   3.946  0.5881  0.2402  0.1862
14001TIP3    H163494   2.643   4.501   3.928  0.1449  1.0594  0.6247
14001TIP3    H263495   2.495   4.512   3.959  0.4813 -0.3039  2.9952
14002TIP3   OH263496   4.884   1.635  15.836 -0.1306 -0.3970  0.0151
14002TIP3    H163497   4.836   1.715  15.813 -0.2775 -0.3485  0.4729
14002TIP3    H263498   4.885   1.635  15.932  1.7457  0.1763  0.0295
14003TIP3   OH263499   5.257   2.000   2.889 -0.2078 -1.1161  0.4993
14003TIP3    H163500   5.337   1.948   2.881  0.7718  0.5321 -1.1991
14003TIP3    H263501   5.186   1.938   2.871  0.9044 -1.9113 -1.3991
14004TIP3   OH263502   5.640   2.782  13.345  0.1256  0.6602  0.2651
14004TIP3    H163503   5.719   2.782  13.290 -0.1610 -0.7991 -0.1922
14004TIP3    H263504   5.669   2.748  13.429  0.0428  0.3869  0.1839
14005TIP3   OH263505   4.105   0.995  14.615 -1.1835  0.2319  0.1366
14005TIP3    H163506   4.063   1.052  14.681  0.2696  1.0221  0.4268
14005TIP3    H263507   4.135   1.056  14.548 -0.5957 -0.3218 -0.1038
14006TIP3   OH263508   5.198   2.963  11.872  0.2479 -0.2134  0.4088
14006TIP3    H163509   5.127   2.937  11.931 -1.1165 -1.7751 -1.7484
14006TIP3    H263510   5.269   2.901  11.891  0.0450 -0.3302  0.8039
14007TIP3   OH263511   2.771   6.197  14.091  0.0670 -0.6094  0.0510
14007TIP3    H163512   2.848   6.162  14.047  0.7327 -1.0019  1.4720
14007TIP3    H263513   2.701   6.135  14.071 -0.1384  0.1882 -1.9345
14008TIP3   OH263514   6.771   1.750  16.755 -0.2770 -0.2494  0.4033
14008TIP3    H163515   6.813   1.797  16.827  1.9878  0.3106 -1.1555
14008TIP3    H263516   6.697   1.705  16.795  1.3871 -0.7085  3.2852
14009TIP3   OH263517   4.551   5.290  12.980 -0.3733  0.6377  0.2819
14009TIP3    H163518   4.579   5.248  12.899 -1.6053  0.4544 -0.0835
14009TIP3    H263519   4.569   5.383  12.967 -1.9344  0.8205 -0.8512
14010TIP3   OH263520   5.918   1.422   1.859 -0.0153  0.1972  0.6446
14010TIP3    H163521   5.831   1.462   1.858  0.1661  0.6740  1.7928
14010TIP3    H263522   5.954   1.446   1.945  0.8059 -0.9494  0.6375
14011TIP3   OH263523   3.869   4.870   1.316 -0.2652 -0.4065 -0.0399
14011TIP3    H163524   3.924   4.932   1.364 -0.5419 -1.3780  1.6159
14011TIP3    H263525   3.915   4.855   1.234  0.5942  0.7821  0.1960
14012TIP3   OH263526   5.251   4.951   5.522  0.1269 -0.0777 -0.1721
14012TIP3    H163527   5.294   5.036   5.532 -0.1157  0.1925 -1.2737
14012TIP3    H263528   5.175   4.956   5.580  0.3156  0.3150  0.0496
14013TIP3   OH263529   0.419   4.378  15.797  0.4936  0.6491  0.5186
14013TIP3    H163530   0.360   4.413  15.864  1.0752  0.9105  0.9099
14013TIP3    H263531   0.499   4.430  15.807  0.3812  1.0974 -0.7896
14014TIP3   OH263532   2.813   5.255   1.149 -0.3421 -0.1827  0.6627
14014TIP3    H163533   2.869   5.180   1.129  0.3274  0.6466 -0.6844
14014TIP3    H263534   2.748   5.256   1.079  0.1535  0.9443  0.1825
14015TIP3   OH263535   6.210   5.847   6.018 -0.2982  0.0777  0.7205
14015TIP3    H163536   6.299   5.816   6.032  0.2053  1.7426  1.5098
14015TIP3    H263537   6.210   5.936   6.053 -2.1891  0.2361  0.4333
14016TIP3   OH263538   1.597   6.478   2.818 -0.8687 -0.0157 -0.2032
14016TIP3    H163539   1.599   6.440   2.906 -2.2523  1.2660  0.4204
14016TIP3    H263540   1.552   6.412   2.765  0.5917 -1.1041 -0.1503
14017TIP3   OH263541   4.576   2.068   1.866 -0.4787  0.6109 -0.4573
14017TIP3    H163542   4.618   1.995   1.820 -1.2284 -0.0467 -0.1294
14017TIP3    H263543   4.584   2.142   1.806  0.8606  0.4306 -0.5299
14018TIP3   OH263544   2.326   0.875   5.426 -0.1544  0.2874  0.3780
14018TIP3    H163545   2.231   0.860   5.430 -0.2226  0.8429  1.0840
14018TIP3    H263546   2.335   0.969   5.412  0.2970  0.0417 -1.2537
14019TIP3   OH263547   1.786   0.953   5.501  0.3116  0.5608  0.2469
14019TIP3    H163548   1.745   0.867   5.495  0.7280  0.4379 -1.6047
14019TIP3    H263549   1.860   0.941   5.560  0.5776 -0.4505 -0.2711
14020TIP3   OH263550   2.902   0.156   3.034  0.0063 -0.0138 -0.1349
14020TIP3    H163551   2.932   0.167   3.124 -0.4418  0.1677 -0.0007
14020TIP3    H263552   2.965   0.204   2.981 -0.7972  1.5686  0.2702
14021TIP3   OH263553   0.524   4.923  16.786 -0.0053 -0.0559  0.1510
14021TIP3    H163554   0.555   4.838  16.819 -0.2803 -0.1594  0.1446
14021TIP3    H263555   0.583   4.987  16.827 -0.0523 -0.2189  0.4777
14022TIP3   OH263556   5.190   0.214   3.382 -0.1583 -0.3514  0.0847
14022TIP3    H163557   5.185   0.133   3.331  1.1746 -0.2050 -0.3291
14022TIP3    H263558   5.184   0.284   3.317  0.8628 -0.1584  0.1745
14023TIP3   OH263559   4.543   1.704  12.679 -0.0605 -0.4728 -0.2105
14023TIP3    H163560   4.485   1.780  12.678  0.1326 -0.3219  0.1269
14023TIP3    H263561   4.522   1.659  12.761 -0.7286 -1.2099 -0.7703
14024TIP3   OH263562   4.839   3.880   1.663  0.0439 -0.2778  0.2799
14024TIP3    H163563   4.767   3.917   1.714 -0.2945 -1.7387  0.9196
14024TIP3    H263564   4.814   3.893   1.572 -0.4907  0.2188  0.4947
14025TIP3   OH263565   5.507   4.051  12.288  0.5206 -0.9575  0.2177
14025TIP3    H163566   5.431   4.090  12.245  1.3926  0.1441 -0.3775
14025TIP3    H263567   5.501   4.080  12.379  1.1230  0.5921 -0.2011
14026TIP3   OH263568   3.293   2.652   5.102  0.3115  0.1187  0.7161
14026TIP3    H163569   3.377   2.671   5.060 -0.5655  0.2752 -1.0699
14026TIP3    H263570   3.258   2.737   5.127 -1.1382  0.5595 -2.3372
14027TIP3   OH263571   5.037   4.477   6.179 -0.1390  0.4554 -0.1723
14027TIP3    H163572   5.009   4.540   6.246 -0.1282 -1.0369  1.3186
14027TIP3    H263573   5.123   4.447   6.209 -0.5431 -0.9321 -0.3381
14028TIP3   OH263574   1.539   1.903   2.217 -0.4520  0.3810 -0.0468
14028TIP3    H163575   1.519   1.970   2.282 -0.5621 -1.2154  1.6374
14028TIP3    H263576   1.632   1.884   2.230 -0.5527 -0.1827 -0.1442
14029TIP3   OH263577   0.434   0.336  11.911  0.0216  0.3556  0.3575
14029TIP3    H163578   0.372   0.266  11.891  3.6273 -3.1189 -0.0351
14029TIP3    H263579   0.468   0.363  11.826  1.2098 -0.1071  0.6563
14030TIP3   OH263580   5.277   0.474   0.620 -0.2406  0.3232 -0.5693
14030TIP3    H163581   5.211   0.502   0.682 -0.7745  1.6784 -1.6904
14030TIP3    H263582   5.359   0.477   0.669 -0.6613  1.2834  0.1041
14031TIP3   OH263583   2.074   0.438  11.977  0.0223 -0.2297 -0.0335
14031TIP3    H163584   2.021   0.385  11.918 -0.4426 -0.1046  0.2686
14031TIP3    H263585   2.018   0.512  12.000 -0.4318 -1.1014  1.8716
14032TIP3   OH263586   4.245   0.453   2.061  0.5373  0.0536  0.4790
14032TIP3    H163587   4.270   0.361   2.071 -2.6315 -0.9319  0.6356
14032TIP3    H263588   4.190   0.455   1.983  0.4330  1.8055  0.5481
14033TIP3   OH263589   4.605   2.566  15.593 -0.8132 -0.2982 -0.1940
14033TIP3    H163590   4.674   2.612  15.642 -2.2130  1.0686  0.5924
14033TIP3    H263591   4.637   2.565  15.503  1.0942 -1.4445  0.4324
14034TIP3   OH263592   0.569   3.415   3.091 -0.0007 -0.3416 -0.3604
14034TIP3    H163593   0.596   3.347   3.154 -0.5437  0.6799  1.0264
14034TIP3    H263594   0.570   3.496   3.142 -0.8082  0.4659 -1.5925
14035TIP3   OH263595   2.509   0.032   6.490 -0.1525 -0.0463 -0.3124
14035TIP3    H163596   2.587  -0.023   6.488 -0.8698 -1.2387  1.7385
14035TIP3    H263597   2.446  -0.014   6.435  0.2148  0.3621 -1.0943
14036TIP3   OH263598   5.733   1.465   2.352  0.6624 -0.7387  0.4339
14036TIP3    H163599   5.674   1.539   2.364 -0.2271 -0.8460 -2.5442
14036TIP3    H263600   5.715   1.408   2.427 -1.5021  0.2015  0.7082
14037TIP3   OH263601   6.628   4.769   1.729 -0.0126  0.3893 -0.6606
14037TIP3    H163602   6.539   4.780   1.762  0.1185  1.1504 -0.5359
14037TIP3    H263603   6.642   4.674   1.726 -0.8713  0.2645 -0.8042
14038TIP3   OH263604   5.113   5.131  15.859  0.4674 -0.3483  0.1022
14038TIP3    H163605   5.026   5.093  15.868 -0.3684  1.4388 -0.1682
14038TIP3    H263606   5.151   5.085  15.784 -0.3487 -0.9168  0.0208
14039TIP3   OH263607   3.880   5.511  17.031 -0.5511  0.2085 -0.3405
14039TIP3    H163608   3.870   5.442  17.097  0.0027 -0.2344 -0.7101
14039TIP3    H263609   3.969   5.544  17.045 -0.0457 -0.5776 -1.4987
14040TIP3   OH263610   3.540   0.965  10.489 -0.2550 -0.0177  0.2825
14040TIP3    H163611   3.516   1.056  10.509  0.1603  0.1163  0.1789
14040TIP3    H263612   3.579   0.933  10.571  1.4404  0.5287 -0.2596
14041TIP3   OH263613   3.653   4.063   3.646  0.0562  0.6226  0.0373
14041TIP3    H163614   3.618   3.996   3.588  1.9243 -0.0761 -0.3598
14041TIP3    H263615   3.644   4.145   3.597  1.0180  0.1278 -1.0252
14042TIP3   OH263616   4.775   3.964   2.752  0.0677  0.2400 -0.1860
14042TIP3    H163617   4.818   4.031   2.699  1.3271  0.7339  1.3934
14042TIP3    H263618   4.751   3.896   2.689  0.8161  1.1383 -1.4927
14043TIP3   OH263619   3.857   4.501  11.691  0.2132  0.8175 -0.0804
14043TIP3    H163620   3.823   4.460  11.612 -1.9115  0.6084  0.8673
14043TIP3    H263621   3.879   4.590  11.664  2.1483 -0.0101 -1.4819
14044TIP3   OH263622   3.850   2.020   1.095 -0.2122  0.4240  0.1797
14044TIP3    H163623   3.783   1.969   1.140  0.0938 -0.2328 -0.1064
14044TIP3    H263624   3.925   1.961   1.087  0.8992  1.5641  1.6730
14045TIP3   OH263625   0.392   3.125  15.775  0.1527  0.1736 -0.2092
14045TIP3    H163626   0.360   3.203  15.729  0.1231 -0.1340 -0.7187
14045TIP3    H263627   0.474   3.103  15.732  0.4221  0.2175  0.2703
14046TIP3   OH263628   4.845   0.740  13.446  0.4325 -0.2097 -0.0851
14046TIP3    H163629   4.762   0.786  13.431  1.8835  2.2387 -1.2749
14046TIP3    H263630   4.853   0.680  13.373 -0.0297 -0.0381 -0.2828
14047TIP3   OH263631   0.283   0.134  13.340 -0.3178  0.3548 -0.3014
14047TIP3    H163632   0.261   0.041  13.339  0.5481  0.1159  0.5778
14047TIP3    H263633   0.326   0.149  13.256  1.0092 -0.4498  0.1927
14048TIP3   OH263634   2.596   2.723  15.796  0.1889 -0.1525 -0.1686
14048TIP3    H163635   2.558   2.646  15.752 -2.0618  0.7657  0.0555
14048TIP3    H263636   2.683   2.693  15.823 -0.3327 -2.4059 -0.6994
14049TIP3   OH263637   1.666   4.105   4.556  0.0564  0.2684 -0.1125
14049TIP3    H163638   1.650   4.165   4.630 -2.5661 -1.8145  1.1794
14049TIP3    H263639   1.736   4.048   4.586 -1.4200 -0.9750  1.1566
14050TIP3   OH263640   0.366   5.835  12.243 -0.1507  0.4280 -0.3580
14050TIP3    H163641   0.423   5.767  12.280 -0.2767  0.0759 -0.7929
14050TIP3    H263642   0.311   5.787  12.181 -1.7521  0.5448  0.9240
14051TIP3   OH263643   0.293   4.689  14.628 -0.9251  0.1054 -0.4392
14051TIP3    H163644   0.232   4.642  14.571 -0.1617  0.8090 -1.8850
14051TIP3    H263645   0.321   4.765  14.577  0.8540  0.0192  0.3183
14052TIP3   OH263646   1.997   2.342   2.060 -0.2997  0.1381  0.1206
14052TIP3    H163647   1.962   2.263   2.018 -1.8286 -0.2366  1.9846
14052TIP3    H263648   2.039   2.310   2.140  1.4264  0.9709 -0.4036
14053TIP3   OH263649   5.450   3.535  14.145 -0.3002 -0.5001 -0.0606
14053TIP3    H163650   5.421   3.626  14.143  3.0755  0.7361 -2.4457
14053TIP3    H263651   5.422   3.500  14.060  0.5121 -0.8789 -0.1838
14054TIP3   OH263652   5.895   6.715  15.786  0.2462  0.1645 -0.0599
14054TIP3    H163653   5.887   6.672  15.701 -0.5046  1.5268 -0.7229
14054TIP3    H263654   5.866   6.805  15.770  0.0958  0.4553  1.6417
14055TIP3   OH263655   6.249   2.551  15.897  0.0315 -0.2436 -0.5111
14055TIP3    H163656   6.181   2.521  15.957 -0.6790 -0.0284 -1.1793
14055TIP3    H263657   6.201   2.594  15.826  0.7876 -1.0065 -1.5308
14056TIP3   OH263658   5.109   6.776   6.682  0.1370  0.5352  0.4129
14056TIP3    H163659   5.077   6.752   6.769 -0.2750 -0.1028  0.0890
14056TIP3    H263660   5.065   6.859   6.662 -0.5585  0.1664  0.3864
14057TIP3   OH263661   3.908   0.003   3.706  0.0075  0.1190  0.0408
14057TIP3    H163662   3.844  -0.063   3.678  0.5259  0.3570 -1.8950
14057TIP3    H263663   3.907   0.067   3.635  3.1544 -0.4275 -0.6215
14058TIP3   OH263664   4.984   1.962   4.025  0.2607  0.7111 -0.5816
14058TIP3    H163665   4.956   2.051   4.005  0.1025  0.9125  0.4432
14058TIP3    H263666   4.922   1.932   4.092  0.4233 -0.1021 -0.7782
14059TIP3   OH263667   3.943   3.388   5.068 -1.0327 -0.1277 -0.2767
14059TIP3    H163668   3.994   3.424   5.141 -1.0216 -2.3039  0.8730
14059TIP3    H263669   3.852   3.399   5.095 -1.0165 -1.9138  0.6380
14060TIP3   OH263670   3.813   4.333   4.478  0.0913  0.0527 -0.2527
14060TIP3    H163671   3.798   4.337   4.573  0.8274 -1.6405 -0.0315
14060TIP3    H263672   3.739   4.282   4.444  0.3959 -0.2606 -0.4465
14061TIP3   OH263673   2.776   0.422  15.071  0.2714 -0.3925 -0.4506
14061TIP3    H163674   2.697   0.386  15.031 -0.4676  0.6850  0.0053
14061TIP3    H263675   2.753   0.436  15.163  0.9969 -0.0544 -0.3109
14062TIP3   OH263676   6.372   4.232  13.227  0.1851  0.1084  0.1083
14062TIP3    H163677   6.454   4.262  13.187 -0.1622  0.7914 -0.1024
14062TIP3    H263678   6.385   4.138  13.241  1.3889  0.3814  0.9774
14063TIP3   OH263679   3.826   3.859  15.933  0.1084  0.3317  0.1982
14063TIP3    H163680   3.868   3.797  15.873  0.7369  2.1221 -1.2895
14063TIP3    H263681   3.772   3.804  15.990  1.7707 -1.7051 -0.0906
14064TIP3   OH263682   4.804   3.957   3.066 -0.0095  0.6744 -0.2678
14064TIP3    H163683   4.807   3.996   2.979 -0.3376  0.5618 -0.3322
14064TIP3    H263684   4.734   4.004   3.111  1.8621  2.5626  0.8495
14065TIP3   OH263685   1.260   3.863   2.770 -0.5001  0.9590  0.4490
14065TIP3    H163686   1.355   3.855   2.774 -0.5557 -1.9057 -0.7238
14065TIP3    H263687   1.229   3.833   2.855 -0.3609  0.3401  0.2878
14066TIP3   OH263688   5.312   1.979   1.114 -0.0140  0.1256 -0.1699
14066TIP3    H163689   5.221   1.975   1.086 -0.3938  5.0273 -0.4186
14066TIP3    H263690   5.309   1.956   1.207 -0.7442 -3.2795 -0.8789
14067TIP3   OH263691   5.804   4.355  15.940 -0.2441  0.5601 -0.0828
14067TIP3    H163692   5.750   4.276  15.942 -0.0961  0.4377 -0.6094
14067TIP3    H263693   5.750   4.423  15.979 -1.0418  0.5961 -1.2026
14068TIP3   OH263694   0.195   0.661  14.031 -0.6070  0.3245  0.2147
14068TIP3    H163695   0.254   0.631  14.101 -1.5806 -0.3385  0.7782
14068TIP3    H263696   0.170   0.749  14.057  0.3329  0.7076 -0.1600
14069TIP3   OH263697   6.361   6.267  16.367 -0.4240  0.2721 -0.2350
14069TIP3    H163698   6.346   6.330  16.438  0.5168 -0.7764  0.9383
14069TIP3    H263699   6.423   6.204  16.403 -2.0949 -1.9421 -0.9966
14070TIP3   OH263700   4.988   6.324   0.153  0.9561 -0.5387 -0.2496
14070TIP3    H163701   5.041   6.385   0.102  1.2375 -2.0430 -1.8696
14070TIP3    H263702   5.044   6.302   0.228 -0.1563  3.0561  1.8820
14071TIP3   OH263703   0.255   1.166  13.427  0.4889 -0.3060  0.8477
14071TIP3    H163704   0.312   1.145  13.501  1.0498  1.0748  0.8357
14071TIP3    H263705   0.217   1.251  13.449  0.3232 -0.0847 -0.2490
14072TIP3   OH263706   2.675   5.580   1.328 -0.0414  0.0318  0.3466
14072TIP3    H163707   2.689   5.661   1.378 -0.8285 -1.0155  2.3944
14072TIP3    H263708   2.751   5.526   1.351  0.2320 -0.0103 -0.6284
14073TIP3   OH263709   4.317   4.097  11.243 -0.1832 -0.2493  0.2698
14073TIP3    H163710   4.350   4.039  11.174 -3.2677 -1.5525 -0.2836
14073TIP3    H263711   4.276   4.038  11.306 -1.3267  1.1851  0.9220
14074TIP3   OH263712   4.325   5.893   5.084 -0.6192 -0.6024  0.1800
14074TIP3    H163713   4.337   5.822   5.021 -2.1977 -0.2437 -0.5802
14074TIP3    H263714   4.230   5.901   5.094 -0.4312 -0.1472  2.0581
14075TIP3   OH263715   1.889   0.482   3.191 -0.1731  0.2213  0.4471
14075TIP3    H163716   1.972   0.528   3.180 -0.6907  0.8997 -0.9049
14075TIP3    H263717   1.864   0.499   3.282 -0.0451  2.1585  0.1622
14076TIP3   OH263718   0.978   6.633   3.604 -0.0764  0.4370  0.4585
14076TIP3    H163719   1.014   6.582   3.531  0.0356 -0.3797  1.0694
14076TIP3    H263720   0.918   6.572   3.648  1.3109  0.2435  2.1890
14077TIP3   OH263721   4.700   4.476   4.230  0.3289 -0.3858  0.0886
14077TIP3    H163722   4.703   4.453   4.323  0.9512  0.4128  0.2771
14077TIP3    H263723   4.611   4.454   4.202 -0.1442  0.1904  1.0977
14078TIP3   OH263724   4.807   4.379  15.906 -0.5223 -0.5569 -0.6812
14078TIP3    H163725   4.744   4.410  15.841 -1.1281 -0.2081  0.0608
14078TIP3    H263726   4.768   4.401  15.990  0.3589 -0.7986 -0.1955
14079TIP3   OH263727   5.034   4.889   5.700  0.0347 -0.2338  0.0643
14079TIP3    H163728   5.011   4.918   5.788  1.4214  0.5575  0.1876
14079TIP3    H263729   4.952   4.893   5.651 -0.1626  2.4966  0.4613
14080TIP3   OH263730   6.093   2.858   0.534 -0.4961 -0.5036  0.4320
14080TIP3    H163731   6.070   2.786   0.593 -1.4594 -1.4724 -1.0728
14080TIP3    H263732   6.188   2.848   0.521 -0.4481 -0.8872  1.0009
14081TIP3   OH263733   3.524   3.911   3.423  0.2963 -0.2279 -1.0440
14081TIP3    H163734   3.520   3.936   3.330  2.5040 -0.7768 -1.3531
14081TIP3    H263735   3.442   3.866   3.439 -0.4858  0.5980 -2.5102
14082TIP3   OH263736   2.274   6.605  14.937 -0.2060 -0.5106  0.2014
14082TIP3    H163737   2.183   6.634  14.932 -0.3714 -0.9720  0.4882
14082TIP3    H263738   2.305   6.637  15.022  0.5023  1.3242 -0.6758
14083TIP3   OH263739   4.975   5.017   2.358  0.4886 -0.0338  0.1534
14083TIP3    H163740   4.936   5.096   2.320  0.3673  0.2925  0.9372
14083TIP3    H263741   4.929   4.945   2.315 -0.9058  0.3419  0.9655
14084TIP3   OH263742   1.601   4.809  14.518  0.1559 -0.2376  0.2445
14084TIP3    H163743   1.680   4.813  14.571 -0.2517 -2.6425  1.2035
14084TIP3    H263744   1.604   4.722  14.477 -0.9551  0.4527 -1.4188
14085TIP3   OH263745   3.294   3.371   1.922  0.3298  0.3383  0.0239
14085TIP3    H163746   3.365   3.426   1.889  1.1913  0.9607  2.6803
14085TIP3    H263747   3.218   3.395   1.869  1.3790  1.8631 -0.8661
14086TIP3   OH263748   2.150   3.877   2.316  0.0930  0.6901 -0.5036
14086TIP3    H163749   2.146   3.959   2.266 -0.1127  0.1786 -1.3328
14086TIP3    H263750   2.075   3.826   2.285  0.5889 -0.0762 -0.4580
14087TIP3   OH263751   3.778   3.331   0.086 -0.5658  0.0853 -0.1970
14087TIP3    H163752   3.768   3.273   0.162 -1.7837 -3.0295 -2.5102
14087TIP3    H263753   3.857   3.381   0.104  1.0080 -2.8028  1.7541
14088TIP3   OH263754   6.253   2.428   1.483  0.2702  0.2974  0.0694
14088TIP3    H163755   6.264   2.488   1.409  1.3216  0.6986  0.5244
14088TIP3    H263756   6.161   2.404   1.481  0.4229 -0.3458 -1.8630
14089TIP3   OH263757   3.577   3.927  13.546  0.2747 -0.1445 -0.0023
14089TIP3    H163758   3.669   3.901  13.543 -0.4416 -3.2333  1.0643
14089TIP3    H263759   3.564   3.958  13.636  0.3461  0.7193 -0.2814
14090TIP3   OH263760   1.512   1.719  15.094  0.5596 -0.2417 -0.1567
14090TIP3    H163761   1.551   1.697  15.010  1.7683  0.4008  0.2143
14090TIP3    H263762   1.574   1.780  15.135 -0.3248 -0.0102  0.9124
14091TIP3   OH263763   3.952   5.853  13.147  0.1176 -0.3614 -0.4032
14091TIP3    H163764   3.985   5.915  13.082 -0.6300  0.5304  0.0359
14091TIP3    H263765   4.030   5.816  13.188  0.5824  0.5167 -0.4737
14092TIP3   OH263766   2.010   5.201   3.428 -0.1984 -0.2766  0.6326
14092TIP3    H163767   1.946   5.184   3.359  0.0829  1.2182 -0.0208
14092TIP3    H263768   2.090   5.159   3.398 -0.2970 -0.3478  0.4689
14093TIP3   OH263769   6.518   0.577   2.051  0.2686  0.1735 -0.3596
14093TIP3    H163770   6.603   0.615   2.074  0.3396  1.0088 -1.8765
14093TIP3    H263771   6.483   0.636   1.984 -1.0410 -0.7357 -0.5071
14094TIP3   OH263772   5.127   0.688   2.172 -0.4109 -0.0943 -0.3602
14094TIP3    H163773   5.172   0.758   2.126 -1.2876  0.5597 -0.2542
14094TIP3    H263774   5.196   0.632   2.205  0.3001  0.7003 -0.4790
14095TIP3   OH263775   6.767   5.441  11.133  0.2778  0.6688  0.3376
14095TIP3    H163776   6.717   5.479  11.061  0.0141  0.0408  0.1797
14095TIP3    H263777   6.857   5.439  11.101 -0.1317 -1.6571 -0.9063
14096TIP3   OH263778   3.453   1.039  12.238  0.3022 -0.2313 -0.0222
14096TIP3    H163779   3.538   1.079  12.221 -1.1482  3.0484 -0.2528
14096TIP3    H263780   3.441   1.047  12.332  1.0691 -2.6665  0.3426
14097TIP3   OH263781   2.525   0.991   0.655 -0.5067 -0.2540  0.1575
14097TIP3    H163782   2.513   1.083   0.630  0.9991  0.0690  0.5126
14097TIP3    H263783   2.581   0.955   0.586  0.4073 -0.4106  0.9661
14098TIP3   OH263784   3.294   0.671  13.977 -0.1174 -0.0576  0.1327
14098TIP3    H163785   3.220   0.726  14.001 -0.5619 -0.5879  0.0087
14098TIP3    H263786   3.342   0.722  13.912 -0.1497  0.4558  0.5072
14099TIP3   OH263787   1.297   3.454   2.019  0.4803  0.5142 -0.4773
14099TIP3    H163788   1.300   3.412   1.933  0.8282  1.0569 -0.7315
14099TIP3    H263789   1.235   3.527   2.008  0.3615  0.4551 -0.2069
14100TIP3   OH263790   5.193   5.571   5.339 -0.1806 -0.1121 -0.0308
14100TIP3    H163791   5.184   5.482   5.304 -2.6593  0.0849 -0.0564
14100TIP3    H263792   5.202   5.626   5.261 -1.9349 -0.0541 -0.2315
14101TIP3   OH263793   5.701   2.724   1.199  0.3724  0.0957 -0.1618
14101TIP3    H163794   5.669   2.638   1.170 -0.2309  0.9044 -1.9900
14101TIP3    H263795   5.624   2.767   1.235  0.8023 -0.3216  1.3295
14102TIP3   OH263796   1.323   1.285  14.905  0.0290  0.7269 -0.1191
14102TIP3    H163797   1.354   1.307  14.993 -2.3967 -0.4397  1.0944
14102TIP3    H263798   1.237   1.327  14.898  0.3340  1.1353 -2.1274
14103TIP3   OH263799   3.973   3.892  12.666  0.1423  0.2785  0.3909
14103TIP3    H163800   3.903   3.937  12.714  0.1174  2.1392 -1.2464
14103TIP3    H263801   3.932   3.864  12.584  0.5677 -1.4447  0.7335
14104TIP3   OH263802   5.350   1.906  13.747  0.3412 -0.3443 -0.3506
14104TIP3    H163803   5.439   1.935  13.768  0.1020 -1.3562  2.4397
14104TIP3    H263804   5.358   1.812  13.736 -0.3267 -0.3869 -0.4789
14105TIP3   OH263805   0.860   4.189   1.070  0.1439 -0.5951 -0.0818
14105TIP3    H163806   0.797   4.150   1.010 -2.7320  0.3461  2.0760
14105TIP3    H263807   0.862   4.128   1.144 -0.1166  0.5733  0.9151
14106TIP3   OH263808   2.182   6.306  12.943 -0.0589  0.0762  0.1460
14106TIP3    H163809   2.230   6.238  12.990  1.4072 -0.0827 -1.4801
14106TIP3    H263810   2.093   6.270  12.934  0.6346 -1.5899 -0.5466
14107TIP3   OH263811   4.543   6.166   3.462  0.4329 -0.0065  0.0410
14107TIP3    H163812   4.549   6.099   3.394  0.4148  0.3126 -0.2800
14107TIP3    H263813   4.455   6.203   3.451 -0.7786 -1.9701  2.1739
14108TIP3   OH263814   5.105   5.918   6.059  0.0852  0.3123 -0.0709
14108TIP3    H163815   5.167   5.850   6.087 -0.2917  0.1859  0.4758
14108TIP3    H263816   5.080   5.893   5.971 -0.6554 -0.7166  0.4110
14109TIP3   OH263817   4.323   6.496  11.502  0.2071 -0.4922 -0.5239
14109TIP3    H163818   4.229   6.514  11.494  0.5639  2.3929  0.5544
14109TIP3    H263819   4.342   6.509  11.595  1.7666 -0.5726 -0.8069
14110TIP3   OH263820   3.361   1.868   0.389 -0.0436  0.0123  0.1851
14110TIP3    H163821   3.386   1.823   0.470  0.2785 -0.5548 -0.2251
14110TIP3    H263822   3.265   1.867   0.390 -0.0416 -0.0905  0.5051
14111TIP3   OH263823   1.284   2.749   3.126 -0.1294 -0.1322 -0.7525
14111TIP3    H163824   1.206   2.696   3.107  0.9208 -1.6943 -0.8503
14111TIP3    H263825   1.266   2.833   3.085 -1.9541 -0.3069 -0.3854
14112TIP3   OH263826   1.425   4.339   1.350  0.0942 -0.4704  0.1081
14112TIP3    H163827   1.349   4.388   1.381 -0.4408 -1.4399  0.3614
14112TIP3    H263828   1.409   4.327   1.256  0.3425  0.0138 -0.0052
14113TIP3   OH263829   2.477   5.895  13.079  0.3306 -0.6762 -0.0414
14113TIP3    H163830   2.468   5.803  13.051 -2.2838 -1.4240  2.7015
14113TIP3    H263831   2.547   5.893  13.144 -0.6730 -1.0599  1.0547
14114TIP3   OH263832   2.919   2.791   3.850  0.8643 -0.1884  0.0566
14114TIP3    H163833   2.906   2.872   3.799 -1.2442 -0.3991  0.1683
14114TIP3    H263834   2.963   2.820   3.930 -0.9768  1.0989  0.6659
14115TIP3   OH263835   1.277   5.003   3.498  0.0005  0.2750 -0.0028
14115TIP3    H163836   1.348   4.998   3.562 -0.2276  0.9042  0.3158
14115TIP3    H263837   1.233   4.918   3.504  0.4151  0.0715  0.1657
14116TIP3   OH263838   5.061   6.416  11.530 -0.5790 -0.3959 -0.1463
14116TIP3    H163839   5.086   6.456  11.614  0.5926  2.1853 -1.6073
14116TIP3    H263840   4.966   6.428  11.526 -0.6020 -0.2130  0.6311
14117TIP3   OH263841   2.214   3.644  11.673  0.0538 -0.1039 -0.1408
14117TIP3    H163842   2.213   3.682  11.760 -0.5416 -0.3685 -0.0302
14117TIP3    H263843   2.127   3.660  11.638  0.2303 -0.1612 -0.6200
14118TIP3   OH263844   3.486   2.864  15.156 -0.8769  0.1118  0.2066
14118TIP3    H163845   3.535   2.930  15.106 -1.3093  0.9622  0.8700
14118TIP3    H263846   3.398   2.867  15.119 -0.8154 -0.3370  0.0198
14119TIP3   OH263847   6.232   4.808  15.424  0.1277 -0.2344 -0.0388
14119TIP3    H163848   6.192   4.722  15.411 -1.9708  0.7748 -0.6243
14119TIP3    H263849   6.289   4.820  15.348 -1.0490 -0.3351 -0.9602
14120TIP3   OH263850   0.125   5.791   3.882  0.2828  0.5547  0.3319
14120TIP3    H163851   0.112   5.720   3.819 -0.8080  0.7481  0.3091
14120TIP3    H263852   0.149   5.747   3.964  0.3652  0.2065  0.1201
14121TIP3   OH263853   4.612   5.332   4.982 -0.5682 -0.1431 -0.0208
14121TIP3    H163854   4.690   5.284   4.955 -1.5952 -1.5654 -0.6115
14121TIP3    H263855   4.645   5.411   5.024  1.1663  0.5384 -2.4734
14122TIP3   OH263856   5.755   5.107  14.120 -0.5634  0.8998 -0.4275
14122TIP3    H163857   5.835   5.118  14.069  0.3731 -2.7348  0.0259
14122TIP3    H263858   5.685   5.097  14.055  0.4479 -2.5658 -1.1606
14123TIP3   OH263859   5.152   0.153   5.141  0.6575 -0.3264 -0.0428
14123TIP3    H163860   5.246   0.141   5.154  0.9484  1.3793 -0.4067
14123TIP3    H263861   5.125   0.076   5.091  1.9136 -0.7036 -0.1643
14124TIP3   OH263862   1.754   5.411  12.165  0.5346 -0.5263 -0.0910
14124TIP3    H163863   1.719   5.403  12.254 -1.5645  2.1999 -0.5551
14124TIP3    H263864   1.849   5.419  12.177  0.6764 -3.2617  1.5925
14125TIP3   OH263865   5.755   5.817  11.321 -0.3800  0.4465  0.4242
14125TIP3    H163866   5.738   5.811  11.227 -2.1685  0.9848  0.6707
14125TIP3    H263867   5.818   5.890  11.329 -0.7031  0.8198 -0.3096
14126TIP3   OH263868   5.741   2.982  14.328 -0.6144  0.3303 -0.0301
14126TIP3    H163869   5.749   2.957  14.236 -0.3219 -1.1234  0.3537
14126TIP3    H263870   5.673   3.050  14.329 -1.0949 -0.1011 -1.2379
14127TIP3   OH263871   5.623   2.878   1.864 -0.6836  0.0030 -0.3039
14127TIP3    H163872   5.532   2.906   1.876 -2.2592 -3.9480 -1.4090
14127TIP3    H263873   5.645   2.906   1.775 -2.0891 -1.7590 -1.2686
14128TIP3   OH263874   0.357   4.993   0.405 -0.3702  0.6488  0.0741
14128TIP3    H163875   0.365   4.988   0.501  0.7711  1.4402  0.0367
14128TIP3    H263876   0.269   5.026   0.390 -0.6103  0.3789  0.8546
14129TIP3   OH263877   0.379   5.433  16.555  0.0648  0.1802  0.1220
14129TIP3    H163878   0.472   5.453  16.565 -0.0404  0.5437  0.3841
14129TIP3    H263879   0.368   5.349  16.600 -0.0320  0.8877  1.5051
14130TIP3   OH263880   3.559   2.981  15.553 -0.3480 -0.0639 -0.0280
14130TIP3    H163881   3.550   3.070  15.518  1.5332  0.1194 -0.1688
14130TIP3    H263882   3.568   2.993  15.647 -1.1574 -0.2062  0.0726
14131TIP3   OH263883   4.625   2.007  13.284  0.1031 -0.1991  0.0380
14131TIP3    H163884   4.707   2.011  13.235  0.1760 -1.4696  0.0197
14131TIP3    H263885   4.625   2.086  13.337  0.4203  0.7892 -1.3823
14132TIP3   OH263886   2.049   1.789   5.785  0.2729  0.1454  0.2231
14132TIP3    H163887   2.086   1.843   5.855 -0.2378 -0.2148  0.7765
14132TIP3    H263888   1.974   1.839   5.754  0.0909 -0.0126  0.4040
14133TIP3   OH263889   4.121   3.967   2.487 -0.0710 -0.1333 -0.2850
14133TIP3    H163890   4.131   3.901   2.556 -1.4855 -0.3493 -0.2474
14133TIP3    H263891   4.184   3.941   2.420  0.3682 -0.7089  0.3344
14134TIP3   OH263892   1.556   5.154  14.208  0.2795  0.1589  0.5235
14134TIP3    H163893   1.561   5.135  14.114 -1.0338  0.6617  0.3287
14134TIP3    H263894   1.619   5.225  14.221  0.4216  0.1368  0.0174
14135TIP3   OH263895   6.536   1.334  16.768 -0.4055 -0.7813 -0.3624
14135TIP3    H163896   6.472   1.265  16.783  0.4058 -1.6905 -1.0000
14135TIP3    H263897   6.590   1.335  16.847 -1.5034  0.3622  0.4186
14136TIP3   OH263898   3.647   2.051  12.343  0.4850  0.5652 -0.1864
14136TIP3    H163899   3.726   2.019  12.387 -0.9425  0.1867  2.2924
14136TIP3    H263900   3.595   2.090  12.413 -2.0939 -0.3187 -1.4961
14137TIP3   OH263901   2.363   5.147  16.791 -0.1786 -0.4829  0.6886
14137TIP3    H163902   2.325   5.133  16.704  0.0198  1.3375  0.2727
14137TIP3    H263903   2.453   5.117  16.784  0.2476  0.9086 -0.1738
14138TIP3   OH263904   2.481   2.646   0.404 -0.6246 -0.2258 -0.0843
14138TIP3    H163905   2.440   2.612   0.324  0.2783  1.4176 -1.3361
14138TIP3    H263906   2.575   2.632   0.390 -0.2466  2.2355 -0.4906
14139TIP3   OH263907   5.930   5.322   5.873 -0.0279 -0.1465 -0.3797
14139TIP3    H163908   5.903   5.352   5.786 -0.2310  1.2653  0.1367
14139TIP3    H263909   5.860   5.352   5.931  1.5450  1.6812  0.6851
14140TIP3   OH263910   4.234   5.990  13.465 -0.6298 -0.6065 -0.7129
14140TIP3    H163911   4.263   5.920  13.524 -1.6553 -0.4393  0.0203
14140TIP3    H263912   4.279   6.069  13.497 -0.1668 -0.7499 -0.9892
14141TIP3   OH263913   5.973   3.953   4.793 -0.4246 -0.6221  0.3478
14141TIP3    H163914   5.898   3.899   4.817 -0.2747  0.0437  2.5408
14141TIP3    H263915   5.935   4.029   4.748 -0.9534 -0.8616  0.3873
14142TIP3   OH263916   3.733   6.105  17.104 -0.6524  0.4412  0.5530
14142TIP3    H163917   3.761   6.102  17.195 -1.5213  2.0542  0.9280
14142TIP3    H263918   3.646   6.146  17.107  0.0146  2.1318 -1.1146
14143TIP3   OH263919   4.776   1.896  12.945  1.0910  0.0331 -0.7515
14143TIP3    H163920   4.784   1.966  13.010 -2.6341 -0.6186  0.6362
14143TIP3    H263921   4.757   1.941  12.863 -0.4531  0.7372 -0.0418
14144TIP3   OH263922   5.607   6.138  11.804 -0.1263 -0.2489 -0.2673
14144TIP3    H163923   5.544   6.199  11.767 -0.4255 -0.2228  0.2745
14144TIP3    H263924   5.562   6.053  11.805 -1.9658  0.4956  4.2351
14145TIP3   OH263925   1.850   4.909  16.639  0.0340  0.6249  0.0049
14145TIP3    H163926   1.893   4.925  16.724 -2.2331  1.1541  1.1212
14145TIP3    H263927   1.889   4.827  16.609  0.8369  0.3625  1.6123
14146TIP3   OH263928   1.520   1.970  16.944 -0.0736 -0.3284 -0.3619
14146TIP3    H163929   1.481   1.912  17.010 -2.2929 -1.3400 -2.3965
14146TIP3    H263930   1.535   2.052  16.991 -1.1701 -1.1189  1.5148
14147TIP3   OH263931   0.166   2.195  17.059 -0.5408  0.0152 -0.2787
14147TIP3    H163932   0.209   2.114  17.088 -2.1684 -1.1064 -0.8104
14147TIP3    H263933   0.197   2.262  17.119  0.1707 -1.1905  0.7551
14148TIP3   OH263934   0.381   2.716  10.609  0.0727 -0.2680 -0.2075
14148TIP3    H163935   0.429   2.660  10.671 -0.7496 -0.6604  0.0959
14148TIP3    H263936   0.439   2.790  10.594  0.2292 -0.0873  1.1556
14149TIP3   OH263937   6.472   5.825  16.932 -0.4094 -0.4073  0.2923
14149TIP3    H163938   6.434   5.746  16.971  0.0668 -0.8653 -0.1572
14149TIP3    H263939   6.502   5.797  16.846 -3.7424  1.1857 -1.5403
14150TIP3   OH263940   1.962   1.692   3.837 -1.0278  0.2397 -0.3732
14150TIP3    H163941   1.933   1.635   3.765 -0.2490 -0.8354  0.1328
14150TIP3    H263942   2.018   1.636   3.890 -0.7988  1.3051  0.5376
14151TIP3   OH263943   6.817   4.221   5.539  0.4423  0.4208 -0.1102
14151TIP3    H163944   6.792   4.287   5.474 -0.5827  1.6964  1.4831
14151TIP3    H263945   6.753   4.232   5.609  0.1265 -2.4370  0.1542
14152TIP3   OH263946   2.960   0.842  11.265  0.2518 -0.2502 -0.0997
14152TIP3    H163947   3.026   0.776  11.288 -0.1709  0.1014  2.4302
14152TIP3    H263948   3.011   0.917  11.234  1.0260 -0.1908  1.2546
14153TIP3   OH263949   4.201   3.913  16.055  0.0678 -0.3017  0.0067
14153TIP3    H163950   4.223   3.822  16.038 -2.7856 -0.7203 -2.3931
14153TIP3    H263951   4.135   3.910  16.124  0.7798  0.0868  0.7214
14154TIP3   OH263952   3.859   0.032  13.488 -0.2366  0.0919 -0.4888
14154TIP3    H163953   3.798   0.094  13.529 -0.1850 -0.8127  0.9906
14154TIP3    H263954   3.941   0.045  13.534 -0.2399 -1.1132 -0.1341
14155TIP3   OH263955   1.259   5.269   6.111 -0.7089  0.5167 -0.0411
14155TIP3    H163956   1.317   5.335   6.073 -1.3813  0.4583 -1.1974
14155TIP3    H263957   1.230   5.308   6.194 -0.3817  1.2790 -0.2772
14156TIP3   OH263958   5.984   0.587   1.705 -0.3614  0.7670 -0.0639
14156TIP3    H163959   6.021   0.599   1.617  1.9542  0.7240  0.8442
14156TIP3    H263960   6.042   0.524   1.747 -1.5646  0.6243  1.4582
14157TIP3   OH263961   0.248   2.421   3.484  0.3194  0.0360  0.1430
14157TIP3    H163962   0.158   2.388   3.481  0.7427 -1.1837  0.1546
14157TIP3    H263963   0.241   2.508   3.521 -1.1610  1.0310 -2.2404
14158TIP3   OH263964   6.760   4.986  16.692  0.1497 -0.2702  0.0013
14158TIP3    H163965   6.823   5.018  16.627 -1.1301  0.0558 -1.1196
14158TIP3    H263966   6.763   5.052  16.762 -0.1134  0.6025 -0.7905
14159TIP3   OH263967   3.153   0.674   1.934 -0.1373 -0.4294 -0.1335
14159TIP3    H163968   3.227   0.617   1.958 -0.9583 -0.4893  2.5873
14159TIP3    H263969   3.136   0.725   2.013 -1.8839  0.8681 -1.2882
14160TIP3   OH263970   1.129   3.215  11.901  0.4289  0.0940 -0.0602
14160TIP3    H163971   1.213   3.184  11.868  0.6079 -1.6466  1.8797
14160TIP3    H263972   1.138   3.310  11.904  2.4572 -0.0730  0.4281
14161TIP3   OH263973   6.287   3.296   5.997  0.1346  0.5395 -0.2316
14161TIP3    H163974   6.288   3.362   6.066 -1.7696  0.1782  0.2004
14161TIP3    H263975   6.197   3.297   5.964  0.5377 -0.5691 -1.4724
14162TIP3   OH263976   3.194   4.534   0.041 -0.0679  0.1121 -0.5872
14162TIP3    H163977   3.119   4.487   0.005  0.1518  0.1905 -1.1470
14162TIP3    H263978   3.239   4.569  -0.035 -0.4583  1.5917 -0.1677
14163TIP3   OH263979   2.584   5.628   4.140 -0.0770  0.3077 -0.6272
14163TIP3    H163980   2.607   5.561   4.204 -0.3146  1.3750  0.6339
14163TIP3    H263981   2.504   5.597   4.099  0.4171 -0.6881 -0.8726
14164TIP3   OH263982   3.661   4.173   2.202  0.3926 -0.1883  0.5158
14164TIP3    H163983   3.756   4.170   2.189  0.6340 -1.8631  2.2250
14164TIP3    H263984   3.640   4.266   2.209  1.5438  0.3332 -1.9780
14165TIP3   OH263985   1.837   2.364   1.050  0.2823 -0.2306  0.2519
14165TIP3    H163986   1.751   2.369   1.009 -1.0757 -1.9331  2.6281
14165TIP3    H263987   1.880   2.291   1.007 -0.3473 -0.7663  0.5213
14166TIP3   OH263988   6.439   1.184   0.258 -0.2135 -0.0868  0.1194
14166TIP3    H163989   6.440   1.255   0.323  0.0688  0.1062 -0.0958
14166TIP3    H263990   6.462   1.227   0.176  0.7927 -0.5725  0.1391
14167TIP3   OH263991   4.795   0.111   3.656 -0.7281  0.4174  0.3344
14167TIP3    H163992   4.780   0.203   3.634 -0.1726  0.3862 -0.2096
14167TIP3    H263993   4.881   0.110   3.699 -0.0460 -0.0253 -0.9818
14168TIP3   OH263994   2.031   0.538  15.417  0.6622  0.4273  0.4514
14168TIP3    H163995   1.937   0.532  15.436  0.6169 -0.6879 -0.0582
14168TIP3    H263996   2.064   0.450  15.431  1.9420  1.1087  2.0570
14169TIP3   OH263997   5.207   5.466  16.216 -0.0265 -0.0557  0.2880
14169TIP3    H163998   5.184   5.479  16.124 -0.2646  0.2387  0.3888
14169TIP3    H263999   5.194   5.372  16.231 -0.3677 -0.0375  0.1237
14170TIP3   OH264000   1.601   3.221   3.018 -0.8585  0.0163  0.0272
14170TIP3    H164001   1.649   3.142   2.992  0.6060  1.1101 -0.7188
14170TIP3    H264002   1.665   3.273   3.067 -1.5042  1.1476 -0.2935
14171TIP3   OH264003   0.047   6.588  11.492 -0.0984  0.0798 -0.1952
14171TIP3    H164004   0.131   6.547  11.509 -0.3974 -1.1171 -1.4545
14171TIP3    H264005  -0.017   6.526  11.526 -0.5015  0.9627  0.7162
14172TIP3   OH264006   5.789   5.428   1.818 -0.1824  0.1765  0.3487
14172TIP3    H164007   5.806   5.411   1.725  0.3531  1.6705  0.1483
14172TIP3    H264008   5.741   5.510   1.819  1.6841  1.3117  1.4850
14173TIP3   OH264009   0.196   0.424   1.542  0.6325  0.0373  0.4256
14173TIP3    H164010   0.205   0.402   1.635  2.6397 -2.7298 -0.2619
14173TIP3    H264011   0.117   0.379   1.514  0.9169 -0.5102  0.4867
14174TIP3   OH264012   6.593   3.248   4.937 -0.2644 -0.1681  0.5174
14174TIP3    H164013   6.681   3.269   4.904 -0.7295  2.2360  0.5737
14174TIP3    H264014   6.573   3.163   4.900  2.3579 -1.1210  1.0840
14175TIP3   OH264015   5.281   5.168  14.724 -0.0565  0.1287  0.1374
14175TIP3    H164016   5.307   5.198  14.637 -0.8860  0.8890  0.1294
14175TIP3    H264017   5.319   5.232  14.784  0.2443 -0.2129  0.3167
14176TIP3   OH264018   5.111   3.016  15.471 -0.5895  0.8521  0.3907
14176TIP3    H164019   5.153   3.095  15.504 -1.2869  1.5809 -0.4302
14176TIP3    H264020   5.164   2.944  15.507  0.0313  1.6788  1.1681
14177TIP3   OH264021   6.393   0.945  14.896 -0.0849  0.4882 -0.5431
14177TIP3    H164022   6.474   0.988  14.922  1.4002 -1.0085 -2.4636
14177TIP3    H264023   6.336   1.017  14.868  0.8199  1.5063  0.1277
14178TIP3   OH264024   2.667   1.956  16.209 -0.5006 -0.2124 -0.4193
14178TIP3    H164025   2.734   1.896  16.243 -1.5616 -1.6114 -0.6786
14178TIP3    H264026   2.715   2.015  16.150  0.8466  0.2771  1.1119
14179TIP3   OH264027   1.988   1.002   0.401 -0.8082  0.3371 -0.3024
14179TIP3    H164028   1.908   0.986   0.351 -0.3330 -0.7594 -0.7488
14179TIP3    H264029   1.970   0.963   0.487  0.4015 -3.1167 -1.4320
14180TIP3   OH264030   5.768   1.082  11.968 -0.5531 -0.7883 -0.0227
14180TIP3    H164031   5.720   1.068  12.049  0.8458  0.3258  1.0573
14180TIP3    H264032   5.768   1.177  11.956  0.1620 -0.8647 -0.7301
14181TIP3   OH264033   1.149   0.672   2.010  0.3687  0.1594  0.4956
14181TIP3    H164034   1.201   0.719   1.945  0.8486 -2.8820 -1.5680
14181TIP3    H264035   1.058   0.691   1.986  0.5449  0.5273  0.0978
14182TIP3   OH264036   4.397   5.819   4.784  0.2813 -0.4889  0.2685
14182TIP3    H164037   4.482   5.859   4.762  0.0244  0.2822  0.6538
14182TIP3    H264038   4.333   5.888   4.767 -0.1512 -0.6520  1.1673
14183TIP3   OH264039   4.573   5.817   2.513 -0.2004 -0.1607  0.0038
14183TIP3    H164040   4.542   5.748   2.454  0.5945 -0.5929  0.0717
14183TIP3    H264041   4.586   5.893   2.455 -0.2946 -0.3135 -0.2215
14184TIP3   OH264042   5.320   4.140   3.731  0.3405 -0.0995 -0.4532
14184TIP3    H164043   5.294   4.228   3.759 -1.7182 -1.1258  1.0433
14184TIP3    H264044   5.384   4.112   3.797 -0.5931 -0.5076  0.2990
14185TIP3   OH264045   4.095   6.538   2.680 -0.0134 -0.4466  0.0248
14185TIP3    H164046   4.018   6.485   2.663 -0.3579  0.1927 -0.4610
14185TIP3    H264047   4.169   6.478   2.671 -0.4424 -1.0464  0.4145
14186TIP3   OH264048   3.790   3.432   2.042 -0.9647 -0.3859 -0.1926
14186TIP3    H164049   3.768   3.382   2.121  1.1127  1.7263  1.8762
14186TIP3    H264050   3.842   3.505   2.074 -0.3887  0.8180 -3.5366
14187TIP3   OH264051   4.365   1.411   2.373 -0.0136 -0.3288  0.2744
14187TIP3    H164052   4.448   1.458   2.368  0.9656 -2.1016 -0.7982
14187TIP3    H264053   4.336   1.403   2.283 -1.3299  0.1689  0.6260
14188TIP3   OH264054   6.768   6.725  16.011 -0.2544 -0.0380  0.0522
14188TIP3    H164055   6.852   6.680  16.020  0.8563  1.6415 -1.2313
14188TIP3    H264056   6.702   6.658  16.027  1.3202 -1.6018  0.2158
14189TIP3   OH264057   0.858   1.766   2.358  0.5738  0.3376  0.1407
14189TIP3    H164058   0.950   1.778   2.381  0.5934  0.9806 -0.2557
14189TIP3    H264059   0.816   1.738   2.440  0.6649  2.4529  0.9717
14190TIP3   OH264060   5.814   3.934   1.907  0.2292  0.2702 -0.3775
14190TIP3    H164061   5.874   3.860   1.901  0.0271  0.0506  0.2373
14190TIP3    H264062   5.851   4.000   1.849  1.7271  0.5778  0.8713
14191TIP3   OH264063   5.379   2.199  11.973  0.0434  0.3895  0.1626
14191TIP3    H164064   5.391   2.112  11.935 -0.5915  0.0187  0.7934
14191TIP3    H264065   5.304   2.190  12.031 -0.1003  1.3929  0.1509
14192TIP3   OH264066   3.129   4.229  16.577 -0.2683  0.0352 -0.3180
14192TIP3    H164067   3.116   4.192  16.490 -0.9440  2.2177 -1.2258
14192TIP3    H264068   3.200   4.292  16.567  1.9608 -1.9881  1.5310
14193TIP3   OH264069   1.330   6.342  16.911  0.2695  0.2543  0.0159
14193TIP3    H164070   1.363   6.267  16.961 -0.5384 -1.2402 -1.5913
14193TIP3    H264071   1.259   6.378  16.965 -1.8878 -2.4952 -0.7726
14194TIP3   OH264072   6.806   1.503  10.798  0.1431  0.5671 -0.1168
14194TIP3    H164073   6.863   1.470  10.867 -0.1327  0.5141  0.0886
14194TIP3    H264074   6.772   1.425  10.756  1.1508  0.5901 -1.0280
14195TIP3   OH264075   1.665   1.462   4.599 -0.1927  0.3325 -0.4226
14195TIP3    H164076   1.686   1.553   4.621 -0.5213 -0.1740  2.4180
14195TIP3    H264077   1.750   1.422   4.580 -0.1318  1.3935 -2.6876
14196TIP3   OH264078   6.598   1.677  15.142 -0.2999  0.7386  0.0293
14196TIP3    H164079   6.578   1.765  15.172  0.3111  1.2317 -0.9452
14196TIP3    H264080   6.672   1.649  15.197  0.8220  1.6399 -0.9529
14197TIP3   OH264081   3.282   2.110   4.852  0.0915 -0.8388  0.1664
14197TIP3    H164082   3.342   2.040   4.825  0.2720  0.1691 -2.2769
14197TIP3    H264083   3.338   2.188   4.857 -0.3970 -0.5455  1.3532
14198TIP3   OH264084   6.700   4.377   1.398  0.5294  0.8318  0.0902
14198TIP3    H164085   6.754   4.298   1.399 -1.9898 -1.0241 -0.0521
14198TIP3    H264086   6.695   4.402   1.306 -0.1211  0.0233 -0.1099
14199TIP3   OH264087   5.242   5.034   2.091  0.0410 -0.1205 -0.2225
14199TIP3    H164088   5.256   4.983   2.011 -1.1540 -2.3654  0.9139
14199TIP3    H264089   5.290   4.987   2.159 -1.9780 -0.4378  1.0905
14200TIP3   OH264090   2.062   6.791  11.422 -0.1318  0.6152  0.2645
14200TIP3    H164091   2.052   6.766  11.513 -0.9554  0.9753  0.2812
14200TIP3    H264092   2.154   6.817  11.413  0.1086 -0.0430  0.8289
14201TIP3   OH264093   2.724   4.389  14.381  0.0974  0.4730 -0.0076
14201TIP3    H164094   2.682   4.417  14.299  0.0981  2.5028  0.6206
14201TIP3    H264095   2.784   4.461  14.401  0.4120 -0.2066  1.5479
14202TIP3   OH264096   4.455   0.992  16.063 -0.5605  0.1243  0.4634
14202TIP3    H164097   4.399   0.994  16.141 -0.0402  1.8794  0.8298
14202TIP3    H264098   4.394   0.995  15.989 -1.0077 -0.1659  0.8147
14203TIP3   OH264099   2.689   2.571   2.522  0.0380  0.4177  0.5319
14203TIP3    H164100   2.705   2.663   2.542 -0.7010  0.7020 -0.1491
14203TIP3    H264101   2.597   2.567   2.496  0.2924 -0.3555 -0.3030
14204TIP3   OH264102   1.004   0.153   1.366  0.5822  0.6339  0.5258
14204TIP3    H164103   0.966   0.205   1.296 -1.5552  0.9364  1.8302
14204TIP3    H264104   1.046   0.216   1.424  0.0839  0.6863  0.8424
14205TIP3   OH264105   2.432   0.067   4.142  0.1696 -0.2111 -0.3231
14205TIP3    H164106   2.452   0.034   4.054 -0.4054  1.2507 -1.0264
14205TIP3    H264107   2.517   0.081   4.182  0.4438 -2.0555 -0.1556
14206TIP3   OH264108   2.881   5.414   4.159 -0.1874  0.3836 -0.3014
14206TIP3    H164109   2.942   5.348   4.191 -1.6531 -0.7348  0.3259
14206TIP3    H264110   2.863   5.470   4.235  0.8970  1.4284 -0.7797
14207TIP3   OH264111   1.240   1.726  14.953  0.1594 -0.1719  0.2936
14207TIP3    H164112   1.194   1.810  14.953  1.7894  0.7781 -0.8840
14207TIP3    H264113   1.310   1.737  15.018  0.4530 -0.5639  0.0475
14208TIP3   OH264114   6.541   3.056   1.121  0.4261  0.1071 -0.1979
14208TIP3    H164115   6.544   3.100   1.206  1.8651 -0.1225 -0.0965
14208TIP3    H264116   6.600   2.981   1.131 -1.2149 -1.2953 -0.6746
14209TIP3   OH264117   0.872   4.179  11.818  0.3670  0.1250 -0.1519
14209TIP3    H164118   0.917   4.124  11.754  0.4485 -1.5115  1.2270
14209TIP3    H264119   0.779   4.167  11.800  0.4047  1.1173 -1.0881
14210TIP3   OH264120   2.033   4.584   1.088  0.2809 -0.5440 -0.5845
14210TIP3    H164121   2.011   4.506   1.138 -0.6614 -0.3740 -0.7217
14210TIP3    H264122   2.111   4.619   1.131 -1.2748  0.3635  1.6156
14211TIP3   OH264123   0.811   5.375   5.365  0.9815 -0.4319 -0.1954
14211TIP3    H164124   0.731   5.357   5.316  0.0553  1.6316  0.4518
14211TIP3    H264125   0.878   5.391   5.298  0.2303  0.3324 -0.7764
14212TIP3   OH264126   3.408   0.689   1.239  0.3322 -0.1128  0.7382
14212TIP3    H164127   3.358   0.709   1.318  1.2742 -1.0271  1.5931
14212TIP3    H264128   3.496   0.666   1.271  0.1108 -2.8255 -0.3203
14213TIP3   OH264129   2.715   6.151  12.799  0.2170 -0.2064 -0.4502
14213TIP3    H164130   2.741   6.091  12.868  1.1555 -0.8232 -1.3101
14213TIP3    H264131   2.637   6.196  12.833  0.8927 -0.2009  1.1403
14214TIP3   OH264132   3.592   4.992   1.585 -0.1230  0.2416  0.1453
14214TIP3    H164133   3.556   5.018   1.501  0.2739  1.5022  0.3382
14214TIP3    H264134   3.538   4.918   1.613  1.1664 -1.7387 -2.2396
14215TIP3   OH264135   4.161   6.200   6.342  0.4825  0.3726  0.1997
14215TIP3    H164136   4.158   6.105   6.355 -1.7637  0.5672  1.7709
14215TIP3    H264137   4.207   6.233   6.420  1.3146  0.6075 -0.3741
14216TIP3   OH264138   1.733   4.166   3.128 -0.3096 -0.1888 -0.5277
14216TIP3    H164139   1.753   4.184   3.220 -2.2945  0.2723 -0.1314
14216TIP3    H264140   1.646   4.125   3.130 -0.3488 -0.2602 -2.1916
14217TIP3   OH264141   5.675   1.025  12.710  0.7287 -0.1719  0.0385
14217TIP3    H164142   5.750   1.084  12.707  0.6049  0.0603 -3.5410
14217TIP3    H264143   5.668   0.991  12.620 -1.8198 -2.2808  0.9021
14218TIP3   OH264144   5.920   3.827   0.827 -0.0611 -0.6310 -0.1416
14218TIP3    H164145   5.967   3.745   0.840 -0.1411 -0.6421  0.0864
14218TIP3    H264146   5.872   3.841   0.909  1.0764  0.3846  0.3744
14219TIP3   OH264147   4.130   2.879   4.694  0.5268  0.4291  0.4005
14219TIP3    H164148   4.139   2.824   4.617  0.9877 -0.4905  1.0846
14219TIP3    H264149   4.059   2.940   4.673 -0.6376 -1.0298 -0.0396
14220TIP3   OH264150   5.296   3.754  13.799 -0.2209  0.1877 -0.0210
14220TIP3    H164151   5.336   3.778  13.882  0.1630 -0.7278  0.0754
14220TIP3    H264152   5.292   3.836  13.749  0.2912  0.5888  0.5831
14221TIP3   OH264153   0.498   2.973  11.898  0.4593  0.3126 -0.2303
14221TIP3    H164154   0.481   2.967  11.992  1.7089 -0.7220 -0.0421
14221TIP3    H264155   0.464   3.058  11.873 -0.4319  0.3568  1.0424
14222TIP3   OH264156   0.241   5.585   3.365  0.2063  0.2891 -1.0235
14222TIP3    H164157   0.244   5.493   3.338 -2.9310 -0.1659 -0.2136
14222TIP3    H264158   0.149   5.610   3.356  0.9125  3.2937 -0.9303
14223TIP3   OH264159   0.690   1.832   1.265 -0.8639  0.5848  0.4860
14223TIP3    H164160   0.751   1.882   1.210 -1.2632  1.0008  0.4069
14223TIP3    H264161   0.696   1.874   1.350 -0.0834 -0.1992  0.8296
14224TIP3   OH264162   4.924   6.574   2.440  0.3471 -0.3774 -0.1693
14224TIP3    H164163   4.948   6.521   2.517 -1.3670 -2.1762 -0.8072
14224TIP3    H264164   4.982   6.543   2.371  1.0677  0.4056  0.0618
14225TIP3   OH264165   3.727   1.382  12.535 -0.6277  0.0451  0.2005
14225TIP3    H164166   3.664   1.447  12.566  0.2921  0.8134  0.5100
14225TIP3    H264167   3.711   1.375  12.441 -0.9831  0.4447  0.2298
14226TIP3   OH264168   2.631   3.984   3.724  0.5875  0.0688  0.1017
14226TIP3    H164169   2.691   3.914   3.698 -0.2097 -0.2929 -0.8769
14226TIP3    H264170   2.622   3.975   3.819 -2.4019 -3.6865 -0.2718
14227TIP3   OH264171   2.839   1.430  11.030 -0.0974 -0.8634 -0.1100
14227TIP3    H164172   2.848   1.526  11.026 -0.8569 -0.7997 -0.6514
14227TIP3    H264173   2.926   1.397  11.007  0.5097 -0.3089  1.2770
14228TIP3   OH264174   6.303   4.919  17.250  0.4297 -0.0778 -0.3557
14228TIP3    H164175   6.354   4.838  17.252 -1.3766 -1.3109 -0.9335
14228TIP3    H264176   6.286   4.938  17.343 -0.0822 -1.0477 -0.2255
14229TIP3   OH264177   1.844   5.926   5.562  0.1553 -0.4173  0.2060
14229TIP3    H164178   1.872   5.974   5.484  0.4119  0.7092  0.9573
14229TIP3    H264179   1.801   5.993   5.617 -0.0962 -1.2004  0.9883
14230TIP3   OH264180   6.480   1.439  15.197 -0.2817  0.1874  0.1248
14230TIP3    H164181   6.416   1.450  15.267  0.8507  0.0421  1.2096
14230TIP3    H264182   6.513   1.527  15.180  1.8342 -0.1355  2.1286
14231TIP3   OH264183   1.740   4.989   2.687  0.2068  0.3804  0.6316
14231TIP3    H164184   1.683   5.055   2.647  0.2545  0.6975  1.0895
14231TIP3    H264185   1.738   4.915   2.625  0.7606  1.0930 -0.2713
14232TIP3   OH264186   4.439   6.129   2.702 -0.2519 -0.0395 -0.0443
14232TIP3    H164187   4.478   6.052   2.743  2.3943  0.4423 -1.4515
14232TIP3    H264188   4.408   6.098   2.617 -0.1500  0.2479 -0.1864
14233TIP3   OH264189   3.967   1.333   3.790 -0.1202  0.2277 -0.2830
14233TIP3    H164190   3.962   1.246   3.749 -2.6107  0.2804 -0.2223
14233TIP3    H264191   3.967   1.394   3.717 -0.4325  0.2178 -0.2929
14234TIP3   OH264192   1.158   6.613  11.768  0.0043  0.3311 -0.3707
14234TIP3    H164193   1.229   6.647  11.822 -0.0498  0.0737 -0.1368
14234TIP3    H264194   1.187   6.630  11.678  0.6107 -0.2592 -0.2963
14235TIP3   OH264195   1.632   5.189   6.300 -0.1595 -0.1085 -0.1517
14235TIP3    H164196   1.598   5.252   6.237 -2.4653 -2.3927 -1.3608
14235TIP3    H264197   1.573   5.197   6.375  0.3988  0.1063  0.2720
14236TIP3   OH264198   2.460   0.555  14.538 -0.3968  0.5645 -0.0028
14236TIP3    H164199   2.517   0.590  14.606  0.5763  0.4596 -0.7442
14236TIP3    H264200   2.442   0.630  14.480 -0.6675  0.4954 -0.0118
14237TIP3   OH264201   2.475   1.094  15.496  0.3970  0.3143 -0.2355
14237TIP3    H164202   2.429   1.110  15.579 -1.9187  0.9050 -1.5385
14237TIP3    H264203   2.506   1.004  15.504 -0.3275  0.1366  1.0467
14238TIP3   OH264204   5.680   4.794  13.938  0.7708  0.3702  0.0797
14238TIP3    H164205   5.774   4.808  13.927  0.8547 -0.7125 -0.7657
14238TIP3    H264206   5.673   4.701  13.959 -0.1845  0.1964 -0.9595
14239TIP3   OH264207   3.242   6.198  15.493  0.7550  0.0520 -0.3861
14239TIP3    H164208   3.203   6.208  15.580 -2.6033  1.1578 -1.8542
14239TIP3    H264209   3.246   6.287  15.458 -0.3851 -0.5962 -2.2775
14240TIP3   OH264210   3.381   1.155  10.812  0.0411 -0.2978  0.3979
14240TIP3    H164211   3.350   1.065  10.817 -0.2872 -0.2716 -0.7273
14240TIP3    H264212   3.412   1.164  10.721  0.3386  0.6325  0.5829
14241TIP3   OH264213   2.410   1.582  14.014 -0.4936  0.5637 -0.2322
14241TIP3    H164214   2.472   1.515  14.042 -0.2688  0.8751  0.0136
14241TIP3    H264215   2.361   1.540  13.943 -0.2198  0.2075 -0.2150
14242TIP3   OH264216   0.980   4.813   5.133 -0.0201 -0.7879 -0.1163
14242TIP3    H164217   0.956   4.835   5.043  1.5226 -3.6600 -1.3360
14242TIP3    H264218   0.898   4.820   5.182 -0.5900  2.4784 -1.2802
14243TIP3   OH264219   5.825   3.904   1.090  0.0151 -0.4582  0.1127
14243TIP3    H164220   5.866   3.988   1.073  1.4239 -1.1256  0.1111
14243TIP3    H264221   5.800   3.908   1.183 -1.0640  0.4040 -0.1899
14244TIP3   OH264222   5.807   1.641  14.818 -0.3166  0.3156  0.0947
14244TIP3    H164223   5.864   1.637  14.741 -0.2157  2.6690 -0.0188
14244TIP3    H264224   5.865   1.623  14.892  0.3174  1.2860 -0.1397
14245TIP3   OH264225   1.322   2.077  11.027  0.3987  0.1255  0.0121
14245TIP3    H164226   1.277   2.042  10.950  1.2554 -0.5515 -0.1993
14245TIP3    H264227   1.413   2.087  10.999  0.4694  1.1255  0.5426
14246TIP3   OH264228   5.009   1.839  12.617  0.4829 -0.4571  0.6376
14246TIP3    H164229   5.071   1.766  12.617 -0.1201 -0.9772  1.5635
14246TIP3    H264230   5.014   1.875  12.705  0.2179  0.1558  0.4087
14247TIP3   OH264231   4.500   5.081  13.768 -0.6346  0.4079  0.6155
14247TIP3    H164232   4.570   5.085  13.834 -0.5573  0.2881  0.5419
14247TIP3    H264233   4.474   4.989  13.767  0.6617  0.0059 -0.8511
14248TIP3   OH264234   1.207   2.799  12.196 -0.3126 -0.5932  0.1095
14248TIP3    H164235   1.122   2.841  12.183 -0.3507 -0.3873  0.9459
14248TIP3    H264236   1.195   2.744  12.274  0.0295 -1.3620 -0.3714
14249TIP3   OH264237   0.127   0.419  14.371 -0.4017 -0.3578  0.0453
14249TIP3    H164238   0.195   0.416  14.304 -0.3059  2.0113 -0.0372
14249TIP3    H264239   0.053   0.372  14.332  0.2940 -0.6878 -0.9239
14250TIP3   OH264240   5.511   3.270   2.710  0.0876 -0.5207  0.3401
14250TIP3    H164241   5.544   3.290   2.622 -1.8704  1.8630  0.0401
14250TIP3    H264242   5.578   3.305   2.769 -0.8319  2.5277 -0.2570
14251TIP3   OH264243   1.674   4.662   4.461 -0.4025  0.8016 -0.0337
14251TIP3    H164244   1.756   4.636   4.417  0.1652 -0.2650  1.5611
14251TIP3    H264245   1.694   4.748   4.498  0.7077 -0.2512  1.9615
14252TIP3   OH264246   5.387   0.195  14.445  0.1830  0.3392 -0.0539
14252TIP3    H164247   5.327   0.168  14.514 -0.6762 -0.8576 -1.2149
14252TIP3    H264248   5.473   0.198  14.487  0.3168 -3.7482  0.4146
14253TIP3   OH264249   3.123   2.340   0.532  0.8525 -0.3314 -0.2045
14253TIP3    H164250   3.112   2.435   0.531  1.7143 -0.2318 -0.6081
14253TIP3    H264251   3.195   2.325   0.592 -1.7421 -1.0415  3.0064
14254TIP3   OH264252   1.808   5.186   3.233 -0.1607 -0.0045 -0.3523
14254TIP3    H164253   1.721   5.149   3.213 -1.3178  2.6074 -0.5499
14254TIP3    H264254   1.844   5.209   3.148  0.2117  0.0078 -0.1925
14255TIP3   OH264255   1.694   0.039   5.295  0.3372  0.2023  0.1609
14255TIP3    H164256   1.633   0.100   5.338  0.8825  1.0334 -0.2393
14255TIP3    H264257   1.661  -0.048   5.320 -1.6578  0.5843 -0.8866
14256TIP3   OH264258   4.728   1.679  13.119 -0.0936  0.4268 -0.3909
14256TIP3    H164259   4.771   1.602  13.082  0.2578  0.3302  0.2101
14256TIP3    H264260   4.725   1.742  13.047  0.6361  0.2631 -0.5712
14257TIP3   OH264261   5.292   6.473   4.548 -0.2205  0.0672  0.0142
14257TIP3    H164262   5.311   6.384   4.580 -0.0080  0.4125  0.8781
14257TIP3    H264263   5.219   6.502   4.603 -0.1743  0.4934 -0.1517
14258TIP3   OH264264   4.494   3.856   1.303  0.3966  0.2760 -0.1901
14258TIP3    H164265   4.464   3.769   1.278  0.8236  0.8105 -2.8350
14258TIP3    H264266   4.415   3.911   1.298  0.2128  0.1514  1.0605
14259TIP3   OH264267   2.504   1.443  14.371 -0.1768 -0.2366  0.3996
14259TIP3    H164268   2.502   1.357  14.329  0.5461 -0.7661  1.4128
14259TIP3    H264269   2.588   1.480  14.343 -0.8686  0.5169 -0.7360
14260TIP3   OH264270   0.544   5.151  12.853  0.1745  0.7269  0.3675
14260TIP3    H164271   0.560   5.140  12.760  2.4858  0.5243  0.7366
14260TIP3    H264272   0.457   5.191  12.858  0.2615  1.3018 -1.8838
14261TIP3   OH264273   2.495   5.939   2.258  0.2010  0.0516  0.5056
14261TIP3    H164274   2.570   5.906   2.308 -0.3267 -0.4406  0.9885
14261TIP3    H264275   2.420   5.925   2.316 -0.5041 -1.0576 -0.6203
14262TIP3   OH264276   1.488   1.192  11.259 -0.0097 -0.1549  0.3023
14262TIP3    H164277   1.432   1.119  11.231  1.4294 -1.0608 -0.3339
14262TIP3    H264278   1.575   1.153  11.268  0.9084  1.5838 -0.5393
14263TIP3   OH264279   2.858   4.126   4.414  0.4027  0.2993 -0.2209
14263TIP3    H164280   2.798   4.100   4.484  0.1957  0.5535 -0.3025
14263TIP3    H264281   2.802   4.138   4.337  0.9453 -2.7583 -1.2197
14264TIP3   OH264282   1.794   0.220  15.872 -0.3518  0.0220 -0.1323
14264TIP3    H164283   1.757   0.214  15.785 -2.1145  0.4247  0.5533
14264TIP3    H264284   1.853   0.145  15.879 -1.8588 -1.2861 -0.9056
14265TIP3   OH264285   5.429   1.527  17.185  0.2390 -0.2214 -0.1242
14265TIP3    H164286   5.361   1.504  17.249 -0.6155 -0.1899 -1.0044
14265TIP3    H264287   5.484   1.448  17.180 -1.4492 -1.3672 -1.5628
14266TIP3   OH264288   6.684   0.629  12.706  0.1014  0.0799  0.2934
14266TIP3    H164289   6.623   0.558  12.685  0.3062 -0.4602  1.4717
14266TIP3    H264290   6.719   0.656  12.621  0.6815 -1.8428 -0.1356
14267TIP3   OH264291   2.578   6.151   5.958  0.0240  0.3921 -0.2678
14267TIP3    H164292   2.640   6.080   5.973 -1.1480 -0.7739 -0.7728
14267TIP3    H264293   2.522   6.150   6.035 -0.7538 -0.0541 -0.8275
14268TIP3   OH264294   4.995   6.076   0.577  0.2525 -0.0712 -0.1198
14268TIP3    H164295   5.061   6.023   0.532  2.0112  0.2733  1.9181
14268TIP3    H264296   4.950   6.014   0.635 -0.2673 -0.0123 -0.4467
14269TIP3   OH264297   6.154   5.089   0.472 -0.4189  0.1004 -0.1781
14269TIP3    H164298   6.213   5.022   0.506 -1.7022 -0.9399  0.0629
14269TIP3    H264299   6.212   5.157   0.439  0.9062 -0.6856  0.4526
14270TIP3   OH264300   0.661   4.257  12.777 -0.4202  0.3609  0.2856
14270TIP3    H164301   0.730   4.215  12.725 -1.6210 -1.6213  0.1854
14270TIP3    H264302   0.687   4.349  12.781  1.5469 -0.0820 -0.8194
14271TIP3   OH264303   2.406   5.585  15.030 -0.0225 -0.4421  0.3913
14271TIP3    H164304   2.363   5.513  14.984 -1.2420  0.4056  0.1719
14271TIP3    H264305   2.376   5.663  14.985  3.1367  0.1591 -0.9401
14272TIP3   OH264306   0.953   1.073  15.405 -0.1323 -0.7320  0.0191
14272TIP3    H164307   0.981   1.014  15.335  1.5249 -0.0650  0.0558
14272TIP3    H264308   1.034   1.118  15.432 -1.0466  0.3297  1.1283
14273TIP3   OH264309   6.172   2.300  13.794 -0.4461 -0.0629 -0.4109
14273TIP3    H164310   6.173   2.240  13.719 -0.7233 -1.2892  0.5258
14273TIP3    H264311   6.264   2.325  13.804 -0.5621  1.1158 -1.8921
14274TIP3   OH264312   0.334   6.083  15.315  0.5008  0.5864 -0.3048
14274TIP3    H164313   0.252   6.036  15.301  0.8826  0.0009 -0.6322
14274TIP3    H264314   0.366   6.103  15.227  1.1566  0.0082 -0.2075
14275TIP3   OH264315   1.444   6.078   4.185  0.0634  0.0802  0.6890
14275TIP3    H164316   1.419   6.035   4.266 -0.0377 -0.9322  0.1287
14275TIP3    H264317   1.397   6.162   4.187 -0.1589 -0.0550  1.5307
14276TIP3   OH264318   3.216   2.769  15.007 -0.2232  0.2178  0.5383
14276TIP3    H164319   3.133   2.808  15.036 -0.3621 -0.3413  0.9155
14276TIP3    H264320   3.253   2.833  14.947 -1.7646 -0.2752 -1.0195
14277TIP3   OH264321   6.666   2.644  13.082  0.0596 -0.5134  0.5055
14277TIP3    H164322   6.696   2.716  13.137  2.8545 -2.6584  1.9994
14277TIP3    H264323   6.589   2.610  13.127 -2.7703  2.6568 -1.3674
14278TIP3   OH264324   5.658   0.636  10.665  0.7580 -0.1823  0.7134
14278TIP3    H164325   5.599   0.701  10.704  0.9466  0.6722 -0.3710
14278TIP3    H264326   5.642   0.644  10.571  1.0103 -1.5120  0.5429
14279TIP3   OH264327   4.957   4.558  10.720  0.3802 -0.1711  0.3468
14279TIP3    H164328   5.049   4.567  10.694 -0.0018 -1.0703 -1.4754
14279TIP3    H264329   4.947   4.619  10.793  1.9868  1.3001 -0.5679
14280TIP3   OH264330   4.666   5.516   3.874  0.2838 -0.9194  0.8023
14280TIP3    H164331   4.748   5.510   3.923  1.2791  1.3479 -0.4357
14280TIP3    H264332   4.598   5.515   3.942  1.4870 -0.0856  2.0744
14281TIP3   OH264333   3.101   0.225   4.117  0.1191 -0.0779  0.3951
14281TIP3    H164334   3.179   0.209   4.169 -0.4270 -0.0395  1.2473
14281TIP3    H264335   3.117   0.180   4.034  1.0347 -0.0708  0.5669
14282TIP3   OH264336   2.271   2.399  12.594 -0.1398 -0.0404 -0.2165
14282TIP3    H164337   2.278   2.485  12.552 -2.0998  0.1502 -0.2573
14282TIP3    H264338   2.347   2.394  12.652 -0.4284  2.0741  0.4129
14283TIP3   OH264339   6.753   1.307   1.475  0.2404 -0.0726  0.1267
14283TIP3    H164340   6.695   1.232   1.471  0.1229  0.0528 -1.3225
14283TIP3    H264341   6.778   1.314   1.567 -0.8427 -1.0285  0.5182
14284TIP3   OH264342   0.302   2.554   1.440 -1.2059 -0.2229  0.3551
14284TIP3    H164343   0.332   2.469   1.474 -0.3580 -0.5026 -1.0060
14284TIP3    H264344   0.247   2.590   1.510  1.7197  0.0088  2.7469
14285TIP3   OH264345   0.429   6.725   2.977  0.5338  0.1489 -0.2467
14285TIP3    H164346   0.485   6.648   2.992 -0.3081 -0.4377 -0.0518
14285TIP3    H264347   0.393   6.745   3.063 -0.6139 -0.3197 -0.6076
14286TIP3   OH264348   1.233   6.642  11.503 -0.1605  1.0656 -0.3497
14286TIP3    H164349   1.205   6.566  11.452  2.1113  0.2917 -0.5553
14286TIP3    H264350   1.230   6.715  11.441 -2.5035  1.2610 -0.1109
14287TIP3   OH264351   0.180   3.950  15.534  0.4687 -0.2334 -0.1115
14287TIP3    H164352   0.229   4.016  15.583  0.3903  0.7830 -1.3405
14287TIP3    H264353   0.227   3.943  15.450 -0.3902 -0.6373 -0.5720
14288TIP3   OH264354   2.746   5.649  15.802  0.7182 -0.2529  0.2863
14288TIP3    H164355   2.670   5.703  15.779  1.0199  0.3289  0.6598
14288TIP3    H264356   2.771   5.608  15.719  0.9388  0.7512 -0.1554
14289TIP3   OH264357   6.784   2.470   3.546  0.3285  0.0427  0.2524
14289TIP3    H164358   6.698   2.439   3.515  1.5096 -2.4914 -0.8050
14289TIP3    H264359   6.823   2.512   3.469  0.6522 -0.2368  0.2636
14290TIP3   OH264360   6.649   1.121   4.034 -0.1148 -0.6680  0.3515
14290TIP3    H164361   6.618   1.034   4.058 -0.3102 -1.3179 -2.0194
14290TIP3    H264362   6.684   1.111   3.945  0.4161  1.5465  0.2470
14291TIP3   OH264363   6.759   1.106   5.089 -0.2630  0.2902  0.1020
14291TIP3    H164364   6.777   1.191   5.048  0.7253  0.1318  0.1783
14291TIP3    H264365   6.844   1.061   5.090 -0.7623 -0.6807  0.1090
14292TIP3   OH264366   2.907   0.835  14.300  0.1815  0.2929 -0.2580
14292TIP3    H164367   2.950   0.918  14.278  1.5950  1.0654  4.3453
14292TIP3    H264368   2.969   0.768  14.272  0.3987  0.9116 -1.3189
14293TIP3   OH264369   1.895   2.696  11.632  0.0041  0.3753 -0.4306
14293TIP3    H164370   1.946   2.741  11.699  0.0826  1.9638 -1.4995
14293TIP3    H264371   1.850   2.626  11.678  0.2580  1.2663  1.2191
14294TIP3   OH264372   2.815   0.995  15.877  0.1000 -0.8241  0.2463
14294TIP3    H164373   2.908   0.988  15.855  0.3786 -0.4576  1.2776
14294TIP3    H264374   2.785   0.904  15.878  0.5797 -0.9877  0.4426
14295TIP3   OH264375   5.230   2.539   4.221  0.3238  0.9634  1.0018
14295TIP3    H164376   5.157   2.599   4.210 -0.8462 -0.2103  2.0430
14295TIP3    H264377   5.266   2.527   4.133 -1.0019  1.2510  0.4097
14296TIP3   OH264378   3.042   1.551  13.300  0.6070 -0.2678  0.3785
14296TIP3    H164379   3.012   1.641  13.306 -1.5102 -0.9138  0.2377
14296TIP3    H264380   3.138   1.557  13.302  0.5234  2.0047 -0.2259
14297TIP3   OH264381   5.637   0.020  16.170  0.0798 -0.2785 -0.3172
14297TIP3    H164382   5.652   0.106  16.130 -0.1836  0.0249  0.2104
14297TIP3    H264383   5.712  -0.032  16.145  0.8508  0.4834  0.3405
14298TIP3   OH264384   5.010   0.917   0.122  0.1718 -0.2499 -0.4058
14298TIP3    H164385   4.955   0.857   0.173  0.9498 -0.2228  0.4944
14298TIP3    H264386   4.982   1.004   0.149  0.4631 -0.2331 -0.1586
14299TIP3   OH264387   3.175   0.489   0.817 -0.1521  0.1047  0.6385
14299TIP3    H164388   3.226   0.484   0.736 -0.9014 -0.4518  0.1725
14299TIP3    H264389   3.238   0.471   0.886  0.1788 -1.2261  0.0339
14300TIP3   OH264390   5.268   4.147   5.109 -0.1679  0.1995 -0.4023
14300TIP3    H164391   5.246   4.211   5.177 -0.6610 -1.0652  0.6923
14300TIP3    H264392   5.341   4.186   5.061 -1.2824  2.1220 -0.6174
14301TIP3   OH264393   6.078   5.380  13.834  0.9088 -0.2958  0.1602
14301TIP3    H164394   6.136   5.343  13.768 -0.6116  0.2786 -1.5883
14301TIP3    H264395   6.082   5.474  13.819  0.1230 -0.1953  0.5306
14302TIP3   OH264396   3.571   1.588  12.676 -0.0350 -0.9849 -0.2634
14302TIP3    H164397   3.654   1.614  12.638 -0.9549  1.6285 -0.6965
14302TIP3    H264398   3.510   1.657  12.650 -2.1544 -2.3975  0.6989
14303TIP3   OH264399   5.972   5.873  16.839  0.1232  0.2628 -0.1651
14303TIP3    H164400   5.885   5.877  16.801  0.2083 -0.7794 -0.4960
14303TIP3    H264401   5.958   5.841  16.929  0.1866 -0.2248 -0.3268
14304TIP3   OH264402   2.985   5.467  11.088  0.0532 -0.0898  0.3153
14304TIP3    H164403   3.049   5.434  11.024  0.2289  1.1522 -0.1829
14304TIP3    H264404   2.954   5.549  11.050 -1.2408 -0.2574  0.9483
14305TIP3   OH264405   1.007   1.498  15.196 -0.3285  0.3001 -0.0039
14305TIP3    H164406   1.057   1.470  15.272 -0.6002 -1.0162 -0.2974
14305TIP3    H264407   1.019   1.593  15.193  2.6268 -0.0000 -0.3905
14306TIP3   OH264408   2.311   2.158  16.945  0.0921  0.1365 -0.0802
14306TIP3    H164409   2.306   2.195  16.857 -1.7869 -0.7047 -0.3851
14306TIP3    H264410   2.221   2.130  16.964  0.8534 -1.5397  1.3007
14307TIP3   OH264411   2.155   1.517  16.002  0.1258 -0.6175 -0.6381
14307TIP3    H164412   2.245   1.499  16.030 -0.2327 -1.5788 -0.0584
14307TIP3    H264413   2.105   1.519  16.084 -0.0506  2.2609 -0.6959
14308TIP3   OH264414   3.532   3.956  16.201  0.4516 -0.0760 -0.5937
14308TIP3    H164415   3.450   3.955  16.250  1.3498 -0.0909  0.9807
14308TIP3    H264416   3.540   4.045  16.168  0.0267  0.0504 -0.3567
14309TIP3   OH264417   0.729   1.657  16.576 -0.0470  0.5335 -0.2209
14309TIP3    H164418   0.820   1.689  16.570  0.4526 -1.0024 -1.6817
14309TIP3    H264419   0.738   1.566  16.602 -0.9543 -0.4429 -2.9711
14310TIP3   OH264420   6.676   0.475  11.717  0.3145 -0.3452 -0.3130
14310TIP3    H164421   6.712   0.486  11.805  0.0375 -2.2715  0.0741
14310TIP3    H264422   6.651   0.383  11.713 -2.7272  0.4256 -1.2615
14311TIP3   OH264423   1.347   0.044  13.991  0.4126 -0.0740 -0.0055
14311TIP3    H164424   1.360   0.109  13.922  0.2944  0.1391  0.1732
14311TIP3    H264425   1.436   0.021  14.019  0.5776 -1.7916 -1.7265
14312TIP3   OH264426   0.525   0.031   1.724  0.3637  0.3412 -0.1123
14312TIP3    H164427   0.492   0.120   1.713 -0.9478 -0.0917  0.0642
14312TIP3    H264428   0.466  -0.023   1.671 -0.2494 -0.6624  1.5034
14313TIP3   OH264429   4.716   3.839  10.902 -0.2658 -0.4165 -0.3181
14313TIP3    H164430   4.642   3.799  10.855 -1.1752 -1.0446  1.5429
14313TIP3    H264431   4.682   3.923  10.932  0.1732 -0.2007 -0.4230
14314TIP3   OH264432   2.617   6.596  16.639 -0.2221  0.9851 -0.0527
14314TIP3    H164433   2.555   6.548  16.584 -0.8486  0.9402  0.6870
14314TIP3    H264434   2.638   6.675  16.588  0.2243  0.3175 -0.9335
14315TIP3   OH264435   2.665   0.486   1.843  0.1471 -0.3857  0.2002
14315TIP3    H164436   2.579   0.520   1.869  1.1436  1.1947  1.6504
14315TIP3    H264437   2.703   0.555   1.789 -0.0485 -1.7311 -1.7671
14316TIP3   OH264438   0.834   4.532  14.160 -0.1732  0.4899  0.1206
14316TIP3    H164439   0.769   4.509  14.227  0.5455 -0.6520  0.4566
14316TIP3    H264440   0.873   4.448  14.136  1.1956  1.1675 -0.0684
14317TIP3   OH264441   6.378   5.151   5.441  0.3408 -0.0192 -0.2276
14317TIP3    H164442   6.381   5.133   5.347  0.0280  0.8895 -0.4130
14317TIP3    H264443   6.409   5.070   5.481 -0.9864 -0.9716 -1.0470
14318TIP3   OH264444   0.926   5.144   2.431 -0.3549  0.3793  0.1453
14318TIP3    H164445   0.924   5.054   2.400 -1.4572  0.3689  0.2341
14318TIP3    H264446   0.940   5.136   2.525  0.4971  0.3404  0.0249
14319TIP3   OH264447   3.363   4.497  15.529 -0.2831  0.0351  0.1108
14319TIP3    H164448   3.450   4.503  15.570  0.0072 -0.4454 -0.4210
14319TIP3    H264449   3.348   4.404  15.518 -0.2587  0.1498 -1.0459
14320TIP3   OH264450   0.840   5.242   2.690  0.4491  0.5929  0.0959
14320TIP3    H164451   0.838   5.308   2.621  1.1864  1.8274  1.2064
14320TIP3    H264452   0.932   5.237   2.715  0.5436 -1.4943 -0.5159
14321TIP3   OH264453   5.333   0.936  15.883 -0.6436  0.8593  0.0447
14321TIP3    H164454   5.399   0.891  15.936 -0.4941  0.3776 -0.5399
14321TIP3    H264455   5.318   1.019  15.928  0.5696  1.0950  0.0269
14322TIP3   OH264456   1.165   3.378   5.175  0.0226 -0.4709  0.0073
14322TIP3    H164457   1.224   3.303   5.164 -2.9185 -2.9391 -0.1847
14322TIP3    H264458   1.122   3.389   5.090 -0.6139  0.5275  0.4324
14323TIP3   OH264459   5.008   1.158   0.288 -0.0382 -0.3477 -0.2342
14323TIP3    H164460   5.017   1.236   0.342  2.0016 -1.4543  1.1307
14323TIP3    H264461   4.990   1.088   0.350  0.4476 -1.3435 -1.1822
14324TIP3   OH264462   4.649   3.362   4.724 -0.4335  0.0206 -0.2406
14324TIP3    H164463   4.730   3.355   4.775 -0.6257  0.2019  0.0989
14324TIP3    H264464   4.649   3.285   4.668 -0.4319 -0.4288  0.3599
14325TIP3   OH264465   0.046   6.067   0.667  0.9486  0.1015 -0.1716
14325TIP3    H164466   0.020   6.028   0.583 -0.0260 -0.3860  0.3310
14325TIP3    H264467   0.010   6.007   0.733 -0.2513  1.6143  0.6304
14326TIP3   OH264468   6.266   0.293  12.022  0.4974 -0.3818  0.0415
14326TIP3    H164469   6.202   0.359  11.994 -0.0633 -1.5294 -1.4507
14326TIP3    H264470   6.314   0.271  11.943  0.4282 -2.0465  0.4420
14327TIP3   OH264471   4.114   5.089  14.312 -0.5356  0.3886 -0.0520
14327TIP3    H164472   4.115   5.174  14.270 -0.7018  0.7016  0.5630
14327TIP3    H264473   4.203   5.079  14.348 -0.7445  0.6490  0.5466
14328TIP3   OH264474   0.381   4.190  11.273 -0.5536  0.3687  0.4950
14328TIP3    H164475   0.426   4.107  11.261 -0.9524  0.3279 -0.9869
14328TIP3    H264476   0.403   4.240  11.194 -1.6583  1.0247  0.5865
14329TIP3   OH264477   1.852   6.239  14.473  0.2902 -0.7949 -0.0045
14329TIP3    H164478   1.938   6.264  14.438  0.4139 -1.0780  0.0873
14329TIP3    H264479   1.860   6.253  14.567 -0.1252  0.2013 -0.1068
14330TIP3   OH264480   0.469   3.834   1.648  0.6628  0.0042 -0.2309
14330TIP3    H164481   0.409   3.773   1.605  0.4057 -0.9243  1.3571
14330TIP3    H264482   0.555   3.793   1.641  0.7998  0.3838 -0.8026
14331TIP3   OH264483   0.949   3.396   1.864  0.2412  0.3592  0.3253
14331TIP3    H164484   0.965   3.480   1.908  0.7675  0.2764  0.2949
14331TIP3    H264485   1.010   3.335   1.906  1.9362  0.6327 -1.6385
14332TIP3   OH264486   1.680   5.248  11.926 -0.4248 -0.0733  0.1989
14332TIP3    H164487   1.717   5.327  11.965 -0.5406 -0.4385  1.0738
14332TIP3    H264488   1.604   5.278  11.877 -0.6065  0.3313  0.7181
14333TIP3   OH264489   0.043   0.279  13.695 -0.6122  0.2684 -0.2603
14333TIP3    H164490  -0.006   0.330  13.631 -0.9347 -1.1886 -1.2394
14333TIP3    H264491   0.124   0.256  13.650 -0.4587 -0.0350  0.1722
14334TIP3   OH264492   5.876   6.521  16.938  0.6573  0.5244  0.3781
14334TIP3    H164493   5.802   6.527  16.999 -0.1347 -1.4663 -0.2972
14334TIP3    H264494   5.875   6.605  16.892 -2.2900 -0.0048 -0.7769
14335TIP3   OH264495   4.937   6.631  11.152  0.2246 -0.1573  0.5338
14335TIP3    H164496   4.865   6.573  11.175  2.0280 -2.2449  1.2321
14335TIP3    H264497   4.992   6.580  11.093  1.2847  1.2838  0.2046
14336TIP3   OH264498   4.447   4.844   4.427  0.1757 -0.4105  0.7852
14336TIP3    H164499   4.541   4.856   4.439  0.3943 -0.6246 -0.4966
14336TIP3    H264500   4.432   4.864   4.334 -0.7928 -1.8663  0.5983
14337TIP3   OH264501   2.112   0.294   5.103 -0.3743 -0.4567 -0.2973
14337TIP3    H164502   2.052   0.357   5.063  1.9060  0.9671 -1.7141
14337TIP3    H264503   2.074   0.209   5.083 -0.8673  0.3031 -3.0586
14338TIP3   OH264504   5.268   3.871   5.607 -0.1071  0.0513  0.0426
14338TIP3    H164505   5.218   3.791   5.595  0.5772 -0.4644  0.5434
14338TIP3    H264506   5.211   3.941   5.574  0.2361 -0.8766 -2.7593
14339TIP3   OH264507   5.872   3.863  16.814  0.4724  0.2695 -0.1898
14339TIP3    H164508   5.869   3.793  16.749  0.5883 -1.0920  1.1827
14339TIP3    H264509   5.780   3.885  16.831  0.2048 -1.9155  1.6941
14340TIP3   OH264510   6.293   5.356  15.108 -0.0860  0.0201 -0.0317
14340TIP3    H164511   6.221   5.340  15.168 -1.0053 -1.6739 -1.4661
14340TIP3    H264512   6.276   5.443  15.072  0.2049  0.8340  1.7126
14341TIP3   OH264513   4.602   4.600   5.954  0.2808 -0.4546 -0.0976
14341TIP3    H164514   4.655   4.642   5.886 -2.1999 -0.2048 -1.9915
14341TIP3    H264515   4.583   4.669   6.016  1.5870 -0.3956  0.2666
14342TIP3   OH264516   6.286   3.570   2.041  0.2192 -0.5829  0.0890
14342TIP3    H164517   6.325   3.610   2.118 -0.5486  2.3489 -0.9016
14342TIP3    H264518   6.221   3.508   2.076  2.1231 -1.7670  1.7100
14343TIP3   OH264519   1.201   4.469   7.002 -0.3504  0.3706 -0.5488
14343TIP3    H164520   1.281   4.499   6.960 -1.0831  0.6706 -1.7835
14343TIP3    H264521   1.200   4.375   6.989  0.4662  0.1692  0.6908
14344TIP3   OH264522   4.215   6.798  13.821 -0.4662 -0.6630 -0.0876
14344TIP3    H164523   4.286   6.777  13.760 -1.0242 -2.4719 -0.1676
14344TIP3    H264524   4.257   6.800  13.907  0.4656  2.6056 -0.4823
14345TIP3   OH264525   6.519   4.415  14.811  0.2996 -0.3525  0.2410
14345TIP3    H164526   6.509   4.445  14.902 -0.6110  0.2743 -0.0531
14345TIP3    H264527   6.596   4.461  14.779 -0.8959  1.4943 -0.1052
14346TIP3   OH264528   0.750   1.890   0.650  0.5577 -0.2211  0.5303
14346TIP3    H164529   0.750   1.842   0.733 -0.9048 -0.2337  0.5416
14346TIP3    H264530   0.683   1.847   0.597  1.3013 -0.0532 -0.5752
14347TIP3   OH264531   4.663   1.179  12.668  0.1048 -0.0751 -0.1128
14347TIP3    H164532   4.681   1.107  12.609 -0.5114  1.8890 -2.8827
14347TIP3    H264533   4.691   1.258  12.621 -0.9768  1.6818  1.9479
14348TIP3   OH264534   2.764   5.940  15.902 -0.1383  0.1303  0.0133
14348TIP3    H164535   2.845   5.964  15.858 -1.2054  0.2013 -2.0250
14348TIP3    H264536   2.740   5.855  15.865 -1.2851  0.3885  0.1171
14349TIP3   OH264537   6.502   4.058  15.811  0.5536 -0.3972  0.3304
14349TIP3    H164538   6.417   4.025  15.840  0.8872 -1.9347 -0.3022
14349TIP3    H264539   6.506   4.148  15.843 -2.1857  0.4501 -1.3874
14350TIP3   OH264540   4.733   4.672  13.611  0.2973 -0.3744 -0.1734
14350TIP3    H164541   4.742   4.604  13.544  0.1857  0.8514 -1.4761
14350TIP3    H264542   4.823   4.689  13.640  0.3364 -0.9773  0.0736
14351TIP3   OH264543   4.729   1.419  12.974 -0.3282  0.5986  0.1270
14351TIP3    H164544   4.765   1.465  12.898  0.8366 -0.7746 -0.2028
14351TIP3    H264545   4.778   1.337  12.977 -1.2368  0.0789  1.6290
14352TIP3   OH264546   5.331   2.344  13.108  0.3301  0.7356 -0.3533
14352TIP3    H164547   5.360   2.307  13.192 -0.2324  1.1749  0.0431
14352TIP3    H264548   5.403   2.328  13.048  0.5385 -0.0234  0.0961
14353TIP3   OH264549   2.924   3.996  16.759  0.9292 -0.4427 -0.2460
14353TIP3    H164550   2.944   4.000  16.665  1.4295 -0.2846 -0.1371
14353TIP3    H264551   3.003   3.960  16.799  1.0218  0.2303  0.2007
14354TIP3   OH264552   2.949   2.181  15.063  0.0904 -0.6918  0.0132
14354TIP3    H164553   2.885   2.238  15.021  0.5888 -0.3935 -0.3501
14354TIP3    H264554   3.012   2.160  14.994  1.5712  0.7384  0.8457
14355TIP3   OH264555   4.792   1.421   4.891 -0.0728  0.4984  0.1135
14355TIP3    H164556   4.763   1.336   4.859 -0.8309  1.8130 -3.1155
14355TIP3    H264557   4.886   1.424   4.870  0.3699 -0.1564  1.8623
14356TIP3   OH264558   1.748   2.315  14.862 -0.0777 -0.1611  0.2318
14356TIP3    H164559   1.705   2.303  14.777  0.9968 -1.3137 -0.1849
14356TIP3    H264560   1.838   2.284  14.848  0.9930  2.3194  1.0275
14357TIP3   OH264561   6.553   0.201   1.793  0.0039  0.1511  0.0888
14357TIP3    H164562   6.513   0.239   1.715 -1.6413  0.2193  0.9036
14357TIP3    H264563   6.607   0.271   1.829  0.6509  0.1676 -0.8898
14358TIP3   OH264564   5.363   4.171  15.476  0.6106  0.1772  0.1758
14358TIP3    H164565   5.439   4.148  15.422  0.5315 -1.2191  0.6124
14358TIP3    H264566   5.400   4.186  15.563  0.5576  0.9388  0.0689
14359TIP3   OH264567   6.743   2.378   6.064  0.4578  0.0613  0.2560
14359TIP3    H164568   6.792   2.459   6.051 -1.5784  1.3060 -0.1311
14359TIP3    H264569   6.652   2.407   6.073 -0.0867 -2.0219  2.2343
14360TIP3   OH264570   2.952   6.156   1.821  0.1913  0.8242 -0.5045
14360TIP3    H164571   2.876   6.170   1.764 -0.3326  0.8944  0.2034
14360TIP3    H264572   2.928   6.198   1.903  0.4390 -0.3400  0.1781
14361TIP3   OH264573   1.098   1.300   4.173 -0.2039  0.1703 -0.4921
14361TIP3    H164574   1.021   1.261   4.131 -0.1980  3.1217 -3.7488
14361TIP3    H264575   1.062   1.354   4.243 -0.9859  0.1393 -0.8553
14362TIP3   OH264576   3.208   1.021  15.616 -0.1116  0.4412  0.2134
14362TIP3    H164577   3.149   1.058  15.551 -0.6023  0.3757  0.6161
14362TIP3    H264578   3.213   1.088  15.685 -0.0620  0.2643  0.3821
14363TIP3   OH264579   1.339   1.270   2.431 -0.0530  0.2383 -0.2828
14363TIP3    H164580   1.407   1.287   2.496  0.3811 -0.9205 -0.4112
14363TIP3    H264581   1.387   1.253   2.350 -0.5829  1.4764 -0.8949
14364TIP3   OH264582   0.441   1.618   1.711 -0.3660  0.1261  0.0557
14364TIP3    H164583   0.374   1.634   1.644 -3.4796 -0.8030  2.6332
14364TIP3    H264584   0.474   1.531   1.691 -1.8425 -0.4782  0.1333
14365TIP3   OH264585   2.598   6.008   5.286  0.6101 -0.7696 -0.0017
14365TIP3    H164586   2.547   6.068   5.231  0.3178 -1.9888 -1.1104
14365TIP3    H264587   2.685   6.047   5.288 -0.0768  0.8097  1.0900
14366TIP3   OH264588   6.046   3.409  13.720  0.2648  0.1594  0.4644
14366TIP3    H164589   6.037   3.424  13.814 -1.3484 -0.7040  0.4713
14366TIP3    H264590   5.972   3.354  13.697  0.4076  0.6853 -1.4011
14367TIP3   OH264591   3.019   2.930  13.781 -0.4542 -0.7677  0.2412
14367TIP3    H164592   2.956   2.996  13.810  0.3253  0.1034 -0.0023
14367TIP3    H264593   3.089   2.933  13.846  1.1178  0.9245 -1.3980
14368TIP3   OH264594   0.496   4.291  16.641  0.2577  0.1495  0.1198
14368TIP3    H164595   0.484   4.278  16.735  0.3561  0.1061  0.1256
14368TIP3    H264596   0.591   4.290  16.628  0.2379 -0.0499 -0.0119
14369TIP3   OH264597   5.609   4.456   1.962  0.1074 -0.1600  0.2981
14369TIP3    H164598   5.694   4.411   1.965  0.3274  0.2575  0.4456
14369TIP3    H264599   5.592   4.469   1.869 -0.3374 -1.2420  0.2109
14370TIP3   OH264600   0.631   3.774  13.996 -0.3421  0.2731 -0.1292
14370TIP3    H164601   0.635   3.717  13.919 -0.0851 -0.5440  0.4733
14370TIP3    H264602   0.538   3.779  14.017 -0.4358  0.6678 -0.6027
14371TIP3   OH264603   1.656   5.856   4.751 -0.3372 -0.5952 -0.1124
14371TIP3    H164604   1.576   5.906   4.735 -0.5954 -0.5642  1.1791
14371TIP3    H264605   1.709   5.913   4.806  0.5775 -0.6233 -0.9413
14372TIP3   OH264606   4.427   0.235  11.437 -0.7886 -0.2188 -0.2678
14372TIP3    H164607   4.403   0.222  11.529 -3.7293  2.3526 -0.4900
14372TIP3    H264608   4.448   0.328  11.431  0.4469 -0.5687 -2.0184
14373TIP3   OH264609   2.924   6.589  14.249  0.1270 -0.2906 -0.4838
14373TIP3    H164610   2.844   6.546  14.220 -0.7225  1.5303 -1.0259
14373TIP3    H264611   2.959   6.533  14.318 -1.1416 -1.5614 -0.8442
14374TIP3   OH264612   6.662   2.055  10.790 -0.1798  0.3005  0.4336
14374TIP3    H164613   6.574   2.036  10.757  0.1127  1.2748 -0.9803
14374TIP3    H264614   6.658   2.147  10.816  0.6890  0.6615 -0.6291
14375TIP3   OH264615   3.255   2.407  12.441 -0.0197 -0.1525 -0.2852
14375TIP3    H164616   3.254   2.416  12.346  2.9165 -0.8017 -0.4597
14375TIP3    H264617   3.252   2.312  12.457  0.8305 -0.1169  0.1744
14376TIP3   OH264618   3.693   4.371  11.508  0.5517  0.1166  0.3520
14376TIP3    H164619   3.601   4.397  11.506  0.8098  1.3053 -2.8901
14376TIP3    H264620   3.694   4.285  11.466  0.9368  0.1508  0.2856
14377TIP3   OH264621   3.101   3.407   3.327 -0.3439 -0.2646 -0.4754
14377TIP3    H164622   3.094   3.446   3.240  2.0769  0.6405 -0.3503
14377TIP3    H264623   3.182   3.443   3.363 -1.0779 -0.8859  2.0345
14378TIP3   OH264624   4.821   0.373   0.292 -0.2325 -0.4638  0.5736
14378TIP3    H164625   4.858   0.445   0.240 -0.6303  0.2019  1.1901
14378TIP3    H264626   4.770   0.322   0.229  0.7960 -0.7409 -0.0556
14379TIP3   OH264627   2.321   6.692   2.269 -0.1213 -0.1278 -0.9009
14379TIP3    H164628   2.376   6.764   2.238 -1.3438  0.6703 -1.2628
14379TIP3    H264629   2.235   6.708   2.230 -0.3096 -2.0714 -1.4197
14380TIP3   OH264630   2.488   0.204   4.576  0.4868 -0.0822  0.2686
14380TIP3    H164631   2.531   0.151   4.643  0.9725  1.4591  1.2313
14380TIP3    H264632   2.557   0.261   4.542 -0.1726  0.4446 -0.2168
14381TIP3   OH264633   1.067   2.854  11.372 -0.0265  0.6514 -0.0843
14381TIP3    H164634   1.104   2.934  11.333 -1.1063  0.9168 -0.6057
14381TIP3    H264635   0.982   2.844  11.329 -0.1633 -0.4485  0.4230
14382TIP3   OH264636   2.758   6.179  16.724  0.2307 -0.1646 -0.4147
14382TIP3    H164637   2.713   6.158  16.807 -0.5683  0.7722 -0.5992
14382TIP3    H264638   2.849   6.191  16.749  0.1186 -0.5695  0.2247
14383TIP3   OH264639   5.757   5.211   4.994 -0.1748 -0.4312  0.1748
14383TIP3    H164640   5.810   5.240   5.068  0.3660 -0.4403 -0.2056
14383TIP3    H264641   5.819   5.169   4.935 -0.2288  1.3494 -1.2331
14384TIP3   OH264642   2.667   5.003   4.888 -0.5991 -0.2752  0.7684
14384TIP3    H164643   2.612   5.081   4.879  1.3479  1.1875  0.8090
14384TIP3    H264644   2.696   5.006   4.979 -0.3782 -0.9636  0.7186
14385TIP3   OH264645   1.778   6.330   5.179 -0.6676 -0.6045  1.0371
14385TIP3    H164646   1.861   6.364   5.211 -0.5438  0.4697 -0.3299
14385TIP3    H264647   1.801   6.252   5.130 -0.3072  0.2209 -0.1612
14386TIP3   OH264648   0.901   3.871  17.159 -0.4732  0.5037 -0.3325
14386TIP3    H164649   0.858   3.905  17.238 -0.1746 -0.4544  0.2515
14386TIP3    H264650   0.831   3.826  17.112 -0.1684 -1.0385  0.6099
14387TIP3   OH264651   2.814   4.522   2.563  0.0279 -0.0086  0.9370
14387TIP3    H164652   2.903   4.553   2.581 -0.1815  0.4908  1.1280
14387TIP3    H264653   2.788   4.569   2.483 -0.2313  0.1938  1.1373
14388TIP3   OH264654   2.021   3.748  15.817  0.6515 -0.5222 -0.7300
14388TIP3    H164655   2.114   3.767  15.804  0.6059 -1.2906 -2.5246
14388TIP3    H264656   1.978   3.834  15.814  1.3770 -0.0142  1.4442
14389TIP3   OH264657   0.343   0.907   3.114 -0.2230  0.2865  0.1503
14389TIP3    H164658   0.373   0.984   3.163 -0.2728 -0.2422  1.0266
14389TIP3    H264659   0.251   0.899   3.137 -0.2686  0.0779 -0.1058
14390TIP3   OH264660   5.722   5.507   4.105 -0.4906 -0.7134 -0.1649
14390TIP3    H164661   5.627   5.510   4.112 -0.6043  1.1541 -1.7010
14390TIP3    H264662   5.742   5.553   4.024  1.7469 -0.9991  0.1410
14391TIP3   OH264663   0.106   3.900  12.734  0.1013  0.2711 -0.3820
14391TIP3    H164664   0.194   3.880  12.701  0.8742  0.5399  1.4042
14391TIP3    H264665   0.105   3.862  12.822 -0.5437  2.7537  0.7586
14392TIP3   OH264666   1.712   6.486   0.607 -0.5272  0.0553 -0.0843
14392TIP3    H164667   1.703   6.563   0.663 -0.7330 -0.2070  0.2453
14392TIP3    H264668   1.622   6.458   0.591 -0.4391 -0.3689  0.1487
14393TIP3   OH264669   0.879   5.532  16.987  0.1623 -0.1944 -0.1627
14393TIP3    H164670   0.814   5.557  16.922 -0.3495 -0.5723  0.1919
14393TIP3    H264671   0.932   5.465  16.943  0.8192  0.6749 -0.7225
14394TIP3   OH264672   0.359   3.501   0.737  0.5857  0.0223  0.6416
14394TIP3    H164673   0.356   3.591   0.706 -0.6000 -0.1874  0.0653
14394TIP3    H264674   0.311   3.502   0.820  2.6712  0.3418  1.9314
14395TIP3   OH264675   1.380   2.664  16.570  0.2015 -0.5657 -0.3228
14395TIP3    H164676   1.364   2.668  16.475  1.0665  0.4826 -0.4489
14395TIP3    H264677   1.349   2.748  16.603  1.6221 -0.1410  0.0185
14396TIP3   OH264678   3.159   2.700  14.127  0.2455  0.0307 -0.1916
14396TIP3    H164679   3.188   2.627  14.181 -1.2970 -1.1472 -0.8788
14396TIP3    H264680   3.240   2.738  14.092  1.0639 -1.5687 -0.0982
14397TIP3   OH264681   6.182   3.132   2.159 -0.3862  0.4330 -0.0828
14397TIP3    H164682   6.273   3.143   2.130 -0.3852 -0.8542 -0.6310
14397TIP3    H264683   6.169   3.037   2.161 -1.3595  0.5652  1.1510
14398TIP3   OH264684   1.983   2.569   4.160 -0.3724  0.0177  0.4786
14398TIP3    H164685   1.899   2.525   4.172  1.1070 -2.7861  1.6158
14398TIP3    H264686   1.994   2.576   4.066 -1.6741 -0.0238  0.3154
14399TIP3   OH264687   3.790   5.163   0.736  0.8301 -0.0174 -0.1546
14399TIP3    H164688   3.782   5.258   0.744  0.6542 -0.0113 -0.3704
14399TIP3    H264689   3.870   5.141   0.783  1.1807  0.3052 -0.5931
14400TIP3   OH264690   0.599   3.256   0.345  0.2490 -0.0841 -0.0153
14400TIP3    H164691   0.504   3.255   0.340  0.2630 -1.0616 -0.3214
14400TIP3    H264692   0.628   3.270   0.255  0.3940  0.2289  0.0798
14401TIP3   OH264693   4.844   0.352   2.348 -0.0359 -0.4410 -0.0417
14401TIP3    H164694   4.831   0.428   2.292 -3.9915  0.1489  1.3433
14401TIP3    H264695   4.923   0.371   2.397  1.4550  0.7156 -2.6581
14402TIP3   OH264696   5.530   1.052   2.490  0.2875 -0.2280  0.3954
14402TIP3    H164697   5.446   1.009   2.509  0.1972  0.0990  0.7325
14402TIP3    H264698   5.535   1.052   2.394 -0.0640 -0.3149  0.3758
14403TIP3   OH264699   2.392   5.157   5.842  0.2802 -0.1440  0.0958
14403TIP3    H164700   2.426   5.246   5.842  0.2446 -0.1197  0.9899
14403TIP3    H264701   2.297   5.168   5.839  0.2715 -0.1500  0.3596
14404TIP3   OH264702   0.302   1.982   3.462  0.0584  0.1495  0.6983
14404TIP3    H164703   0.361   2.055   3.481 -1.1653  1.3900 -0.0614
14404TIP3    H264704   0.324   1.956   3.372 -0.3064  0.3959  0.5330
14405TIP3   OH264705   3.860   1.373   3.520  0.4836  0.0875 -0.3560
14405TIP3    H164706   3.857   1.312   3.446 -1.5009 -0.9096  0.4755
14405TIP3    H264707   3.769   1.394   3.538  1.0628  2.4308  0.1512
14406TIP3   OH264708   0.544   6.352   2.882  0.2744  0.4858  0.1028
14406TIP3    H164709   0.506   6.278   2.834  1.1697  0.9974 -1.4624
14406TIP3    H264710   0.599   6.397   2.817  2.6888  0.4078  1.9908
14407TIP3   OH264711   5.860   4.958   1.423 -0.0057 -0.1674 -0.2379
14407TIP3    H164712   5.909   4.883   1.389 -0.6674 -1.4180  1.4234
14407TIP3    H264713   5.769   4.936   1.408 -0.4671 -1.4733  3.3048
14408TIP3   OH264714   1.385   0.933   0.999 -0.1738 -0.0304  0.2045
14408TIP3    H164715   1.476   0.918   1.024  1.0488  2.6962 -2.0603
14408TIP3    H264716   1.345   0.973   1.076  1.4632  1.5871  0.2878
14409TIP3   OH264717   1.878   3.191  10.689  0.3411 -0.4468 -0.4198
14409TIP3    H164718   1.850   3.101  10.671  2.5864 -2.0544  3.0426
14409TIP3    H264719   1.798   3.243  10.678 -1.5551 -3.1525 -0.6083
14410TIP3   OH264720   3.114   2.450   2.917 -0.0947  0.8095 -0.0642
14410TIP3    H164721   3.081   2.441   3.006  0.6973 -0.2021  0.1599
14410TIP3    H264722   3.087   2.369   2.874  0.6429  0.7096 -0.3517
14411TIP3   OH264723   0.772   2.513  16.528 -0.1157 -0.3468 -0.1638
14411TIP3    H164724   0.757   2.425  16.561 -1.6375  0.2574  0.8565
14411TIP3    H264725   0.709   2.568  16.575  0.8510  1.3058 -0.7029
14412TIP3   OH264726   6.409   3.602   3.491 -0.4631  0.3222  0.3097
14412TIP3    H164727   6.479   3.542   3.465 -0.2846  0.1069  1.2420
14412TIP3    H264728   6.354   3.551   3.551 -0.7253  0.8560  0.5363
14413TIP3   OH264729   3.024   5.018  15.211 -0.4071 -0.2860 -0.0026
14413TIP3    H164730   2.994   4.989  15.297  0.4259 -1.2940 -0.0300
14413TIP3    H264731   3.113   4.984  15.204 -0.3914 -0.0475 -1.1765
14414TIP3   OH264732   1.287   4.141  14.325 -0.7563  0.3006  0.0020
14414TIP3    H164733   1.258   4.096  14.245  0.9824 -0.0802 -0.4397
14414TIP3    H264734   1.352   4.083  14.364  0.1339  1.5574  0.4488
14415TIP3   OH264735   4.523   0.609  11.863 -0.8466 -0.3978 -0.3304
14415TIP3    H164736   4.442   0.659  11.858 -0.0351  1.1744  1.1061
14415TIP3    H264737   4.513   0.554  11.941  1.0231  3.0523  2.6546
14416TIP3   OH264738   4.043   5.239   5.657 -0.2418  0.6305 -0.5688
14416TIP3    H164739   3.990   5.244   5.737  0.1726  1.8237 -0.3544
14416TIP3    H264740   3.979   5.242   5.586 -0.4861  2.0343 -0.3146
14417TIP3   OH264741   6.433   1.743  13.379 -0.1041 -0.4389  0.1956
14417TIP3    H164742   6.482   1.713  13.302  0.1971 -0.3383  0.3454
14417TIP3    H264743   6.401   1.663  13.420 -2.1049 -0.4408 -1.2023
14418TIP3   OH264744   4.134   5.851  14.916  0.0612 -0.8280 -0.1037
14418TIP3    H164745   4.224   5.821  14.908  0.7245  0.3857  1.9899
14418TIP3    H264746   4.088   5.780  14.959  0.3067 -0.9885 -0.1068
14419TIP3   OH264747   2.876   4.692  15.686 -0.0134  0.1597 -0.2656
14419TIP3    H164748   2.892   4.726  15.774  0.3155  1.8632 -0.9244
14419TIP3    H264749   2.957   4.646  15.663  0.1837  0.3438  0.0526
14420TIP3   OH264750   5.250   2.291   2.549  0.0484  0.3174  0.1124
14420TIP3    H164751   5.278   2.371   2.505 -0.4217  0.2959 -0.2390
14420TIP3    H264752   5.277   2.221   2.491 -2.6723  0.3853 -1.3959
14421TIP3   OH264753   1.888   5.460   4.230 -0.3097  0.1132  0.3332
14421TIP3    H164754   1.918   5.409   4.304 -0.7567  1.0012  1.1499
14421TIP3    H264755   1.803   5.422   4.207  1.3108 -2.4722 -2.0508
14422TIP3   OH264756   6.655   6.284  15.879  0.2299  0.4558 -0.3696
14422TIP3    H164757   6.741   6.291  15.919  0.0131  0.3941  0.1182
14422TIP3    H264758   6.668   6.313  15.788  1.0749 -0.9977 -0.7543
14423TIP3   OH264759   5.483   3.460   0.352 -0.5755 -0.2053  0.5245
14423TIP3    H164760   5.399   3.473   0.397 -1.2795 -2.2415 -0.1021
14423TIP3    H264761   5.479   3.520   0.278 -0.6080  1.1270  1.5589
14424TIP3   OH264762   0.571   4.755  12.312 -0.1693  0.5094 -0.1711
14424TIP3    H164763   0.516   4.746  12.390  0.0125  2.9868  0.3129
14424TIP3    H264764   0.523   4.816  12.256 -0.7334 -1.8627 -2.5091
14425TIP3   OH264765   2.352   1.178  16.755 -0.5026 -0.3235  0.2977
14425TIP3    H164766   2.443   1.179  16.785 -0.9479 -0.4729  1.7775
14425TIP3    H264767   2.327   1.086  16.755 -1.1885 -0.1693  1.7618
14426TIP3   OH264768   5.725   6.105  14.212  0.2303 -0.1340 -0.0497
14426TIP3    H164769   5.784   6.176  14.187  1.9536 -1.8390 -1.1061
14426TIP3    H264770   5.689   6.072  14.130  0.8246 -1.5754  0.2329
14427TIP3   OH264771   3.464   3.652   3.743  0.8983  0.4014 -0.2789
14427TIP3    H164772   3.457   3.557   3.757 -0.3963  0.4316 -0.6460
14427TIP3    H264773   3.374   3.684   3.747  1.4931  2.0065  2.2808
14428TIP3   OH264774   2.212   3.281   6.584 -0.5148  0.4107 -0.1296
14428TIP3    H164775   2.164   3.334   6.647 -2.2662 -0.2639 -0.8430
14428TIP3    H264776   2.198   3.326   6.500  0.2369  0.2775 -0.3324
14429TIP3   OH264777   4.746   3.056  12.025 -0.2100 -0.5289 -0.4329
14429TIP3    H164778   4.775   3.086  12.112 -2.1146 -1.2209  0.4989
14429TIP3    H264779   4.717   3.135  11.981  0.2341 -0.2417 -0.2204
14430TIP3   OH264780   0.954   0.949   1.402 -0.1152 -0.3644 -0.2595
14430TIP3    H164781   0.895   0.933   1.328  0.0681  0.7456 -0.6678
14430TIP3    H264782   0.901   0.998   1.465  0.0228 -0.4186 -0.1011
14431TIP3   OH264783   3.353   1.025  12.864  0.2161  0.0130  0.0017
14431TIP3    H164784   3.415   1.098  12.866  0.1224  0.0997 -0.1950
14431TIP3    H264785   3.353   0.991  12.953 -1.5031  1.7385  0.7326
14432TIP3   OH264786   0.901   4.008   1.293  0.1843  0.4373 -0.1909
14432TIP3    H164787   0.965   3.953   1.339 -0.4456  0.1057  0.3130
14432TIP3    H264788   0.824   3.953   1.286  0.0961  0.6756 -1.2006
14433TIP3   OH264789   2.713   5.563  10.944  0.1741 -0.3673  0.0538
14433TIP3    H164790   2.677   5.541  10.858 -1.7537  2.9715 -0.1626
14433TIP3    H264791   2.796   5.607  10.924  0.2128 -0.4805 -0.0386
14434TIP3   OH264792   2.064   5.862  11.100  0.1633 -0.9509  0.0625
14434TIP3    H164793   1.995   5.928  11.096 -0.4362 -1.5282  0.6471
14434TIP3    H264794   2.088   5.845  11.009 -0.2090 -0.4864 -0.1218
14435TIP3   OH264795   6.707   2.855  14.587 -0.0352  0.7351 -0.9367
14435TIP3    H164796   6.770   2.783  14.596 -2.1341 -0.9252  1.9145
14435TIP3    H264797   6.751   2.930  14.628 -0.3077 -0.7965  2.5323
14436TIP3   OH264798   4.093   2.285  11.530  0.2021 -0.2949 -0.3586
14436TIP3    H164799   4.022   2.248  11.478 -1.3649  0.0533  1.4348
14436TIP3    H264800   4.136   2.210  11.570 -0.1450 -0.4305 -0.2345
14437TIP3   OH264801   1.559   2.654  15.163  0.1883  0.1288 -0.2246
14437TIP3    H164802   1.614   2.580  15.137  0.0575  0.1824 -0.6560
14437TIP3    H264803   1.497   2.617  15.226  1.5588  0.3333  1.3358
14438TIP3   OH264804   0.538   2.065  11.301  0.2846  0.1585 -0.1243
14438TIP3    H164805   0.547   2.072  11.206  0.1291 -1.1499 -0.2562
14438TIP3    H264806   0.626   2.082  11.335  0.5900 -0.4711 -0.5846
14439TIP3   OH264807   5.605   4.060   2.370  0.3446  0.5137  0.3079
14439TIP3    H164808   5.513   4.047   2.391  0.6387  0.4447  1.7022
14439TIP3    H264809   5.645   3.974   2.380  0.4901  0.4518 -0.7396
14440TIP3   OH264810   2.247   4.175  10.742  0.4818 -0.3798 -0.4207
14440TIP3    H164811   2.225   4.101  10.798  1.7104 -0.7016 -0.3327
14440TIP3    H264812   2.163   4.216  10.722 -0.2429 -1.9267 -0.6611
14441TIP3   OH264813   3.691   5.168  14.031 -0.5672 -0.3568 -0.1670
14441TIP3    H164814   3.634   5.201  13.962 -0.9684  0.8111  0.6737
14441TIP3    H264815   3.775   5.212  14.016 -0.3361 -0.9254 -0.5358
14442TIP3   OH264816   4.590   1.655   5.309  0.2395  0.2263 -0.1064
14442TIP3    H164817   4.613   1.608   5.389 -0.3144  1.0400  0.5514
14442TIP3    H264818   4.656   1.628   5.246  0.9535 -0.0946  0.7501
14443TIP3   OH264819   5.923   6.318  16.751  0.3979  0.0348 -0.3117
14443TIP3    H164820   6.000   6.263  16.765  1.1594  0.3275 -2.7573
14443TIP3    H264821   5.916   6.371  16.831  1.5101 -1.3900  0.7821
14444TIP3   OH264822   1.032   2.243  14.036  0.4802 -0.1255  0.9489
14444TIP3    H164823   1.115   2.217  13.996 -0.1825  0.2652 -0.7405
14444TIP3    H264824   0.966   2.189  13.992 -0.2360 -0.0003  1.8473
14445TIP3   OH264825   3.468   2.667   0.543  0.0487 -0.1860 -0.1655
14445TIP3    H164826   3.519   2.716   0.606 -0.8103 -0.7647  1.0141
14445TIP3    H264827   3.493   2.576   0.556  0.1197 -0.2851 -0.9150
14446TIP3   OH264828   0.709   6.067   1.348 -0.5830  0.1112  0.0892
14446TIP3    H164829   0.745   6.118   1.420  3.0733 -1.4176 -0.4428
14446TIP3    H264830   0.655   6.129   1.299 -0.4605  2.0400  2.2274
14447TIP3   OH264831   4.093   2.113  13.922 -0.3303 -0.7167  0.9844
14447TIP3    H164832   4.177   2.076  13.952  0.9480  1.0706 -0.1796
14447TIP3    H264833   4.118   2.183  13.862 -2.7182 -1.0232 -0.4871
14448TIP3   OH264834   5.190   2.630  11.913  0.4530 -0.0919 -0.5225
14448TIP3    H164835   5.163   2.600  12.000  0.2002  0.7438 -0.3074
14448TIP3    H264836   5.108   2.633  11.863 -0.1637  3.3703  0.4015
14449TIP3   OH264837   2.872   1.664  16.559  0.3586 -0.2822 -0.3030
14449TIP3    H164838   2.899   1.624  16.641  1.3086 -0.8989 -0.8915
14449TIP3    H264839   2.914   1.610  16.491 -1.2141 -0.4157 -1.2371
14450TIP3   OH264840   1.289   5.229   5.375  0.1436  0.3990  0.5527
14450TIP3    H164841   1.344   5.157   5.405  0.6957 -0.3593 -1.9966
14450TIP3    H264842   1.351   5.299   5.353 -0.2324  0.9421  1.2114
14451TIP3   OH264843   5.906   1.547  16.900 -0.3881  0.3889 -0.5047
14451TIP3    H164844   5.878   1.506  16.982 -0.7240 -0.0338 -0.8271
14451TIP3    H264845   5.869   1.635  16.904  1.0626  0.9848  0.5841
14452TIP3   OH264846   1.438   1.277   3.359 -0.2923  0.0149  0.1764
14452TIP3    H164847   1.430   1.251   3.267  0.0912  1.7388 -0.3822
14452TIP3    H264848   1.531   1.290   3.373 -0.5476  2.5258 -0.0573
14453TIP3   OH264849   0.056   1.061  14.028  0.3368  0.0307 -0.7431
14453TIP3    H164850   0.101   1.025  14.105 -0.0923  0.2422 -0.3873
14453TIP3    H264851   0.106   1.028  13.954  2.0280  1.4848 -0.3327
14454TIP3   OH264852   3.526   3.783   2.168 -0.6877  0.7393  0.5611
14454TIP3    H164853   3.581   3.820   2.099 -1.1388  0.7527  0.2047
14454TIP3    H264854   3.483   3.859   2.208 -1.3244  0.6370  0.0784
14455TIP3   OH264855   4.183   4.471   2.527 -0.0965 -0.3316  0.2217
14455TIP3    H164856   4.094   4.457   2.493 -0.6049 -0.1443  1.4369
14455TIP3    H264857   4.222   4.384   2.526 -0.9939 -0.7743  1.5597
14456TIP3   OH264858   5.678   4.233   4.311 -0.1829 -0.0225 -0.3662
14456TIP3    H164859   5.672   4.152   4.259  1.2235 -0.3415 -0.0806
14456TIP3    H264860   5.644   4.208   4.397  0.4450 -0.4027 -0.2124
14457TIP3   OH264861   6.709   0.480   3.738 -0.0038  0.0400 -0.0272
14457TIP3    H164862   6.650   0.406   3.724  0.7971 -0.7340  0.6246
14457TIP3    H264863   6.796   0.447   3.715  0.2868  0.9537 -0.2794
14458TIP3   OH264864   2.194   2.586   1.282 -0.8769  0.0621  0.4361
14458TIP3    H164865   2.196   2.612   1.190  2.3691 -1.1450  0.0168
14458TIP3    H264866   2.166   2.665   1.328 -0.8857  1.2368 -1.4511
14459TIP3   OH264867   4.044   5.295   3.475  0.1247 -0.1415 -0.4209
14459TIP3    H164868   4.058   5.208   3.438  1.5434 -0.3280  0.5035
14459TIP3    H264869   4.086   5.292   3.560  1.3576  1.8443 -0.9010
14460TIP3   OH264870   2.976   6.761  14.065 -0.7409 -0.5989  0.1166
14460TIP3    H164871   3.013   6.845  14.093 -1.3547  0.0629 -1.0132
14460TIP3    H264872   2.953   6.717  14.147 -0.5691  0.4058  0.7207
14461TIP3   OH264873   6.685   5.899  11.192 -0.2053  0.3174 -0.2815
14461TIP3    H164874   6.716   5.964  11.130  2.6011 -1.1826 -0.5850
14461TIP3    H264875   6.689   5.943  11.277  1.1409  0.7312 -0.5417
14462TIP3   OH264876   1.006   6.328   3.710 -0.9181 -0.4089  0.1735
14462TIP3    H164877   1.010   6.274   3.789 -0.4372 -0.2658  0.2517
14462TIP3    H264878   1.094   6.363   3.701 -1.3463  0.7725  0.4157
14463TIP3   OH264879   2.522   4.765   5.093 -0.1577 -0.5136  0.0504
14463TIP3    H164880   2.563   4.848   5.117  2.5374 -1.3369 -1.2814
14463TIP3    H264881   2.448   4.790   5.038  1.5483  1.0615 -1.6995
14464TIP3   OH264882   1.651   3.918  16.426  0.2727 -0.3253 -0.5969
14464TIP3    H164883   1.717   3.878  16.483  1.0412  0.5759 -0.8361
14464TIP3    H264884   1.570   3.873  16.449  0.2983  0.8404  2.0701
14465TIP3   OH264885   4.602   3.500   0.155 -0.0972 -0.6303 -0.7461
14465TIP3    H164886   4.590   3.595   0.154 -1.3247 -0.7724 -0.3843
14465TIP3    H264887   4.667   3.484   0.086 -0.1189  0.4284 -1.0387
14466TIP3   OH264888   0.148   3.423  14.128 -0.1101 -0.2835  0.6442
14466TIP3    H164889   0.087   3.384  14.066 -0.5240  1.0896  0.1410
14466TIP3    H264890   0.193   3.491  14.078  1.1051 -0.5829  1.2862
14467TIP3   OH264891   6.239   0.355  13.872  0.0684 -0.3658  0.4075
14467TIP3    H164892   6.193   0.271  13.878  0.3402 -0.5766 -0.3657
14467TIP3    H264893   6.257   0.378  13.963 -0.2834 -0.9956  0.6463
14468TIP3   OH264894   0.437   2.903  12.443  0.3504  0.5494 -0.2997
14468TIP3    H164895   0.414   2.881  12.533  2.4966  0.2365  0.2181
14468TIP3    H264896   0.369   2.862  12.390  1.2697 -2.8675  0.9373
14469TIP3   OH264897   3.572   4.989   2.877 -0.0160 -0.0151 -0.5606
14469TIP3    H164898   3.532   4.942   2.804 -1.8808  1.1331 -0.3506
14469TIP3    H264899   3.663   5.003   2.850 -0.1503 -1.3018 -1.7937
14470TIP3   OH264900   5.938   4.850   4.847 -0.7934 -0.2453  0.0145
14470TIP3    H164901   6.000   4.886   4.783 -0.4019  1.1547  1.1309
14470TIP3    H264902   5.852   4.865   4.809 -0.5192 -1.2169 -1.0554
14471TIP3   OH264903   4.150   4.695   0.359  0.3687  0.3785 -0.0125
14471TIP3    H164904   4.172   4.785   0.335  1.3759  0.1433 -0.0019
14471TIP3    H264905   4.159   4.646   0.277 -0.6589  0.3558 -0.1292
14472TIP3   OH264906   2.052   5.523   2.148 -1.2816  0.7044 -0.1071
14472TIP3    H164907   2.130   5.469   2.137 -2.1907 -1.1968  2.0361
14472TIP3    H264908   2.085   5.609   2.174  0.1597  1.0012 -2.5732
14473TIP3   OH264909   3.912   4.196   0.411 -0.2419 -0.3563 -0.0209
14473TIP3    H164910   3.863   4.173   0.332  0.1216  2.1287 -1.0776
14473TIP3    H264911   4.000   4.214   0.380 -0.3471  1.7129  0.6945
14474TIP3   OH264912   6.253   4.419   1.608 -0.4316  0.1254 -0.2293
14474TIP3    H164913   6.184   4.356   1.627  0.4955 -0.5772  0.9791
14474TIP3    H264914   6.322   4.367   1.566  0.0095  0.4881  0.0372
14475TIP3   OH264915   1.718   2.721   2.141 -0.0961  0.4165 -0.5139
14475TIP3    H164916   1.759   2.669   2.210  1.0166 -0.5956 -1.8728
14475TIP3    H264917   1.677   2.657   2.083 -0.8785  1.2287 -0.8720
14476TIP3   OH264918   1.863   4.052  11.958 -0.3174  0.5732  0.2278
14476TIP3    H164919   1.801   4.115  11.921 -1.3201 -1.8888 -2.7730
14476TIP3    H264920   1.810   3.976  11.980  1.3152 -0.8625 -0.5076
14477TIP3   OH264921   5.872   5.429  17.097 -0.2671  1.2483 -0.1410
14477TIP3    H164922   5.816   5.409  17.022  0.9808 -2.4601 -0.3031
14477TIP3    H264923   5.837   5.375  17.168  2.2305 -0.2867  0.0525
14478TIP3   OH264924   5.051   4.617  14.806  0.0473  0.0530 -0.0599
14478TIP3    H164925   5.075   4.617  14.899 -0.3034 -1.1922  0.0529
14478TIP3    H264926   5.066   4.527  14.778 -1.5579 -0.0374 -0.7385
14479TIP3   OH264927   5.969   2.216  13.989 -0.2003  0.1882 -0.0066
14479TIP3    H164928   6.007   2.149  14.047  1.0573  1.0220  0.1802
14479TIP3    H264929   6.043   2.273  13.968 -0.8890  0.5559 -1.5324
14480TIP3   OH264930   4.561   3.758  16.632 -0.1255 -0.0120  1.0697
14480TIP3    H164931   4.554   3.663  16.642  0.6461 -0.0183  1.5902
14480TIP3    H264932   4.471   3.787  16.616 -0.3105 -0.8741  0.4793
14481TIP3   OH264933   4.027   2.711  11.637  0.3866  0.2084 -0.0933
14481TIP3    H164934   4.088   2.784  11.647 -1.2791  1.6109  0.1662
14481TIP3    H264935   3.941   2.751  11.636 -0.6685 -1.8710  1.2050
14482TIP3   OH264936   3.501   3.318   3.994 -0.3480 -0.4891  0.0753
14482TIP3    H164937   3.481   3.335   4.086  0.9643 -0.2653  0.3457
14482TIP3    H264938   3.597   3.315   3.991 -0.3849 -0.9016 -1.2145
14483TIP3   OH264939   6.749   1.473  14.146 -0.6304  0.0007 -0.0892
14483TIP3    H164940   6.827   1.459  14.200  0.5347  1.2473 -1.3602
14483TIP3    H264941   6.766   1.556  14.101 -1.9577 -0.5195 -1.6497
14484TIP3   OH264942   5.578   1.067  14.996  0.2880 -0.3848  0.5660
14484TIP3    H164943   5.673   1.075  14.987  0.2349 -1.4048 -1.4510
14484TIP3    H264944   5.542   1.114  14.921 -0.9749  2.2070  2.6465
14485TIP3   OH264945   2.284   2.062  11.807 -0.1979 -0.2893 -0.1057
14485TIP3    H164946   2.241   2.140  11.772 -0.6310 -0.5898 -0.2488
14485TIP3    H264947   2.371   2.092  11.831 -0.1222  0.0819 -0.8113
14486TIP3   OH264948   1.220   3.673  16.617 -0.0027 -0.0918 -0.0256
14486TIP3    H164949   1.170   3.612  16.671  0.6943 -0.7569 -0.1089
14486TIP3    H264950   1.311   3.643  16.626  0.3578  0.9685 -0.0331
14487TIP3   OH264951   2.634   4.933  13.755 -0.1544 -0.3870  0.1858
14487TIP3    H164952   2.593   4.970  13.677 -0.5732 -2.9807 -0.9329
14487TIP3    H264953   2.586   4.973  13.828 -1.6769  0.0089 -0.9710
14488TIP3   OH264954   3.120   3.763   6.137  0.7443  0.0209 -0.0393
14488TIP3    H164955   3.185   3.776   6.206  1.0699 -1.9324  0.0878
14488TIP3    H264956   3.039   3.741   6.185  1.1102 -1.9186 -0.2122
14489TIP3   OH264957   4.571   6.757  16.119  0.5385  0.0825  0.1665
14489TIP3    H164958   4.563   6.842  16.075  0.8359  0.8241  1.4890
14489TIP3    H264959   4.581   6.694  16.048 -0.5256  1.0456 -0.8907
14490TIP3   OH264960   6.742   4.395   0.889 -0.1886  0.0847  0.2191
14490TIP3    H164961   6.838   4.396   0.879  0.2003 -1.5402  2.7568
14490TIP3    H264962   6.717   4.305   0.868 -1.3098  0.7056 -1.2333
14491TIP3   OH264963   5.767   6.778   2.860 -0.1127 -0.1233 -0.5806
14491TIP3    H164964   5.770   6.803   2.768 -0.5676  1.1246 -0.2772
14491TIP3    H264965   5.844   6.819   2.899  0.5969 -1.4222 -0.5643
14492TIP3   OH264966   0.598   2.597  11.478 -0.2238  0.3645  0.1193
14492TIP3    H164967   0.613   2.608  11.572 -1.1009 -0.0511  0.3169
14492TIP3    H264968   0.579   2.686  11.446 -1.8261  0.2721  0.7020
14493TIP3   OH264969   6.190   4.022  14.514 -0.2917 -0.2395  0.7832
14493TIP3    H164970   6.120   3.971  14.473  0.7543  0.7202 -2.4163
14493TIP3    H264971   6.165   4.113  14.501  0.9447  0.1019  0.6962
14494TIP3   OH264972   3.019   1.257  13.206  0.7077  0.1196 -0.1022
14494TIP3    H164973   3.011   1.352  13.204 -2.4134 -0.0532 -1.3640
14494TIP3    H264974   3.017   1.231  13.114 -0.0698 -1.2310  0.2666
14495TIP3   OH264975   2.451   3.006   5.819  0.0087 -0.3250 -0.2083
14495TIP3    H164976   2.375   3.065   5.812  1.3935  1.4160 -1.8507
14495TIP3    H264977   2.471   3.003   5.912 -1.1436  0.4451  0.0901
14496TIP3   OH264978   4.964   2.625  12.760  0.2235 -0.1433  0.0468
14496TIP3    H164979   4.951   2.687  12.832 -0.1529  0.3117 -0.3989
14496TIP3    H264980   5.051   2.589  12.775  0.6453  0.8510  0.0618
14497TIP3   OH264981   5.499   6.515   4.767 -0.0685  0.1140 -0.4939
14497TIP3    H164982   5.579   6.568   4.766  0.8120 -1.1593 -1.3364
14497TIP3    H264983   5.455   6.536   4.685  0.5849 -0.8691 -1.1103
14498TIP3   OH264984   2.375   4.945   0.380 -0.2993 -0.1815  0.1145
14498TIP3    H164985   2.387   4.971   0.289 -0.8252  1.0625  0.3873
14498TIP3    H264986   2.286   4.974   0.402  1.5312  4.6911  2.6240
14499TIP3   OH264987   1.323   5.507   4.884 -0.0679  0.0391  0.0273
14499TIP3    H164988   1.330   5.548   4.970 -2.4488 -0.1659  0.3805
14499TIP3    H264989   1.409   5.520   4.844  0.8019  0.9418  2.0632
14500TIP3   OH264990   3.509   2.711  12.326  0.4002 -0.1892 -0.1336
14500TIP3    H164991   3.589   2.746  12.286  0.5284  3.2031  2.5866
14500TIP3    H264992   3.539   2.666  12.405 -0.2740 -0.1748  0.1359
14501TIP3   OH264993   0.096   1.775   1.252 -0.4801 -0.3752  0.3977
14501TIP3    H164994   0.189   1.770   1.276 -0.2611 -1.0870 -0.5478
14501TIP3    H264995   0.052   1.718   1.315 -0.3823  0.5061  1.2889
14502TIP3   OH264996   4.548   0.572  10.735  0.2241  0.2400 -0.0711
14502TIP3    H164997   4.609   0.616  10.676  0.7786  1.1873  1.1595
14502TIP3    H264998   4.462   0.602  10.707  0.4528  0.4159 -0.6055
14503TIP3   OH264999   3.888   2.959   1.798 -0.3508  0.3943  0.2816
14503TIP3    H165000   3.867   2.866   1.810 -0.1505  0.1644 -1.0159
14503TIP3    H265001   3.826   3.005   1.855  0.1167 -0.5574  1.6016
14504TIP3   OH265002   3.647   3.512   5.388 -0.7142  0.6031  0.5329
14504TIP3    H165003   3.604   3.463   5.458  0.1006  0.3907  0.8936
14504TIP3    H265004   3.708   3.571   5.432 -0.6825  0.9537  0.0367
14505TIP3   OH265005   6.376   5.959  12.168  0.0545 -0.0817  0.2196
14505TIP3    H165006   6.401   6.033  12.222 -0.1756 -0.1352  0.4034
14505TIP3    H265007   6.374   5.993  12.079 -0.0164  0.1245  0.2996
14506TIP3   OH265008   2.583   5.404  11.903  0.2079 -0.0133  0.0761
14506TIP3    H165009   2.621   5.420  11.989  3.3145 -0.0416 -1.1288
14506TIP3    H265010   2.641   5.450  11.842 -1.4423 -0.5886 -2.0655
14507TIP3   OH265011   0.409   4.836   3.118 -0.2730  0.1185 -0.2856
14507TIP3    H165012   0.412   4.740   3.124  0.7440  0.1043 -0.7688
14507TIP3    H265013   0.474   4.858   3.051 -0.1399  1.1776  0.1694
14508TIP3   OH265014   0.072   3.416  12.343  0.6140  0.7269 -0.8638
14508TIP3    H165015   0.117   3.473  12.405 -0.6099  0.9740 -0.1780
14508TIP3    H265016   0.066   3.467  12.262  1.8290  0.5653 -1.0757
14509TIP3   OH265017   5.182   4.856   4.091 -0.6418 -0.0151  0.0315
14509TIP3    H165018   5.105   4.906   4.117 -1.0546 -0.7351  0.2306
14509TIP3    H265019   5.221   4.827   4.173 -0.2518  0.2013 -0.0747
14510TIP3   OH265020   2.338   5.525   5.232  0.3926 -0.2332  0.6332
14510TIP3    H165021   2.272   5.507   5.165  1.7794 -2.6405 -0.2099
14510TIP3    H265022   2.328   5.618   5.251 -1.3022  0.1120 -1.5498
14511TIP3   OH265023   1.096   3.361  16.254  0.3998 -0.0168 -0.3430
14511TIP3    H165024   1.044   3.354  16.174 -1.6762 -0.3772  0.9597
14511TIP3    H265025   1.092   3.454  16.276  0.1423 -0.0714 -0.1529
14512TIP3   OH265026   1.027   5.999  14.343  0.9205 -0.4539  0.2602
14512TIP3    H165027   0.997   5.962  14.260 -0.3248 -1.6941  1.2186
14512TIP3    H265028   1.121   6.011  14.331  0.5848  0.6486 -1.7632
14513TIP3   OH265029   1.513   3.821   3.811  0.0982  0.4036  0.1598
14513TIP3    H165030   1.458   3.898   3.796 -0.8590 -0.1698  0.5993
14513TIP3    H265031   1.582   3.851   3.870  0.1101  1.0775 -0.1931
14514TIP3   OH265032   4.373   3.414   2.953  0.3374  0.0714  0.2764
14514TIP3    H165033   4.314   3.404   3.028  0.1520  0.8547  0.2395
14514TIP3    H265034   4.444   3.351   2.970 -0.0478 -0.2390  0.7645
14515TIP3   OH265035   3.171   1.109  12.630  0.1814 -0.5141  0.6011
14515TIP3    H165036   3.248   1.163  12.648  1.1690 -1.1013 -1.5608
14515TIP3    H265037   3.199   1.020  12.648 -0.3204 -0.6467  0.7508
14516TIP3   OH265038   0.338   1.944  11.509  0.2940 -0.4675  0.3529
14516TIP3    H165039   0.350   1.888  11.432 -0.3462 -0.0741 -0.0429
14516TIP3    H265040   0.269   1.900  11.559 -1.6859  0.9515 -0.9626
14517TIP3   OH265041   3.172   6.366   6.120 -0.1183  0.1428  0.1495
14517TIP3    H165042   3.174   6.462   6.122 -0.4478  0.1621 -0.2193
14517TIP3    H265043   3.099   6.342   6.177 -0.8954  0.1697 -0.8115
14518TIP3   OH265044   0.236   0.186   1.273  0.1162  0.1967  0.3722
14518TIP3    H165045   0.239   0.096   1.239  0.8499 -0.4795  2.0978
14518TIP3    H265046   0.202   0.177   1.362 -1.2751  1.8384  0.0713
14519TIP3   OH265047   2.731   1.561   0.119  0.2044 -0.0689 -0.5947
14519TIP3    H165048   2.821   1.552   0.152  0.4519  0.4257 -1.1290
14519TIP3    H265049   2.736   1.533   0.028 -0.0194  0.7113 -0.8495
14520TIP3   OH265050   5.277   5.332  11.765  0.2604 -0.1732  0.2428
14520TIP3    H165051   5.272   5.261  11.828 -0.0367  1.0316  1.6497
14520TIP3    H265052   5.305   5.408  11.817  3.1537  0.2186 -1.6492
14521TIP3   OH265053   4.576   1.493  15.902  0.3286 -0.1814 -0.5184
14521TIP3    H165054   4.495   1.441  15.909 -0.6893  1.4524  0.6960
14521TIP3    H265055   4.557   1.556  15.833  0.7996 -0.1773 -0.6441
14522TIP3   OH265056   4.030   4.782  12.878  0.1101  0.2563 -0.5387
14522TIP3    H165057   4.097   4.829  12.927  1.2454 -0.9492 -0.8601
14522TIP3    H265058   3.967   4.849  12.852  0.2140  1.1364  1.3276
14523TIP3   OH265059   3.359   4.565  13.522 -0.0398 -0.0136 -0.1083
14523TIP3    H165060   3.342   4.560  13.428  2.1185 -0.2132 -0.5386
14523TIP3    H265061   3.272   4.567  13.562 -1.0062 -0.3337 -2.0728
14524TIP3   OH265062   3.249   0.764  15.519  0.7505 -0.3199  0.0976
14524TIP3    H165063   3.324   0.762  15.460  0.1894  0.7900 -0.6755
14524TIP3    H265064   3.236   0.856  15.539 -2.5973  0.0061 -2.6988
14525TIP3   OH265065   2.947   0.529  13.679 -0.7315  0.6843 -0.0812
14525TIP3    H165066   3.034   0.491  13.667 -1.4696 -0.5310 -2.1797
14525TIP3    H265067   2.927   0.569  13.594 -2.3331  0.7008  0.2800
14526TIP3   OH265068   2.985   4.731   3.459  0.0996  0.9171 -0.3754
14526TIP3    H165069   3.026   4.816   3.479 -1.7341  1.7195  0.2078
14526TIP3    H265070   3.039   4.695   3.388  2.5469  1.2796  1.1542
14527TIP3   OH265071   6.014   0.792  16.414 -0.1023 -0.0006  0.4886
14527TIP3    H165072   6.060   0.733  16.473 -1.4718 -1.1583  0.4692
14527TIP3    H265073   5.970   0.734  16.352  0.0484  1.1306 -0.7292
14528TIP3   OH265074   2.355   3.998  14.880 -0.3544 -0.7178 -0.5626
14528TIP3    H165075   2.403   4.011  14.799 -0.5245 -2.0157 -0.9083
14528TIP3    H265076   2.270   4.039  14.865 -0.3828 -0.9474 -1.0415
14529TIP3   OH265077   1.172   6.474  14.956  0.0721 -0.0588  0.2360
14529TIP3    H165078   1.098   6.440  15.006  0.1382 -0.2061  0.2316
14529TIP3    H265079   1.248   6.458  15.011  0.0593  0.4192  0.3996
14530TIP3   OH265080   0.803   4.089   4.380 -0.5439 -0.3300  0.2568
14530TIP3    H165081   0.795   4.169   4.430  0.8358  0.2983 -0.4576
14530TIP3    H265082   0.833   4.024   4.443  1.2888  0.4754  0.2758
14531TIP3   OH265083   0.515   6.675   2.211 -0.2437 -0.0609 -0.9237
14531TIP3    H165084   0.573   6.617   2.162 -1.0971 -2.4741  0.7259
14531TIP3    H265085   0.429   6.633   2.207 -0.4505 -0.1909  2.1443
14532TIP3   OH265086   3.035   4.889   5.091 -0.1955  0.3771 -0.3290
14532TIP3    H165087   2.981   4.851   5.022 -0.6537  0.0458  0.2076
14532TIP3    H265088   3.063   4.974   5.056 -0.8208  0.4231 -0.7225
14533TIP3   OH265089   4.997   0.478   1.376 -0.5824  0.2262  1.0977
14533TIP3    H165090   4.998   0.383   1.386 -0.5472  0.2806  1.6652
14533TIP3    H265091   4.911   0.505   1.406 -0.7438  0.3373  0.5403
14534TIP3   OH265092   4.780   2.046  15.228 -0.1818 -0.1923 -0.1516
14534TIP3    H165093   4.720   2.080  15.295 -0.9423 -0.2603 -0.7823
14534TIP3    H265094   4.732   1.972  15.189 -0.0669  0.3102 -1.2695
14535TIP3   OH265095   6.086   3.116  16.670 -0.0005  0.1223 -1.0090
14535TIP3    H165096   6.056   3.029  16.644  0.2941  0.3172 -2.0315
14535TIP3    H265097   6.009   3.157  16.710 -0.1860 -0.5449 -0.6785
14536TIP3   OH265098   0.344   4.091   5.684  0.4071  0.3717  0.3780
14536TIP3    H165099   0.365   4.003   5.653 -0.3592  0.6347 -0.9523
14536TIP3    H265100   0.392   4.099   5.766  1.8154 -0.6964 -0.2911
14537TIP3   OH265101   5.370   3.947   2.471 -0.3148  0.1028 -0.6312
14537TIP3    H165102   5.377   3.966   2.564  2.0243  1.2980 -0.9747
14537TIP3    H265103   5.393   3.854   2.464 -0.2223  0.0755 -0.0255
14538TIP3   OH265104   6.521   3.975  14.217 -0.3824  0.4330  0.2877
14538TIP3    H165105   6.582   3.997  14.288 -0.4277 -0.0325  0.4762
14538TIP3    H265106   6.466   3.905  14.253 -0.0519 -0.1908 -0.3822
14539TIP3   OH265107   5.509   0.515   1.478 -0.1376  0.0907 -1.0876
14539TIP3    H165108   5.535   0.592   1.529  1.2384  0.9207 -2.9514
14539TIP3    H265109   5.506   0.545   1.388 -0.1625 -1.9185 -1.8080
14540TIP3   OH265110   5.029   2.903   2.784  0.0824 -0.3642 -0.0975
14540TIP3    H165111   4.976   2.832   2.747 -1.2198 -0.2948  1.4913
14540TIP3    H265112   5.007   2.903   2.877  0.0843  2.0696 -0.0331
14541TIP3   OH265113   3.415   1.841   2.392 -0.0772 -0.7596 -0.1275
14541TIP3    H165114   3.376   1.828   2.305  0.4784 -0.7822 -0.3814
14541TIP3    H265115   3.509   1.833   2.377  0.2381  1.8128 -0.0250
14542TIP3   OH265116   1.987   1.084  12.189  0.2789  0.6789  0.5585
14542TIP3    H165117   1.953   0.999  12.219 -0.6653 -0.0971 -2.3741
14542TIP3    H265118   2.082   1.076  12.197  0.2879 -1.1721 -0.7478
14543TIP3   OH265119   4.035   2.149   2.447  0.3621  0.0420  0.0513
14543TIP3    H165120   4.106   2.202   2.485 -0.8744  2.4117 -0.7262
14543TIP3    H265121   3.961   2.162   2.508 -0.6181  1.0992 -1.2999
14544TIP3   OH265122   0.246   5.298   1.057  0.1469 -0.0301  0.3081
14544TIP3    H165123   0.165   5.348   1.059  0.4135  0.4521 -0.5077
14544TIP3    H265124   0.270   5.294   0.964  1.5220  0.6311  0.6064
14545TIP3   OH265125   3.980   6.554  10.378  0.1553 -0.3058 -0.0008
14545TIP3    H165126   4.032   6.486  10.335 -0.0899 -0.9515  0.7171
14545TIP3    H265127   4.045   6.613  10.416  0.3655 -0.8399  0.4709
14546TIP3   OH265128   2.841   0.650   2.202  0.3076  0.0871  0.4410
14546TIP3    H165129   2.809   0.573   2.155 -1.2529  1.1125 -0.2708
14546TIP3    H265130   2.838   0.625   2.294 -1.7513 -0.2031  0.3450
14547TIP3   OH265131   3.671   4.601  11.955  0.1769 -0.1204  0.2678
14547TIP3    H165132   3.758   4.628  11.923  0.8799 -1.4146  1.0108
14547TIP3    H265133   3.637   4.544  11.886 -0.3682  0.8705 -0.3026
14548TIP3   OH265134   2.527   0.279  11.075 -0.1139  0.4777 -0.5195
14548TIP3    H165135   2.517   0.374  11.065  1.7523  0.7824  0.1288
14548TIP3    H265136   2.566   0.269  11.162 -1.8785 -1.0334  0.1664
14549TIP3   OH265137   6.129   4.931  13.325  0.3672  0.5427  0.7373
14549TIP3    H165138   6.146   4.936  13.419 -0.4711 -0.7306  0.9831
14549TIP3    H265139   6.170   5.010  13.289  0.7316  1.0347  2.1577
14550TIP3   OH265140   0.712   5.899  17.034 -0.3445 -0.0574  0.2018
14550TIP3    H165141   0.749   5.827  17.086  0.6056 -0.4145 -0.9102
14550TIP3    H265142   0.648   5.857  16.976 -1.6913  0.3942  1.3145
14551TIP3   OH265143   4.764   0.291   0.839  0.1068 -0.1997  0.2006
14551TIP3    H165144   4.704   0.302   0.766 -0.9260 -1.1327  0.8693
14551TIP3    H265145   4.782   0.380   0.870 -1.8596  0.0610  0.6987
14552TIP3   OH265146   2.055   1.504  12.586 -0.3115  0.1101  0.0489
14552TIP3    H165147   2.075   1.596  12.567  1.0935 -0.1110  0.3300
14552TIP3    H265148   2.135   1.457  12.561 -1.2326 -1.1205 -0.6916
14553TIP3   OH265149   0.315   0.248  12.644 -0.8892 -0.1194 -0.2607
14553TIP3    H165150   0.323   0.158  12.614 -0.6999 -0.0838 -0.3156
14553TIP3    H265151   0.387   0.260  12.706 -1.2852 -0.1971  0.2201
14554TIP3   OH265152   5.457   4.340   4.127 -0.7756 -0.3201 -0.0984
14554TIP3    H165153   5.534   4.397   4.125 -0.7559 -0.3547 -0.3406
14554TIP3    H265154   5.440   4.326   4.220 -0.6561 -0.0864 -0.0404
14555TIP3   OH265155   2.399   6.046   0.682  0.2441  0.1608  0.4812
14555TIP3    H165156   2.440   6.117   0.730  0.5369 -2.0351  3.8256
14555TIP3    H265157   2.472   5.998   0.642  0.1244  1.0864 -0.9109
14556TIP3   OH265158   1.041   4.498   5.201 -0.5528  0.1459 -0.2669
14556TIP3    H165159   0.958   4.537   5.173  0.4432  2.3396 -0.4127
14556TIP3    H265160   1.048   4.418   5.150 -1.0370  1.6195 -2.8239
14557TIP3   OH265161   1.547   6.413  11.767 -0.0013 -0.3198  0.4718
14557TIP3    H165162   1.490   6.416  11.843 -1.4574 -1.6963 -0.5069
14557TIP3    H265163   1.516   6.484  11.710  0.2749 -0.0899  0.6034
14558TIP3   OH265164   2.040   0.543   2.373 -0.4757 -0.5636 -0.0005
14558TIP3    H165165   2.031   0.529   2.468  1.0712 -0.7506  0.1530
14558TIP3    H265166   2.102   0.616   2.365 -2.3402  0.9921 -0.8827
14559TIP3   OH265167   1.191   5.223   6.631 -0.8934 -0.0043  0.0834
14559TIP3    H165168   1.168   5.144   6.582  1.1041 -1.6666  1.6782
14559TIP3    H265169   1.269   5.257   6.587 -0.9620  0.3158  0.2065
14560TIP3   OH265170   6.179   5.639  16.468 -0.1921  0.9605 -0.4008
14560TIP3    H165171   6.188   5.699  16.543 -0.7213  0.5603 -0.0048
14560TIP3    H265172   6.088   5.649  16.441 -0.6422 -0.5162  0.4263
14561TIP3   OH265173   4.933   2.345   0.659  0.2835  0.2442  0.0093
14561TIP3    H165174   5.009   2.400   0.678 -0.9304  1.6899  0.9133
14561TIP3    H265175   4.935   2.334   0.564  1.8490 -0.1373  0.0505
14562TIP3   OH265176   2.346   0.703   0.464  0.1173 -0.0442  0.1088
14562TIP3    H165177   2.404   0.641   0.420  1.8934  0.6898  1.2747
14562TIP3    H265178   2.331   0.665   0.550 -0.0705  0.3742  0.2646
14563TIP3   OH265179   3.483   5.348  13.520 -0.2255 -0.1929 -0.1733
14563TIP3    H165180   3.391   5.370  13.537  0.0822  0.2190  1.1099
14563TIP3    H265181   3.492   5.258  13.549  0.2986  0.5096  2.0709
14564TIP3   OH265182   6.359   6.110   3.071 -0.2930 -0.2434 -1.1765
14564TIP3    H165183   6.361   6.109   2.976  2.0025 -0.5834 -1.1839
14564TIP3    H265184   6.420   6.041   3.098  1.5737  1.8788  0.4563
14565TIP3   OH265185   3.699   4.231   5.316 -0.5677  0.1078  0.8137
14565TIP3    H165186   3.703   4.136   5.309 -2.8019  0.0629 -0.7887
14565TIP3    H265187   3.606   4.251   5.329 -0.1364  2.0706  1.3218
14566TIP3   OH265188   4.637   6.302  13.740  0.1001 -0.0147 -0.5855
14566TIP3    H165189   4.695   6.245  13.791 -1.6578 -3.1066 -1.7404
14566TIP3    H265190   4.591   6.354  13.805 -0.5568 -2.3294  0.9371
14567TIP3   OH265191   6.344   1.522   3.486  0.3940 -0.1916  0.0173
14567TIP3    H165192   6.388   1.440   3.466 -1.3284 -1.3671  0.8037
14567TIP3    H265193   6.284   1.536   3.413 -0.7491 -0.7300  0.8169
14568TIP3   OH265194   6.604   5.531   5.932  0.6841  0.2091  0.2504
14568TIP3    H165195   6.636   5.449   5.895 -0.5677 -0.3600  0.3624
14568TIP3    H265196   6.539   5.561   5.869 -0.6019 -0.1515  1.3495
14569TIP3   OH265197   6.328   5.594  13.717  0.2996 -0.4407  0.2107
14569TIP3    H165198   6.364   5.677  13.685 -1.6925  0.8159  1.0707
14569TIP3    H265199   6.254   5.575  13.659 -0.2969 -0.7316  1.0459
14570TIP3   OH265200   2.598   1.028   3.487 -0.2138  0.0951 -0.4129
14570TIP3    H165201   2.526   1.088   3.468 -3.1826 -3.0488  0.0615
14570TIP3    H265202   2.641   1.066   3.564 -1.6061  1.8679 -0.4531
14571TIP3   OH265203   0.239   6.489   1.305 -0.1185  0.2137  0.1385
14571TIP3    H165204   0.178   6.445   1.364  1.4004  0.6294  2.1423
14571TIP3    H265205   0.323   6.486   1.350  0.5966  2.8716 -0.7935
14572TIP3   OH265206   3.030   6.133  14.004 -0.0255  0.2458 -0.1726
14572TIP3    H165207   3.092   6.125  13.931 -0.6992  0.2218 -0.7443
14572TIP3    H265208   3.060   6.068  14.068 -0.0949 -0.5134 -0.9007
14573TIP3   OH265209   0.182   2.683   5.678 -0.3863  0.2742  1.0844
14573TIP3    H165210   0.094   2.659   5.706  0.6633 -3.7250  1.4799
14573TIP3    H265211   0.224   2.600   5.655  3.4250  1.9263  1.3041
14574TIP3   OH265212   3.757   1.327  13.103  0.1805  0.8214 -0.0120
14574TIP3    H165213   3.751   1.423  13.109 -1.2219  0.7406  0.1728
14574TIP3    H265214   3.764   1.298  13.194  0.8323  0.7508 -0.0811
14575TIP3   OH265215   2.901   3.930  11.824  0.5734 -0.2074  0.6172
14575TIP3    H165216   2.940   3.975  11.749  2.0986 -1.8115  0.3629
14575TIP3    H265217   2.960   3.949  11.897  1.2535 -1.6718  0.5059
14576TIP3   OH265218   0.309   5.750  16.612 -0.0931  0.0700  0.2416
14576TIP3    H165219   0.343   5.665  16.582  3.0775  1.2884  0.0677
14576TIP3    H265220   0.346   5.813  16.550 -0.4719  1.8254  1.7474
14577TIP3   OH265221   1.567   0.409  12.146  0.3795  0.1252 -0.8445
14577TIP3    H165222   1.501   0.340  12.154  0.6637 -0.1861 -1.1431
14577TIP3    H265223   1.516   0.491  12.145  0.1250  0.0371  1.0359
14578TIP3   OH265224   1.160   2.992   0.392 -0.0866  0.2994 -0.2176
14578TIP3    H165225   1.205   2.913   0.360  1.1973  0.7458  0.4133
14578TIP3    H265226   1.153   3.048   0.315 -0.1655 -0.0425 -0.4643
14579TIP3   OH265227   0.077   6.521  16.487 -0.2142 -0.4217 -0.2503
14579TIP3    H165228   0.017   6.559  16.551  1.7606 -0.3137  1.6238
14579TIP3    H265229   0.160   6.567  16.501  0.1426  0.1589 -3.4379
14580TIP3   OH265230   2.437   3.910  16.620 -0.0529 -0.1397 -0.1190
14580TIP3    H165231   2.400   3.858  16.548  0.1834 -2.0167  1.0351
14580TIP3    H265232   2.519   3.945  16.584  0.8680 -2.3378 -0.3770
14581TIP3   OH265233   1.322   4.705   4.340 -0.2693  0.4791  0.3013
14581TIP3    H165234   1.306   4.633   4.279 -0.2284 -0.2525  1.1249
14581TIP3    H265235   1.405   4.681   4.383  0.3119  1.5635 -0.1734
14582TIP3   OH265236   2.332   5.184   2.385  0.2360 -0.0198 -0.1249
14582TIP3    H165237   2.241   5.162   2.367  0.0961  1.4822 -1.5563
14582TIP3    H265238   2.328   5.270   2.428  0.9831  0.9273 -1.8128
14583TIP3   OH265239   6.720   6.504  13.024  0.1467 -0.0459 -0.0878
14583TIP3    H165240   6.699   6.422  13.070 -0.6619  1.2209  1.9199
14583TIP3    H265241   6.672   6.571  13.072  0.4883  1.5915 -1.9165
14584TIP3   OH265242   2.862   4.352   3.133  0.1285 -0.1683  0.3135
14584TIP3    H165243   2.879   4.428   3.078 -0.0419 -1.0446 -0.9965
14584TIP3    H265244   2.902   4.278   3.086 -0.2484 -0.9866  1.2315
14585TIP3   OH265245   1.969   5.900  11.375 -0.2693  0.1769  0.1821
14585TIP3    H165246   1.969   5.880  11.282  0.1449  0.3568  0.1390
14585TIP3    H265247   1.903   5.842  11.413 -0.9736  0.6310 -0.3281
14586TIP3   OH265248   4.256   1.841   4.472  0.2294  0.5218 -0.0688
14586TIP3    H165249   4.227   1.826   4.562 -2.1810 -0.8165 -0.9731
14586TIP3    H265250   4.178   1.873   4.427  0.9909 -0.1745 -1.9913
14587TIP3   OH265251   4.587   4.680  13.216  0.1750  0.7798  0.0780
14587TIP3    H165252   4.549   4.702  13.301  2.0447 -0.4063  1.3001
14587TIP3    H265253   4.595   4.764  13.171 -1.8629  1.3072  0.5903
14588TIP3   OH265254   6.104   2.387  12.018 -0.4366 -0.3350 -0.2726
14588TIP3    H165255   6.123   2.337  11.938 -2.6308  1.1453 -1.8297
14588TIP3    H265256   6.012   2.368  12.036 -1.4976  3.3039 -1.1504
14589TIP3   OH265257   6.380   2.708  12.288  0.2629  0.1768 -0.0118
14589TIP3    H165258   6.286   2.709  12.270  0.2795  0.3282 -0.0933
14589TIP3    H265259   6.398   2.793  12.328  0.4188  0.2703 -0.2731
14590TIP3   OH265260   2.353   3.834  15.104  0.5651  0.0298 -0.1177
14590TIP3    H165261   2.364   3.897  15.033 -0.1717 -0.8897 -1.0514
14590TIP3    H265262   2.365   3.749  15.064 -0.9197 -0.5693  0.6325
14591TIP3   OH265263   6.362   6.078  13.794  0.1391 -0.0466 -0.2049
14591TIP3    H165264   6.388   6.073  13.886  1.9300  0.7467 -0.6320
14591TIP3    H265265   6.367   5.988  13.763 -2.2804 -0.6426  0.8781
14592TIP3   OH265266   2.501   5.111   2.642  0.5365 -0.0843  0.4154
14592TIP3    H165267   2.489   5.042   2.577 -1.3897 -0.8698  1.5400
14592TIP3    H265268   2.412   5.138   2.666  1.2095  2.6135  0.2349
14593TIP3   OH265269   1.017   1.973  12.365 -0.5123 -0.4547  0.0126
14593TIP3    H165270   1.088   2.010  12.311 -0.7760  2.2060  1.3237
14593TIP3    H265271   1.061   1.911  12.423  0.4901 -0.0962 -0.3315
14594TIP3   OH265272   5.187   2.132   4.261 -0.1089  0.0251 -0.2100
14594TIP3    H165273   5.186   2.189   4.338  2.8443  0.5734 -0.4621
14594TIP3    H265274   5.104   2.084   4.265 -0.6969  1.1076  2.4680
14595TIP3   OH265275   1.012   3.546   1.183  0.2833 -0.1453 -0.3512
14595TIP3    H165276   1.073   3.480   1.151 -0.1444 -0.7077 -0.0293
14595TIP3    H265277   0.966   3.503   1.255 -0.0833  0.4654 -0.2155
14596TIP3   OH265278   6.786   6.733   0.733  0.2154  0.4626 -0.0774
14596TIP3    H165279   6.864   6.684   0.707  0.6654  1.0949  0.0626
14596TIP3    H265280   6.726   6.666   0.767  0.6133 -0.0505 -0.3765
14597TIP3   OH265281   0.970   1.482  13.489  0.0386 -0.0259  0.1854
14597TIP3    H165282   0.975   1.405  13.546 -2.0073 -1.0068 -0.8665
14597TIP3    H265283   0.883   1.477  13.449  0.4969  1.9383 -1.2084
14598TIP3   OH265284   2.675   4.998  11.220 -0.2739 -0.6607 -0.3839
14598TIP3    H165285   2.679   4.989  11.125  0.9810 -0.3469 -0.3876
14598TIP3    H265286   2.597   5.051  11.236  0.6540  1.1305 -1.4079
14599TIP3   OH265287   2.323   2.526   0.581 -0.0499  0.4669  0.2698
14599TIP3    H165288   2.368   2.583   0.519 -1.9597  0.7857 -0.9275
14599TIP3    H265289   2.389   2.502   0.645  2.0714  0.0039 -1.9491
14600TIP3   OH265290   1.922   5.101  16.300  0.0436  0.2362 -0.2843
14600TIP3    H165291   1.945   5.177  16.354 -0.8338  0.6598 -0.5046
14600TIP3    H265292   1.874   5.137  16.226 -0.1689 -0.5111 -0.5207
14601TIP3   OH265293   0.639   3.021  15.695 -0.5632  0.1178 -0.1018
14601TIP3    H165294   0.693   2.947  15.667  1.2406  1.5299 -0.5442
14601TIP3    H265295   0.649   3.023  15.790 -1.8221 -1.0466  0.0899
14602TIP3   OH265296   4.897   4.724  16.945 -0.2589  0.0944 -0.0683
14602TIP3    H165297   4.916   4.813  16.973  2.7287 -0.0846 -1.1737
14602TIP3    H265298   4.983   4.681  16.942 -1.5517 -2.7485  0.1258
14603TIP3   OH265299   2.908   5.083  14.260  0.6145  0.0811 -0.1044
14603TIP3    H165300   2.916   5.170  14.221  0.7246 -0.9137 -2.4851
14603TIP3    H265301   2.817   5.077  14.286  0.6090  0.9060  0.1004
14604TIP3   OH265302   3.924   1.074  15.561 -0.4993  0.2808 -0.5330
14604TIP3    H165303   3.947   0.987  15.530  2.9468  0.3620  1.2523
14604TIP3    H265304   3.864   1.058  15.634  1.6469 -0.8847  1.1077
14605TIP3   OH265305   0.219   2.822   0.857 -0.3161  0.3278  0.0001
14605TIP3    H165306   0.270   2.881   0.803 -0.0981 -0.9677 -1.2741
14605TIP3    H265307   0.264   2.821   0.942  0.8384  0.4323 -0.5996
14606TIP3   OH265308   4.781   1.834  14.921  0.0082  0.4277  0.5210
14606TIP3    H165309   4.861   1.872  14.957  0.0347 -0.2387  1.1819
14606TIP3    H265310   4.798   1.829  14.827  0.4494  0.9825  0.5655
14607TIP3   OH265311   2.727   3.907   2.193 -0.4736  0.0032  0.2007
14607TIP3    H165312   2.767   3.907   2.106 -0.7249  2.4241  0.0120
14607TIP3    H265313   2.641   3.946   2.179 -0.1458  1.3339  1.6361
14608TIP3   OH265314   0.635   5.056   6.067  0.2093  0.1040  0.2201
14608TIP3    H165315   0.659   4.963   6.069 -0.0204  0.0409  1.8958
14608TIP3    H265316   0.550   5.059   6.111  0.4102  1.1465  0.5528
14609TIP3   OH265317   3.637   2.918  16.202  0.5204 -0.8690 -0.4168
14609TIP3    H165318   3.612   2.892  16.290  1.0765 -0.4226 -0.1221
14609TIP3    H265319   3.620   3.012  16.198 -1.4175 -1.2225 -1.4523
14610TIP3   OH265320   3.422   3.761   2.980 -0.1625 -0.0071 -0.2543
14610TIP3    H165321   3.456   3.796   2.898  0.5789  1.3071  0.5730
14610TIP3    H265322   3.328   3.753   2.967  0.1483 -1.6441 -1.8602
14611TIP3   OH265323   6.514   0.592  15.680  0.1238 -0.3570  0.0891
14611TIP3    H165324   6.573   0.648  15.732  0.5941 -0.3249 -0.4712
14611TIP3    H265325   6.501   0.641  15.599  0.0914 -0.8071 -0.1743
14612TIP3   OH265326   2.929   0.775   1.182 -0.4381  0.0246  0.2072
14612TIP3    H165327   2.915   0.702   1.241 -0.8894  0.1103  0.2051
14612TIP3    H265328   2.921   0.738   1.094  0.5446 -0.1679  0.1845
14613TIP3   OH265329   5.840   3.746  11.010 -0.0952  0.4244  0.1819
14613TIP3    H165330   5.778   3.706  10.949 -0.6093  1.7310 -0.1784
14613TIP3    H265331   5.892   3.805  10.956  1.0552 -0.1755  0.5988
14614TIP3   OH265332   3.653   2.514   5.627 -0.0301 -0.2479  0.1886
14614TIP3    H165333   3.603   2.534   5.548 -1.1117 -3.5506 -0.1105
14614TIP3    H265334   3.590   2.470   5.684  1.6631 -1.3981  1.2421
14615TIP3   OH265335   5.296   2.423   3.727  0.7047 -0.6453 -0.3669
14615TIP3    H165336   5.349   2.448   3.652 -0.7888 -2.3668 -2.1074
14615TIP3    H265337   5.315   2.330   3.741  0.3948 -0.5374  0.9196
14616TIP3   OH265338   4.378   4.080   1.604  0.1601 -0.7792 -0.1898
14616TIP3    H165339   4.445   4.048   1.665  0.8317 -0.3280 -0.6852
14616TIP3    H265340   4.341   4.157   1.647 -0.6157 -1.4880  0.4505
14617TIP3   OH265341   3.475   3.602  14.581 -0.0932  0.0748 -0.2264
14617TIP3    H165342   3.446   3.530  14.637  1.3797 -0.6919 -0.3750
14617TIP3    H265343   3.464   3.569  14.491 -1.6265  0.9656 -0.3993
14618TIP3   OH265344   4.439   1.006  14.673 -0.0354 -0.2876 -0.2350
14618TIP3    H165345   4.463   0.977  14.761  0.4265 -0.5507 -0.4386
14618TIP3    H265346   4.396   0.930  14.634 -0.5781 -0.0450 -0.1084
14619TIP3   OH265347   3.515   0.859   2.453 -0.2810  0.0623 -0.1568
14619TIP3    H165348   3.569   0.884   2.529 -0.2954  0.4863 -0.2803
14619TIP3    H265349   3.425   0.866   2.484 -0.2692 -0.9764  0.1501
14620TIP3   OH265350   4.339   6.585  11.811  0.2083 -0.3276  0.4501
14620TIP3    H165351   4.366   6.675  11.793  2.0868 -0.8767  0.2367
14620TIP3    H265352   4.377   6.566  11.897 -0.7615 -0.7100  0.8015
14621TIP3   OH265353   4.306   2.255   5.458  0.1170 -0.5437  0.3355
14621TIP3    H165354   4.363   2.315   5.409 -0.1039 -0.2916  0.3844
14621TIP3    H265355   4.367   2.201   5.509  0.4231 -1.7384 -1.2365
14622TIP3   OH265356   0.254   0.680  16.232  0.2213  0.1641 -0.2300
14622TIP3    H165357   0.242   0.733  16.153  1.3966 -0.0397 -0.5697
14622TIP3    H265358   0.313   0.731  16.287 -1.3458  0.7457  0.9808
14623TIP3   OH265359   6.588   3.759   2.411 -0.6966 -0.2137 -0.1299
14623TIP3    H165360   6.639   3.706   2.472 -1.4390 -1.4343 -0.5397
14623TIP3    H265361   6.561   3.698   2.342  0.4602  1.2169 -1.9422
14624TIP3   OH265362   3.060   4.561  13.231 -0.1900  0.5143 -0.1801
14624TIP3    H165363   2.978   4.603  13.256 -1.6710 -1.9035 -0.6064
14624TIP3    H265364   3.064   4.573  13.136 -0.5639 -0.1557 -0.2889
14625TIP3   OH265365   4.698   2.689   3.054  0.2959  0.2655  0.0947
14625TIP3    H165366   4.632   2.651   3.112  0.4182 -0.6679 -0.3662
14625TIP3    H265367   4.751   2.745   3.111 -0.1097  0.0218  0.7134
14626TIP3   OH265368   0.857   1.320   5.656 -0.0230 -0.1212 -0.4890
14626TIP3    H165369   0.912   1.373   5.712  0.7608  0.2206 -1.5501
14626TIP3    H265370   0.809   1.262   5.716  1.9657 -0.9045  0.4285
14627TIP3   OH265371   5.068   4.567  15.074 -0.3491  0.0043  0.6149
14627TIP3    H165372   5.124   4.494  15.098  0.2471  0.3313  0.2421
14627TIP3    H265373   5.041   4.606  15.157 -1.0844 -0.9397  0.8297
14628TIP3   OH265374   3.715   3.567  13.503 -0.1251 -0.3373  0.6500
14628TIP3    H165375   3.784   3.513  13.464 -1.1712 -1.0693 -0.2657
14628TIP3    H265376   3.638   3.509  13.506 -1.0389  0.8194  0.4725
14629TIP3   OH265377   4.222   4.091  16.823 -0.0365  0.4511  0.0336
14629TIP3    H165378   4.177   4.112  16.742 -3.3441  2.1978  2.0971
14629TIP3    H265379   4.272   4.170  16.844  1.1628 -0.1555 -0.4562
14630TIP3   OH265380   1.926   4.216   2.455 -0.3305  0.2611  0.5261
14630TIP3    H165381   2.015   4.245   2.436 -0.3305  0.1399  0.3392
14630TIP3    H265382   1.936   4.130   2.495 -0.3370  0.4692  0.9812
14631TIP3   OH265383   5.158   1.063   4.361  0.1143  0.4037 -0.3294
14631TIP3    H165384   5.147   1.157   4.376  0.7941  0.5431 -0.6936
14631TIP3    H265385   5.069   1.028   4.364 -0.2817  1.2647 -1.5305
14632TIP3   OH265386   2.412   5.098  15.489  0.1377 -0.7679 -0.8389
14632TIP3    H165387   2.396   5.068  15.400 -0.6000 -0.6223 -0.7547
14632TIP3    H265388   2.339   5.156  15.509  1.3766  0.8751 -0.8910
14633TIP3   OH265389   2.702   6.208   1.722 -0.5185 -0.2032  0.7747
14633TIP3    H165390   2.650   6.129   1.709 -1.1619  0.4337 -0.7851
14633TIP3    H265391   2.644   6.268   1.770 -0.3393 -0.3650  1.1962
14634TIP3   OH265392   1.558   1.000   3.521 -0.0890  0.2519  0.4361
14634TIP3    H165393   1.474   1.023   3.480 -0.3070 -1.0249  0.1075
14634TIP3    H265394   1.601   1.084   3.537 -2.8955  1.2897  3.8699
14635TIP3   OH265395   4.245   2.198   6.318  0.6424  0.2929  0.5922
14635TIP3    H165396   4.167   2.249   6.340  0.7816  0.6519  0.2677
14635TIP3    H265397   4.311   2.263   6.294  1.0583 -0.0043  0.9015
14636TIP3   OH265398   2.986   2.316  15.762 -0.7806 -0.2139  0.2189
14636TIP3    H165399   3.067   2.347  15.722 -1.1356  0.1863 -0.1922
14636TIP3    H265400   2.921   2.382  15.740 -1.3051 -0.7165  0.2313
14637TIP3   OH265401   6.377   0.500   4.015 -0.1162 -0.6721 -0.3285
14637TIP3    H165402   6.401   0.445   4.090 -0.0692  0.8365  0.8019
14637TIP3    H265403   6.450   0.489   3.953  0.1820 -1.3913  0.1415
14638TIP3   OH265404   4.792   2.149   0.779  0.2371  0.5897  0.3133
14638TIP3    H165405   4.809   2.231   0.733 -0.6877 -0.0711 -1.2765
14638TIP3    H265406   4.869   2.095   0.762 -0.2563  0.2169 -0.7991
14639TIP3   OH265407   2.325   5.135  10.898 -0.4147 -0.3400 -0.2303
14639TIP3    H165408   2.341   5.087  10.817 -0.3035  0.4997 -0.7162
14639TIP3    H265409   2.413   5.161  10.928 -0.4652 -0.5289  0.0874
14640TIP3   OH265410   0.941   2.055  13.679  0.0044 -0.0605 -0.2925
14640TIP3    H165411   0.970   2.033  13.591  1.7354  1.9933 -0.3036
14640TIP3    H265412   0.928   1.970  13.722 -0.0551 -1.0770 -2.2283
14641TIP3   OH265413   0.701   5.293   4.144 -0.1486 -0.3445  0.4292
14641TIP3    H165414   0.680   5.380   4.178 -1.0796 -0.8932  1.3301
14641TIP3    H265415   0.791   5.277   4.172  0.1980  0.4962 -0.1461
14642TIP3   OH265416   0.785   1.691   0.849  0.3820 -0.2340 -0.2077
14642TIP3    H165417   0.862   1.727   0.893  0.5760 -0.9637  0.0562
14642TIP3    H265418   0.820   1.624   0.791 -0.0584 -0.5830 -0.0736
14643TIP3   OH265419   6.070   1.699  17.123 -0.3537 -0.4434 -0.0959
14643TIP3    H165420   6.080   1.606  17.144  0.9510 -0.7546 -1.8538
14643TIP3    H265421   6.080   1.703  17.028  0.9000  1.6237  0.0536
14644TIP3   OH265422   6.377   3.829   5.564 -0.4277 -0.0777 -0.4854
14644TIP3    H165423   6.423   3.861   5.642 -2.0542  1.2551 -0.0010
14644TIP3    H265424   6.394   3.735   5.562  1.4541  0.2122  0.2069
14645TIP3   OH265425   2.014   6.616   4.469  0.8515  0.6059  0.2926
14645TIP3    H165426   2.077   6.682   4.442 -0.0118  0.7823 -1.4333
14645TIP3    H265427   2.041   6.537   4.423  0.2829  0.4798  0.1679
14646TIP3   OH265428   2.430   5.981   1.001  0.4486 -0.2107 -0.0601
14646TIP3    H165429   2.519   5.997   0.970 -0.4029  3.5877 -0.9946
14646TIP3    H265430   2.419   6.042   1.075 -1.3799 -0.5694  0.0095
14647TIP3   OH265431   3.078   5.257  11.270 -0.3327 -0.2377  0.1295
14647TIP3    H165432   3.028   5.317  11.214  3.0243  0.0028 -2.9673
14647TIP3    H265433   3.032   5.174  11.262 -0.6407  0.0867 -2.1462
14648TIP3   OH265434   6.574   5.732   0.571  0.0477 -0.0670  0.1229
14648TIP3    H165435   6.493   5.774   0.602 -0.7489 -1.8008  0.4778
14648TIP3    H265436   6.544   5.658   0.519  1.4284 -0.5782  0.0303
14649TIP3   OH265437   6.386   6.019   1.478  0.6365  0.1127  0.1138
14649TIP3    H165438   6.384   5.929   1.445 -0.5643  0.6560 -1.4802
14649TIP3    H265439   6.347   6.070   1.407 -0.1944  1.6776  1.6230
14650TIP3   OH265440   2.204   2.576  14.872 -0.2646  0.4538  0.0970
14650TIP3    H165441   2.293   2.552  14.898 -0.1648  0.7526  0.0311
14650TIP3    H265442   2.212   2.665  14.837 -0.2970 -0.1796 -1.5647
14651TIP3   OH265443   3.268   0.517  13.139  0.4935 -0.1411 -0.7671
14651TIP3    H165444   3.254   0.438  13.087 -0.0419 -0.0871 -0.7134
14651TIP3    H265445   3.307   0.580  13.078  0.7216 -0.3744 -0.8640
14652TIP3   OH265446   5.727   5.541   2.178  0.0627  0.8047  0.9614
14652TIP3    H165447   5.743   5.521   2.270  0.2405  1.1327  1.0019
14652TIP3    H265448   5.633   5.526   2.167  0.0724  0.5992  1.1536
14653TIP3   OH265449   5.855   2.421   0.340  0.3721  0.2210  0.0835
14653TIP3    H165450   5.806   2.496   0.308  2.1189  0.3955 -2.5035
14653TIP3    H265451   5.821   2.347   0.291 -0.1117 -0.4102  1.3223
14654TIP3   OH265452   1.827   2.851  12.996 -0.3541  0.3017  0.0704
14654TIP3    H165453   1.767   2.838  12.922 -0.0671  0.4312 -0.1873
14654TIP3    H265454   1.886   2.921  12.967 -0.4582  0.5971  0.5572
14655TIP3   OH265455   2.193   4.712   3.752 -0.0697  0.0294  0.5077
14655TIP3    H165456   2.153   4.797   3.768  1.6562  0.6264  1.9448
14655TIP3    H265457   2.277   4.732   3.709  0.2487 -0.9480  0.6393
14656TIP3   OH265458   3.842   5.227   2.943 -0.6921 -0.3880 -0.0501
14656TIP3    H165459   3.859   5.160   3.008  0.5592  0.3179  0.3846
14656TIP3    H265460   3.750   5.251   2.956 -1.0108 -1.6576  0.1026
14657TIP3   OH265461   4.435   3.341  14.807 -0.0587  0.2065 -0.5434
14657TIP3    H165462   4.359   3.302  14.851 -1.7343  3.1514 -0.5836
14657TIP3    H265463   4.453   3.421  14.855  0.1510  1.8576 -3.1542
14658TIP3   OH265464   4.615   2.602  17.264  0.5429  0.2112  0.0232
14658TIP3    H165465   4.592   2.621  17.354 -0.8007  0.5556 -0.3757
14658TIP3    H265466   4.702   2.563  17.269  1.2792  1.8963  1.2976
14659TIP3   OH265467   1.082   0.534   0.636  0.3026  0.1078  0.4454
14659TIP3    H165468   1.013   0.468   0.628  0.6737 -0.2344 -0.0785
14659TIP3    H265469   1.122   0.517   0.721  0.9827 -0.9558 -0.0532
14660TIP3   OH265470   2.377   6.037   5.767 -0.0081  0.5401 -0.1811
14660TIP3    H165471   2.290   6.008   5.742 -0.0520 -0.0266  0.6067
14660TIP3    H265472   2.365   6.079   5.853  0.1325  2.4726 -1.0380
14661TIP3   OH265473   0.977   5.678   5.039 -0.2510 -0.0585  0.2300
14661TIP3    H165474   0.925   5.737   5.094 -0.0948  2.0492 -1.7560
14661TIP3    H265475   0.916   5.609   5.013 -1.4047  1.0487 -0.0686
14662TIP3   OH265476   5.003   6.121   3.993 -0.2103  0.1386  0.1161
14662TIP3    H165477   5.040   6.116   3.905 -0.2403  0.2075  0.0995
14662TIP3    H265478   5.023   6.036   4.033  1.9386  0.9554  0.8934
14663TIP3   OH265479   4.607   1.844   0.464  0.4404  0.2224 -0.2412
14663TIP3    H165480   4.702   1.854   0.470  0.4365 -0.5641  1.9419
14663TIP3    H265481   4.578   1.833   0.554 -1.7860  0.7564 -0.8311
14664TIP3   OH265482   6.427   4.817   5.125 -0.2609 -0.6302 -0.1200
14664TIP3    H165483   6.468   4.790   5.043 -0.3723 -1.6882  0.1535
14664TIP3    H265484   6.426   4.738   5.179 -1.6625 -0.3700  0.2912
14665TIP3   OH265485   0.946   3.106   5.651  0.0211 -0.0169 -0.4603
14665TIP3    H165486   0.861   3.063   5.649 -0.3655  0.5140  1.8657
14665TIP3    H265487   0.967   3.114   5.744  1.5644  1.8888 -0.9002
14666TIP3   OH265488   6.279   0.458   0.231 -0.1664 -0.0136 -0.3786
14666TIP3    H165489   6.188   0.469   0.206 -0.0020  2.2034 -0.1928
14666TIP3    H265490   6.305   0.543   0.269  2.0715 -0.4317 -0.7941
14667TIP3   OH265491   6.723   5.455   3.062 -0.3547 -0.0386 -0.2561
14667TIP3    H165492   6.739   5.395   3.135 -1.4160 -0.5672 -0.4499
14667TIP3    H265493   6.809   5.465   3.020  0.4824  1.0134  1.5937
14668TIP3   OH265494   3.554   2.952  13.529 -0.0444  0.4180  0.6641
14668TIP3    H165495   3.473   2.986  13.490  0.3183  1.1604  0.5337
14668TIP3    H265496   3.562   2.863  13.496 -0.2945  0.6806 -0.1087
14669TIP3   OH265497   5.072   1.500  12.352 -0.2858  0.1584  0.1911
14669TIP3    H165498   5.124   1.557  12.295 -0.3812 -1.2119 -1.3505
14669TIP3    H265499   4.991   1.485  12.304 -1.0989  0.2763  1.4651
14670TIP3   OH265500   1.974   1.840   0.021 -0.0945 -0.4401 -0.2935
14670TIP3    H165501   2.003   1.765   0.074 -0.5468 -0.0151  0.5772
14670TIP3    H265502   1.986   1.811  -0.070  0.9111 -1.1031  0.0314
14671TIP3   OH265503   3.918   6.585  11.945 -0.0495 -0.1528 -0.1052
14671TIP3    H165504   4.001   6.558  11.906  1.5679  0.7480  2.4268
14671TIP3    H265505   3.893   6.513  12.002 -1.4910 -0.7508 -1.4268
14672TIP3   OH265506   6.484   6.041  15.959  0.0016  0.0366  0.1130
14672TIP3    H165507   6.482   5.997  15.874  1.2143 -0.2282  0.2089
14672TIP3    H265508   6.551   6.109  15.950  0.9847 -0.7625  1.2112
14673TIP3   OH265509   4.841   2.663   5.083 -0.4095 -0.1939 -0.0298
14673TIP3    H165510   4.857   2.713   5.003 -0.3584 -0.3204 -0.0983
14673TIP3    H265511   4.746   2.671   5.097 -0.0931  2.0199  1.3388
14674TIP3   OH265512   2.310   1.841   3.977  0.0504 -0.0551  0.0558
14674TIP3    H165513   2.235   1.897   3.997 -0.5874 -0.6699 -0.5475
14674TIP3    H265514   2.386   1.890   4.010 -0.4822  1.1583 -0.4540
14675TIP3   OH265515   0.329   2.725  15.311 -0.2230  0.0641  0.3151
14675TIP3    H165516   0.350   2.632  15.305  0.4550  0.2487 -0.3519
14675TIP3    H265517   0.340   2.746  15.404  2.0983  0.0047  0.1327
14676TIP3   OH265518   4.343   2.730  11.779 -0.0788  0.0982 -0.2369
14676TIP3    H165519   4.348   2.800  11.844  0.1024  0.0569 -0.2057
14676TIP3    H265520   4.358   2.774  11.696 -1.4592  0.3449 -0.3784
14677TIP3   OH265521   4.945   0.829  14.366 -0.5991 -1.0207 -0.0885
14677TIP3    H165522   5.008   0.827  14.294  1.7510  2.2897  1.6049
14677TIP3    H265523   4.986   0.777  14.435  0.0928  0.6078  0.7888
14678TIP3   OH265524   0.033   0.971   1.288 -0.8569 -0.6159  0.0663
14678TIP3    H165525  -0.012   0.897   1.329  1.5500 -2.4792 -0.4398
14678TIP3    H265526   0.090   1.006   1.357  1.2097 -2.0727 -0.7755
14679TIP3   OH265527   5.045   2.824   6.492  0.0008  0.5928 -0.2672
14679TIP3    H165528   5.137   2.805   6.476  0.1944  0.9461  0.3749
14679TIP3    H265529   4.997   2.756   6.445  0.5957  0.3011 -0.4507
14680TIP3   OH265530   1.610   2.791  15.985  0.8436  0.0490  0.4578
14680TIP3    H165531   1.698   2.817  15.958 -0.0972  1.9213 -1.0444
14680TIP3    H265532   1.609   2.805  16.080  1.0367  3.8730  0.0342
14681TIP3   OH265533   2.800   2.665   4.335 -0.3708 -0.6257  0.2565
14681TIP3    H165534   2.717   2.677   4.381  0.2105  1.5840  0.8492
14681TIP3    H265535   2.865   2.709   4.390  0.6196  0.7022 -1.8572
14682TIP3   OH265536   4.452   0.354  14.139  0.1801  0.0424 -0.2973
14682TIP3    H165537   4.419   0.355  14.229  1.0244 -0.7896  0.0385
14682TIP3    H265538   4.425   0.439  14.102 -1.6445 -0.2863  0.1831
14683TIP3   OH265539   4.685   3.616  13.247 -0.6071 -0.2566 -0.2098
14683TIP3    H165540   4.678   3.531  13.290 -1.8498 -0.2037 -0.2726
14683TIP3    H265541   4.737   3.669  13.307 -1.2209 -0.5709  0.6179
14684TIP3   OH265542   4.964   3.178   2.754 -0.3447  0.1527 -0.1213
14684TIP3    H165543   4.874   3.206   2.737 -0.1532  0.3828 -0.7660
14684TIP3    H265544   4.960   3.082   2.749 -0.6245  0.1450  0.2140
14685TIP3   OH265545   6.056   1.405  14.645 -0.3183  0.3090 -0.2620
14685TIP3    H165546   5.993   1.374  14.710  0.7750  0.8021  1.0989
14685TIP3    H265547   6.065   1.499  14.664 -0.6248  0.6440 -1.7130
14686TIP3   OH265548   5.741   5.918  13.663 -0.1748 -0.7465  0.2853
14686TIP3    H165549   5.811   5.982  13.658 -0.8525  0.1909  1.9714
14686TIP3    H265550   5.673   5.951  13.604 -0.2838 -0.1979  0.7091
14687TIP3   OH265551   6.197   4.787  15.765 -0.1957  0.4139 -0.2693
14687TIP3    H165552   6.187   4.693  15.781 -3.2265  0.3802 -1.6838
14687TIP3    H265553   6.117   4.825  15.801  1.2113  2.5982  0.7585
14688TIP3   OH265554   3.738   4.172  15.068 -0.7212 -0.3667  0.3628
14688TIP3    H165555   3.826   4.201  15.044 -0.4000  0.0283  1.8901
14688TIP3    H265556   3.713   4.111  14.999  0.9717 -0.8794  0.1612
14689TIP3   OH265557   6.209   5.901  10.692 -0.1320  0.5434  0.1211
14689TIP3    H165558   6.148   5.852  10.637  0.0659 -0.6379  0.9099
14689TIP3    H265559   6.215   5.850  10.772  1.4884  0.9041  0.2670
14690TIP3   OH265560   0.712   0.963   2.852  0.5476  1.1351 -0.1173
14690TIP3    H165561   0.649   1.028   2.822  1.0257  1.7000  0.0794
14690TIP3    H265562   0.665   0.880   2.846 -0.6509  1.6705  1.1747
14691TIP3   OH265563   6.134   4.002  12.299  0.3213  0.0556  0.0349
14691TIP3    H165564   6.202   3.951  12.253  0.3673 -0.4817  0.6808
14691TIP3    H265565   6.166   4.007  12.389  0.1812  1.0106  0.0364
14692TIP3   OH265566   0.133   6.635   4.372  0.0817  0.2905  0.4392
14692TIP3    H165567   0.068   6.583   4.324  1.1839 -1.4518  0.7408
14692TIP3    H265568   0.123   6.608   4.463  1.0980  0.1064  0.5109
14693TIP3   OH265569   1.476   2.215   3.561  0.0289  0.4351  0.7631
14693TIP3    H165570   1.567   2.224   3.591  1.4829 -2.1841 -2.2281
14693TIP3    H265571   1.425   2.206   3.641  2.5968  0.6664  2.5451
14694TIP3   OH265572   0.439   0.572  15.109 -0.0912 -0.0373  0.0577
14694TIP3    H165573   0.499   0.537  15.174  0.5407 -0.4323 -0.7220
14694TIP3    H265574   0.490   0.639  15.063 -0.0899 -0.6858 -0.9074
14695TIP3   OH265575   2.561   5.866   6.071  0.2706  0.0825 -0.1802
14695TIP3    H165576   2.474   5.838   6.098 -0.7560  0.9537 -2.3235
14695TIP3    H265577   2.583   5.938   6.130 -0.4602 -0.1387  0.3758
14696TIP3   OH265578   2.302   2.263   5.291  0.6151  0.9690  0.3808
14696TIP3    H165579   2.227   2.310   5.254 -0.6392 -0.5739  0.8567
14696TIP3    H265580   2.300   2.285   5.384  0.3443  0.4297  0.5080
14697TIP3   OH265581   1.041   5.859   1.276 -0.4436 -0.2614  0.2081
14697TIP3    H165582   1.059   5.942   1.318  1.0505  1.0106 -2.6699
14697TIP3    H265583   0.966   5.877   1.219 -1.0072 -1.3064  0.5837
14698TIP3   OH265584   4.874   6.548   6.398  0.3201 -0.0988  0.2094
14698TIP3    H165585   4.809   6.580   6.460  0.0964 -0.6941  0.2898
14698TIP3    H265586   4.910   6.627   6.358 -0.3738  0.2404  0.2392
14699TIP3   OH265587   5.318   4.499   2.011  0.1080  0.0769  0.2632
14699TIP3    H165588   5.298   4.467   1.923 -1.9934  1.4178  0.1872
14699TIP3    H265589   5.414   4.496   2.017  0.3246  0.4523 -2.2536
14700TIP3   OH265590   2.359   5.511  16.495 -0.4415  0.1531  0.0426
14700TIP3    H165591   2.349   5.513  16.400 -0.2802 -1.7040 -0.0497
14700TIP3    H265592   2.406   5.592  16.516  1.0779 -0.2249 -1.6607
14701TIP3   OH265593   4.589   1.736   1.259  0.1604 -0.9787 -0.3000
14701TIP3    H165594   4.621   1.709   1.174  2.2103 -0.6324  0.3207
14701TIP3    H265595   4.496   1.713   1.258  0.2113 -1.2416 -2.4897
14702TIP3   OH265596   3.424   3.145   4.270 -0.1145  0.1447 -0.4537
14702TIP3    H165597   3.337   3.131   4.233 -0.6661 -1.2742  1.2562
14702TIP3    H265598   3.422   3.234   4.304 -0.3887  0.6261 -1.6537
14703TIP3   OH265599   0.046   4.736  10.736  0.1906  0.1620  0.2598
14703TIP3    H165600   0.084   4.802  10.677  1.2515 -1.1220 -0.5436
14703TIP3    H265601   0.109   4.730  10.808  0.3401 -0.3031  0.0918
14704TIP3   OH265602   2.287   1.914  17.210  0.1236 -0.0945  0.4228
14704TIP3    H165603   2.274   1.867  17.292 -0.1164  0.0121  0.4472
14704TIP3    H265604   2.321   1.999  17.237 -2.4241  0.9709  0.6361
14705TIP3   OH265605   2.186   6.068  15.253 -0.0874 -0.2217  0.2766
14705TIP3    H165606   2.149   6.155  15.239 -1.6113 -0.8730  0.0104
14705TIP3    H265607   2.280   6.080  15.246 -0.2078  1.5605  1.1552
14706TIP3   OH265608   2.574   4.390  17.192  0.2801  0.3550  0.8618
14706TIP3    H165609   2.529   4.407  17.275  1.3983  1.3387  1.3055
14706TIP3    H265610   2.560   4.470  17.141  0.3277  0.1000  0.4464
14707TIP3   OH265611   3.810   1.870   4.637 -0.0591  0.2135  0.2047
14707TIP3    H165612   3.772   1.936   4.695  0.3162  0.8312 -0.2418
14707TIP3    H265613   3.746   1.861   4.567 -0.2557 -0.1304  0.4258
14708TIP3   OH265614   1.490   1.477   2.193  0.1293  0.0241  0.1810
14708TIP3    H165615   1.410   1.528   2.185  0.0665 -0.1743 -0.5342
14708TIP3    H265616   1.547   1.530   2.249  0.4649  1.3916 -1.3953
14709TIP3   OH265617   3.258   1.637  15.906 -0.4971  0.1278  0.1362
14709TIP3    H165618   3.260   1.657  15.812  1.1281 -0.5620 -0.0137
14709TIP3    H265619   3.326   1.570  15.917 -0.4825  0.3898  1.8483
14710TIP3   OH265620   0.454   1.011   4.040 -0.3409  0.0330 -0.0732
14710TIP3    H165621   0.478   1.077   3.975  1.3252  0.1298  0.5892
14710TIP3    H265622   0.359   1.017   4.046 -0.3012  1.8605 -0.5932
14711TIP3   OH265623   3.450   2.560   4.047  0.2159 -0.0938 -0.7360
14711TIP3    H165624   3.492   2.636   4.087  1.8254 -1.2645 -0.1027
14711TIP3    H265625   3.356   2.579   4.055  0.5379  1.1908  0.6679
14712TIP3   OH265626   5.271   5.713   5.119  0.4936  0.1794 -0.4974
14712TIP3    H165627   5.337   5.676   5.061  0.8744 -0.0907  0.1027
14712TIP3    H265628   5.223   5.776   5.064 -0.3539 -1.3798 -1.6236
14713TIP3   OH265629   3.378   5.878   1.923 -0.1402 -0.6643 -0.0551
14713TIP3    H165630   3.389   5.818   1.850 -3.3686 -0.4133 -0.8564
14713TIP3    H265631   3.300   5.929   1.902  1.3589  2.5657  1.4721
14714TIP3   OH265632   2.242   6.100   6.034  0.0939 -0.0045 -0.3163
14714TIP3    H165633   2.151   6.127   6.018  0.3302  0.5793 -0.7189
14714TIP3    H265634   2.235   6.011   6.067 -0.6254  0.0166 -0.3922
14715TIP3   OH265635   6.067   0.304   6.334  0.3104 -0.3167 -0.2535
14715TIP3    H165636   6.104   0.383   6.373  0.0925  0.0003 -0.6897
14715TIP3    H265637   6.142   0.260   6.294  0.4281 -0.3205 -0.0295
14716TIP3   OH265638   0.753   3.279  15.045  0.0561  0.0975  0.2014
14716TIP3    H165639   0.789   3.328  15.119  0.5801 -0.6955  0.4812
14716TIP3    H265640   0.683   3.227  15.083 -1.6025  1.7876 -0.3755
14717TIP3   OH265641   2.697   4.420  15.539  0.1441  0.0700  0.0740
14717TIP3    H165642   2.730   4.332  15.524  1.7196  0.8378 -1.1300
14717TIP3    H265643   2.722   4.439  15.630  0.3981 -0.4614  0.1214
14718TIP3   OH265644   3.795   3.473   4.527  0.0523 -0.2237  0.2099
14718TIP3    H165645   3.754   3.393   4.493  0.5838 -0.5580  0.3528
14718TIP3    H265646   3.839   3.445   4.607 -1.3290  0.5846  1.3051
14719TIP3   OH265647   2.741   6.623   4.891  0.3918 -0.0395  0.0276
14719TIP3    H165648   2.823   6.636   4.939  1.2580  0.7163 -1.5596
14719TIP3    H265649   2.674   6.617   4.959  1.5970  0.6324  1.3312
14720TIP3   OH265650   2.324   5.625   2.785 -0.3017  0.1186 -0.2387
14720TIP3    H165651   2.385   5.572   2.836  0.3113  1.2691  0.2562
14720TIP3    H265652   2.363   5.631   2.698 -1.7610 -2.5544 -1.1822
14721TIP3   OH265653   6.754   6.733   6.221 -0.2381 -0.8122 -0.4936
14721TIP3    H165654   6.732   6.668   6.288 -0.0419 -0.6449 -0.2682
14721TIP3    H265655   6.670   6.762   6.186 -0.4033  0.0991  0.6201
14722TIP3   OH265656   4.065   0.962   4.443 -0.2193  0.2238 -0.4130
14722TIP3    H165657   4.152   0.997   4.463 -0.2643  0.3755 -0.4780
14722TIP3    H265658   4.082   0.883   4.392 -0.1288  0.8600 -1.4087
14723TIP3   OH265659   2.176   0.476  15.994  0.0675  0.1712  0.4523
14723TIP3    H165660   2.194   0.415  16.065 -0.2725 -1.7478 -1.0222
14723TIP3    H265661   2.082   0.466  15.977  0.0503  0.9515  0.0291
14724TIP3   OH265662   0.647   5.376  16.780  0.2823  0.0877  0.2915
14724TIP3    H165663   0.557   5.386  16.811  0.0065  1.6726 -0.8586
14724TIP3    H265664   0.682   5.465  16.780  1.1709 -0.2269 -1.1945
14725TIP3   OH265665   4.349   4.156  14.294  0.2401  0.1241 -0.0467
14725TIP3    H165666   4.259   4.189  14.301 -0.7730 -2.6492  2.7200
14725TIP3    H265667   4.395   4.197  14.368  0.3175 -0.7896  0.4345
14726TIP3   OH265668   6.581   4.487   3.480 -0.3525  0.2167 -0.2482
14726TIP3    H165669   6.529   4.464   3.402 -0.9775  1.5057 -0.2448
14726TIP3    H265670   6.649   4.545   3.446  1.0905 -1.4059 -0.2384
14727TIP3   OH265671   2.097   0.682   6.397 -0.0904 -0.3564  0.2882
14727TIP3    H165672   2.130   0.593   6.404  0.6685 -0.0313  1.0550
14727TIP3    H265673   2.139   0.718   6.319  0.4153 -0.3462  0.5595
14728TIP3   OH265674   3.629   2.508   1.331 -0.3261 -0.8380 -0.4885
14728TIP3    H165675   3.603   2.421   1.301 -1.5419 -0.3667 -0.8640
14728TIP3    H265676   3.621   2.503   1.427 -1.0064 -0.9557 -0.5471
14729TIP3   OH265677   5.637   1.445  12.473  0.1284  0.1899  0.4379
14729TIP3    H165678   5.617   1.513  12.537  1.2357  0.3334  0.6541
14729TIP3    H265679   5.606   1.480  12.390  0.5560  0.9120  0.5724
14730TIP3   OH265680   3.564   2.293  11.001  0.3071 -0.2404  0.0459
14730TIP3    H165681   3.619   2.235  11.053 -0.5877 -1.9372 -0.8141
14730TIP3    H265682   3.617   2.371  10.988  1.6139 -0.9101  1.1272
14731TIP3   OH265683   3.057   5.657  11.775  0.4035 -0.1357  0.5622
14731TIP3    H165684   3.016   5.600  11.710  0.1376 -0.3001  0.8655
14731TIP3    H265685   2.999   5.733  11.779  1.3725  0.7052 -0.6784
14732TIP3   OH265686   3.462   6.722  16.620  0.1274 -0.0712  0.0362
14732TIP3    H165687   3.445   6.690  16.532 -2.1404  1.9076 -0.3370
14732TIP3    H265688   3.549   6.763  16.614  0.0917 -0.1485 -1.2067
14733TIP3   OH265689   2.551   4.496   0.526  0.5866  0.0541  0.0885
14733TIP3    H165690   2.584   4.409   0.548  1.2166  0.3282  0.2490
14733TIP3    H265691   2.460   4.481   0.500  0.2114 -0.4479  1.6069
14734TIP3   OH265692   0.961   1.112  14.429  0.6374  0.3584 -0.1234
14734TIP3    H165693   0.910   1.035  14.455 -0.0040  0.7967 -0.0704
14734TIP3    H265694   0.919   1.143  14.349  1.9330 -0.3370 -1.0995
14735TIP3   OH265695   5.096   0.802  15.810 -0.3793 -0.0197  0.2837
14735TIP3    H165696   5.187   0.831  15.816  0.4998 -1.1909 -4.1189
14735TIP3    H265697   5.047   0.880  15.785 -0.4470  0.3279  1.4150
14736TIP3   OH265698   4.247   0.448   3.680 -0.0195  0.0661  0.0190
14736TIP3    H165699   4.226   0.362   3.716 -0.5874  0.0374 -0.3774
14736TIP3    H265700   4.217   0.445   3.590 -0.0918  0.6997  0.0133
14737TIP3   OH265701   1.162   1.025  15.989 -0.4926  0.2386 -0.0069
14737TIP3    H165702   1.139   1.028  15.896 -0.2500  0.0366 -0.0756
14737TIP3    H265703   1.079   1.008  16.034 -0.4358 -0.8687 -0.2804
14738TIP3   OH265704   3.885   1.098  11.019  0.1431 -0.1827  0.2506
14738TIP3    H165705   3.943   1.024  11.001  0.1169 -0.3618  0.8947
14738TIP3    H265706   3.911   1.165  10.956  0.4652 -0.5758 -0.0400
14739TIP3   OH265707   4.746   6.230   3.973  0.0047 -0.0299  0.1640
14739TIP3    H165708   4.821   6.172   3.959  1.5781  1.7476  0.7604
14739TIP3    H265709   4.783   6.318   3.968 -2.3972  1.0003 -1.3414
14740TIP3   OH265710   4.669   6.270  15.231 -0.0018 -0.0247 -0.7957
14740TIP3    H165711   4.604   6.205  15.259  1.0521 -1.4047 -1.4720
14740TIP3    H265712   4.663   6.271  15.136  1.6455 -0.9496 -0.9509
14741TIP3   OH265713   3.679   4.528  17.264  0.3001 -0.2026 -0.0302
14741TIP3    H165714   3.762   4.520  17.217 -0.7482 -0.0278 -2.0192
14741TIP3    H265715   3.621   4.573  17.203 -1.5220 -1.1090  0.9560
14742TIP3   OH265716   2.232   4.875   2.470 -0.7838  0.4114 -0.2398
14742TIP3    H165717   2.139   4.881   2.451 -0.6088  0.1764 -1.2175
14742TIP3    H265718   2.238   4.882   2.565 -1.8659 -0.5229 -0.0906
14743TIP3   OH265719   6.700   0.578  12.381 -0.2005 -0.2213 -0.5238
14743TIP3    H165720   6.773   0.519  12.362  1.0716  0.0667  2.7947
14743TIP3    H265721   6.726   0.662  12.342  0.8721 -0.3479 -0.1111
14744TIP3   OH265722   0.732   1.927   4.411  0.1383 -0.3280  0.4734
14744TIP3    H165723   0.826   1.940   4.413  0.2406 -0.9233 -0.3107
14744TIP3    H265724   0.716   1.851   4.466  0.0793 -0.0531  0.8417
14745TIP3   OH265725   0.123   5.515   1.572 -0.1915 -1.0647  0.4022
14745TIP3    H165726   0.135   5.466   1.654  1.5583  0.0444  0.8728
14745TIP3    H265727   0.126   5.449   1.504  1.1368 -1.7727  1.0888
14746TIP3   OH265728   3.272   0.833   2.571  0.2298 -0.0781 -0.4799
14746TIP3    H165729   3.222   0.751   2.573  1.9590 -1.1827  0.6332
14746TIP3    H265730   3.221   0.894   2.623 -0.5475 -0.7901 -0.3893
14747TIP3   OH265731   6.523   2.300  16.416  0.2055 -0.6528  0.0382
14747TIP3    H165732   6.589   2.328  16.353  1.2870 -2.1274  0.4450
14747TIP3    H265733   6.514   2.374  16.476  1.6765 -0.4856  0.0926
14748TIP3   OH265734   5.428   0.680   2.200  0.7792 -0.2470 -0.1709
14748TIP3    H165735   5.504   0.738   2.192  0.7640 -0.1457  0.3451
14748TIP3    H265736   5.454   0.617   2.267  1.1125 -1.3585 -1.3101
14749TIP3   OH265737   0.733   1.677  10.769 -0.1323  0.3845 -0.3627
14749TIP3    H165738   0.754   1.585  10.785 -0.7542  0.1203 -0.9940
14749TIP3    H265739   0.793   1.726  10.825 -1.2469 -0.4469  1.6693
14750TIP3   OH265740   5.863   2.748  15.407  0.6877  0.2571  0.5576
14750TIP3    H165741   5.869   2.814  15.476  0.2061  0.7388  0.1510
14750TIP3    H265742   5.797   2.686  15.440 -0.6044  1.2538 -0.0693
14751TIP3   OH265743   2.987   6.061  16.360 -0.3616  0.2109  0.2539
14751TIP3    H165744   3.080   6.040  16.374 -0.8464 -2.0402  0.4748
14751TIP3    H265745   2.976   6.060  16.265 -0.1488  0.6541  0.2195
14752TIP3   OH265746   0.182   5.907   5.985 -0.0987 -0.3646 -0.6927
14752TIP3    H165747   0.155   5.978   6.044 -0.4224 -0.7781 -0.3376
14752TIP3    H265748   0.174   5.828   6.038  1.7259 -0.5294 -0.6073
14753TIP3   OH265749   1.526   3.962  11.871 -0.0968 -0.1977  0.1498
14753TIP3    H165750   1.536   3.900  11.944  0.8867 -0.3946 -0.1360
14753TIP3    H265751   1.481   3.912  11.803  1.1742 -0.8152 -0.2875
14754TIP3   OH265752   2.384   4.170  12.252 -0.6249  0.5892  0.4527
14754TIP3    H165753   2.305   4.217  12.225 -1.2279  0.3129  1.6543
14754TIP3    H265754   2.365   4.078  12.234 -0.3186  0.5789  0.1637
14755TIP3   OH265755   0.315   5.693   0.527  0.3031  0.4810 -0.3589
14755TIP3    H165756   0.350   5.606   0.510 -2.2755 -0.7381  0.1926
14755TIP3    H265757   0.301   5.731   0.440 -2.7408 -1.5005 -0.8841
14756TIP3   OH265758   4.230   2.888  15.557 -0.4954 -0.2959 -0.5115
14756TIP3    H165759   4.142   2.908  15.526 -2.3894 -0.3515  4.0751
14756TIP3    H265760   4.276   2.972  15.555 -2.0308  0.6221  0.7253
14757TIP3   OH265761   2.961   0.969  11.745 -0.1303 -0.2995  0.0873
14757TIP3    H165762   2.935   0.938  11.658  0.2804 -0.4912  0.0261
14757TIP3    H265763   2.883   0.958  11.799  0.4774 -3.3741  0.5625
14758TIP3   OH265764   4.920   6.051  14.316 -0.6719 -0.6930 -0.3364
14758TIP3    H165765   4.879   5.988  14.376 -2.0466  0.8204  0.3966
14758TIP3    H265766   4.864   6.049  14.238 -1.4177  0.3932  0.1372
14759TIP3   OH265767   0.019   6.502   4.618 -0.5060 -0.1963  0.6013
14759TIP3    H165768  -0.020   6.419   4.590 -0.6196 -0.2343  0.8629
14759TIP3    H265769   0.021   6.495   4.714 -2.0812  0.7988  0.7349
14760TIP3   OH265770   3.083   5.692  15.742  0.1486  0.2316 -0.1807
14760TIP3    H165771   3.024   5.693  15.667 -0.2601  1.4965  0.1360
14760TIP3    H265772   3.167   5.664  15.705 -0.0141  0.9426 -1.1360
14761TIP3   OH265773   1.210   2.201   5.777 -0.7466  0.4540 -0.6902
14761TIP3    H165774   1.218   2.294   5.799  1.6774 -0.4977  3.7335
14761TIP3    H265775   1.152   2.166   5.845  0.4648 -1.6169 -0.6597
14762TIP3   OH265776   2.592   5.925  16.750  0.3693 -0.0325  0.0884
14762TIP3    H165777   2.627   5.852  16.799  0.7921  0.5716  0.7031
14762TIP3    H265778   2.627   6.003  16.794 -0.3380  0.5454 -0.3434
14763TIP3   OH265779   4.004   6.816  12.609 -0.3394 -0.8938 -0.0288
14763TIP3    H165780   3.911   6.799  12.625 -0.5163 -0.0808 -0.1503
14763TIP3    H265781   4.009   6.911  12.594  0.5781 -0.8554  0.4533
14764TIP3   OH265782   1.335   4.965   4.544  0.0029 -0.0637  0.1720
14764TIP3    H165783   1.310   4.902   4.477 -0.7722  1.1662 -0.7477
14764TIP3    H265784   1.377   4.913   4.612 -2.0943 -1.8147  0.2481
14765TIP3   OH265785   2.916   5.024   1.018  0.4363  0.1492  0.1323
14765TIP3    H165786   2.924   5.012   0.923 -0.9161  1.0586 -0.1218
14765TIP3    H265787   2.995   4.984   1.054  1.3423  0.4675 -1.4309
14766TIP3   OH265788   4.190   3.360  13.618  0.0681  0.5367  0.6831
14766TIP3    H165789   4.166   3.267  13.612  1.9509 -0.0029  1.0460
14766TIP3    H265790   4.149   3.400  13.541 -0.3852 -0.6703  0.2736
14767TIP3   OH265791   2.318   4.178   1.031  0.1984 -0.2179  0.3269
14767TIP3    H165792   2.239   4.229   1.011 -0.9196 -2.6200 -2.0624
14767TIP3    H265793   2.285   4.097   1.071  1.5863 -0.6144  0.7208
14768TIP3   OH265794   6.103   5.835  14.398  0.1304  0.6277  0.1837
14768TIP3    H165795   6.184   5.859  14.443 -0.6897  0.1465  2.0125
14768TIP3    H265796   6.035   5.888  14.440 -0.7729 -0.3205 -0.0233
14769TIP3   OH265797   3.746   5.427   5.290  0.1969  0.1561  0.3028
14769TIP3    H165798   3.673   5.477   5.328  1.1532  1.9235 -0.0386
14769TIP3    H265799   3.757   5.465   5.203  1.0018 -0.6550  0.0415
14770TIP3   OH265800   0.892   2.162   2.371 -0.2083 -0.0397 -0.2439
14770TIP3    H165801   0.817   2.115   2.408 -0.3383 -0.8084 -1.4282
14770TIP3    H265802   0.863   2.254   2.367 -1.2325 -0.3686 -0.9700
14771TIP3   OH265803   0.349   2.031   1.305 -0.2001 -0.2156 -0.4885
14771TIP3    H165804   0.382   2.085   1.233 -0.1153 -0.0264 -0.3062
14771TIP3    H265805   0.417   2.034   1.371 -1.2018  1.4375  0.5497
14772TIP3   OH265806   2.641   1.665  15.352  0.1325  0.2461 -0.1601
14772TIP3    H165807   2.630   1.758  15.335 -0.5923  0.1196 -0.3889
14772TIP3    H265808   2.577   1.622  15.296  2.0295 -0.5445 -1.8384
14773TIP3   OH265809   4.512   3.176   4.917 -0.5389  0.4375  0.1520
14773TIP3    H165810   4.428   3.136   4.895 -0.7156  1.2917 -0.8280
14773TIP3    H265811   4.520   3.249   4.855  0.6647  0.7067  0.6061
14774TIP3   OH265812   1.482   2.210   5.059 -0.0814 -0.3746  0.1646
14774TIP3    H165813   1.572   2.231   5.084  0.3818 -0.3151 -1.4522
14774TIP3    H265814   1.434   2.208   5.142  1.5776 -1.3062  1.1710
14775TIP3   OH265815   3.586   5.890  17.034 -0.0135 -0.7097 -0.0303
14775TIP3    H165816   3.620   5.869  16.947  0.6604  0.8677 -0.1876
14775TIP3    H265817   3.657   5.939  17.076 -1.6717  1.8734 -0.0208
14776TIP3   OH265818   2.491   2.836  16.397 -0.2685  0.4813  0.0552
14776TIP3    H165819   2.551   2.804  16.330 -0.4166  3.6423 -1.8206
14776TIP3    H265820   2.408   2.793  16.378  0.3713 -0.7557  0.0017
14777TIP3   OH265821   5.475   1.158   3.496 -0.4289 -0.6857 -0.4842
14777TIP3    H165822   5.389   1.122   3.515  0.0421 -1.7520 -0.3047
14777TIP3    H265823   5.466   1.252   3.513 -1.6277 -0.7374 -0.7604
14778TIP3   OH265824   2.128   6.030  16.004  0.2694 -0.2082 -0.2984
14778TIP3    H165825   2.057   5.969  16.022  0.3288 -0.4026 -0.7081
14778TIP3    H265826   2.152   6.066  16.090 -0.7510  0.3491 -0.2403
14779TIP3   OH265827   4.839   1.375  16.627  0.1218 -0.2433 -0.1342
14779TIP3    H165828   4.928   1.345  16.646  0.1236 -0.8733 -1.0418
14779TIP3    H265829   4.830   1.456  16.677  1.2790 -0.0590 -0.1769
14780TIP3   OH265830   6.726   2.131   2.874  0.1826 -0.2825  0.4348
14780TIP3    H165831   6.714   2.180   2.793  0.6199  0.4854  0.8213
14780TIP3    H265832   6.819   2.139   2.894 -0.2225  1.1792  2.0101
14781TIP3   OH265833   4.947   3.162   4.164  0.2724 -0.2398  0.4904
14781TIP3    H165834   4.999   3.133   4.239  0.2438  2.3811  1.6310
14781TIP3    H265835   4.999   3.232   4.125 -1.5237  1.1964  0.5489
14782TIP3   OH265836   6.671   1.689   6.313 -0.3717  0.0148  0.2030
14782TIP3    H165837   6.630   1.607   6.342 -0.6752 -0.1221 -0.5985
14782TIP3    H265838   6.601   1.737   6.269  0.3413 -0.2688 -1.2896
14783TIP3   OH265839   5.250   3.420  12.455  0.3859  0.3167  0.0537
14783TIP3    H165840   5.155   3.434  12.457  0.4184  0.4542  0.6353
14783TIP3    H265841   5.274   3.434  12.363  0.0678  1.8247  0.1792
14784TIP3   OH265842   4.255   6.518   3.403  0.5479  0.3307 -0.3303
14784TIP3    H165843   4.203   6.549   3.478 -1.0052 -0.1914 -1.1353
14784TIP3    H265844   4.193   6.465   3.352  2.3707 -1.9739 -0.3449
14785TIP3   OH265845   1.411   5.733   4.382 -0.4174  0.0143 -0.2809
14785TIP3    H165846   1.344   5.720   4.450  0.4210 -0.3226  0.5019
14785TIP3    H265847   1.396   5.822   4.350 -2.1697 -0.5538 -1.1753
14786TIP3   OH265848   1.571   5.701   5.833 -0.1178 -0.8477  0.3285
14786TIP3    H165849   1.509   5.712   5.904 -0.0207  0.8702  0.1726
14786TIP3    H265850   1.657   5.710   5.874  0.0798 -2.7570  0.4612
14787TIP3   OH265851   2.638   4.810  13.454 -0.1665  0.4772 -0.1082
14787TIP3    H165852   2.651   4.735  13.511  0.3194 -0.1812 -1.0610
14787TIP3    H265853   2.545   4.809  13.432 -0.2207  0.3440  0.1355
14788TIP3   OH265854   6.000   1.726   1.793  0.3722 -0.2718  0.6085
14788TIP3    H165855   5.986   1.690   1.881  0.6402 -1.3777  0.2109
14788TIP3    H265856   6.086   1.694   1.767 -0.2487 -1.0398 -0.5666
14789TIP3   OH265857   3.094   3.537  13.596 -0.2792 -0.0824  0.6412
14789TIP3    H165858   3.066   3.609  13.653 -1.3752 -0.1407  0.1807
14789TIP3    H265859   3.143   3.580  13.526  1.9658 -0.0839  2.0966
14790TIP3   OH265860   3.067   1.352   5.800 -0.1631  0.1435  0.1972
14790TIP3    H165861   3.151   1.384   5.768  0.4493 -1.5057  0.0396
14790TIP3    H265862   3.090   1.279   5.858 -1.4853 -0.4511  0.0148
14791TIP3   OH265863   2.580   5.341  12.581  0.1267  0.1244  0.2813
14791TIP3    H165864   2.621   5.389  12.653  1.5398 -0.2153 -0.2605
14791TIP3    H265865   2.612   5.385  12.502 -0.4697 -0.2299 -0.1637
14792TIP3   OH265866   0.801   3.115   2.808  0.0149  0.3090  0.1788
14792TIP3    H165867   0.783   3.035   2.857 -0.1910  0.9086  1.1038
14792TIP3    H265868   0.717   3.161   2.806 -0.1091  0.0690 -1.1833
14793TIP3   OH265869   5.803   5.370   6.120  0.1389  0.4389  0.0019
14793TIP3    H165870   5.844   5.402   6.200  0.0216 -1.2305  0.7720
14793TIP3    H265871   5.812   5.275   6.125 -0.7336  0.2517 -1.4964
14794TIP3   OH265872   5.170   4.632  11.483 -0.7364 -0.3681 -0.1655
14794TIP3    H165873   5.201   4.593  11.565  0.1829 -0.7256 -0.6677
14794TIP3    H265874   5.075   4.627  11.488 -0.7072 -0.0384  1.0507
14795TIP3   OH265875   4.482   1.536   5.867 -0.2206 -0.2626  0.0107
14795TIP3    H165876   4.435   1.594   5.927 -0.5761 -0.8102  0.2701
14795TIP3    H265877   4.536   1.481   5.924  0.4707  0.1158 -0.2630
14796TIP3   OH265878   5.506   3.952  17.046 -0.2497  0.8041  0.1937
14796TIP3    H165879   5.530   3.870  17.004  0.1753  1.6457 -1.2731
14796TIP3    H265880   5.589   3.988  17.078 -0.3004  1.1455 -0.0591
14797TIP3   OH265881   0.154   0.540   4.207 -0.8717  0.4527  0.3224
14797TIP3    H165882   0.230   0.598   4.210 -0.1480 -0.4505 -0.0148
14797TIP3    H265883   0.175   0.476   4.139 -1.6480 -0.2118  0.6859
14798TIP3   OH265884   0.368   2.656  16.293  0.7766 -0.2722 -0.3162
14798TIP3    H165885   0.309   2.616  16.357 -1.3565  0.5113 -1.6719
14798TIP3    H265886   0.359   2.601  16.215 -0.6519  1.5802 -1.5464
14799TIP3   OH265887   0.744   3.222   1.098  0.3904 -0.1891 -0.1346
14799TIP3    H165888   0.700   3.138   1.106  1.0155 -0.4250  1.0511
14799TIP3    H265889   0.806   3.211   1.026 -0.8439 -0.1243 -1.2400
14800TIP3   OH265890   0.564   5.908  13.990  0.1277 -0.3605 -0.8354
14800TIP3    H165891   0.644   5.922  14.041 -0.8549  2.5001  0.1451
14800TIP3    H265892   0.502   5.871  14.052 -0.2011  0.3955 -0.6943
14801TIP3   OH265893   6.248   6.649  12.373  0.2613  0.2225 -0.2289
14801TIP3    H165894   6.226   6.566  12.330 -1.6328  0.1187  0.8297
14801TIP3    H265895   6.343   6.649  12.377  0.3161 -2.4998  0.8057
14802TIP3   OH265896   1.405   5.579   3.844 -0.0985 -0.1814  0.1257
14802TIP3    H165897   1.413   5.497   3.893  2.6393 -0.3147 -0.4072
14802TIP3    H265898   1.409   5.648   3.911 -2.7455 -0.3906  0.6111
14803TIP3   OH265899   3.926   0.891  15.138  0.1183  0.2693 -0.4524
14803TIP3    H165900   4.015   0.906  15.106  0.6622  1.1443  1.3359
14803TIP3    H265901   3.887   0.979  15.139 -0.7751 -0.1041 -1.1756
14804TIP3   OH265902   1.916   1.052  12.820 -0.9684  0.0121 -0.3320
14804TIP3    H165903   1.945   0.971  12.778 -2.0063  0.2609 -1.5754
14804TIP3    H265904   1.980   1.117  12.791 -0.8038 -0.1272 -0.2845
14805TIP3   OH265905   1.921   6.624  14.750  0.3685 -0.4684 -0.0337
14805TIP3    H165906   1.937   6.631  14.844  1.3280 -1.6436 -0.0801
14805TIP3    H265907   1.994   6.672  14.710 -0.4845  0.7459 -0.1994
14806TIP3   OH265908   6.710   1.165  12.503 -0.9294 -0.3300  0.0823
14806TIP3    H165909   6.766   1.240  12.486 -1.7027  0.2988  0.2560
14806TIP3    H265910   6.744   1.129  12.586 -0.6177 -0.1222  0.0480
14807TIP3   OH265911   5.967   6.797   4.542 -0.4922 -0.1523 -0.1206
14807TIP3    H165912   6.050   6.767   4.505  0.1609 -1.3809  2.1408
14807TIP3    H265913   5.902   6.774   4.475  0.8119 -0.2488 -1.4249
14808TIP3   OH265914   1.994   1.533   1.913  0.0480  0.1024  0.4258
14808TIP3    H165915   1.937   1.470   1.870 -0.3769  0.2965  0.6935
14808TIP3    H265916   1.986   1.513   2.006  1.2237 -0.5363  0.4036
14809TIP3   OH265917   5.509   2.484   4.537 -0.1149 -0.5351  0.3220
14809TIP3    H165918   5.524   2.562   4.483  0.9379 -0.8299  0.1751
14809TIP3    H265919   5.419   2.458   4.515 -0.4988  0.6356  0.3894
14810TIP3   OH265920   3.292   2.990  13.408  0.5838 -0.1815 -0.2020
14810TIP3    H165921   3.211   2.983  13.458  1.0473  1.2515  0.7891
14810TIP3    H265922   3.279   3.066  13.351  1.4608  0.4716  0.4456
14811TIP3   OH265923   5.650   0.759   3.092 -0.3227 -0.5093  0.0642
14811TIP3    H165924   5.710   0.833   3.101 -0.6103 -0.3774  1.0636
14811TIP3    H265925   5.618   0.765   3.002  1.7546 -1.0620 -0.7474
14812TIP3   OH265926   1.568   6.650  15.480 -0.4147 -0.4628  0.1996
14812TIP3    H165927   1.566   6.565  15.436  1.9066 -1.2137  1.3515
14812TIP3    H265928   1.522   6.709  15.420  0.3981 -1.9373 -2.0388
14813TIP3   OH265929   2.288   5.678  12.480  0.5325 -0.3892  0.3624
14813TIP3    H165930   2.261   5.655  12.569  0.2809  1.6575  0.8698
14813TIP3    H265931   2.316   5.769  12.487  0.6845 -0.2507 -1.6298
14814TIP3   OH265932   1.485   0.537   3.015 -0.1362 -0.2665 -0.2236
14814TIP3    H165933   1.404   0.487   3.028 -1.0626  1.1840 -0.1965
14814TIP3    H265934   1.539   0.481   2.959 -0.5545 -1.8728  0.9103
14815TIP3   OH265935   3.644   3.798   3.943 -0.1727  0.6183 -0.3149
14815TIP3    H165936   3.725   3.774   3.899  0.2300  2.3883 -0.6380
14815TIP3    H265937   3.583   3.818   3.871 -0.0172  1.9396 -0.1127
14816TIP3   OH265938   3.500   0.056  11.651 -0.2200  0.0115  0.4096
14816TIP3    H165939   3.566   0.060  11.719  1.2266  1.3151 -0.9786
14816TIP3    H265940   3.537  -0.001  11.584 -1.0382 -0.2112  0.1315
14817TIP3   OH265941   5.615   5.326   2.345  0.2806  0.1605 -0.0578
14817TIP3    H165942   5.565   5.252   2.378  0.5127 -0.1047 -0.2959
14817TIP3    H265943   5.588   5.400   2.400  1.2615 -0.4441  1.2931
14818TIP3   OH265944   5.790   6.498  10.469  0.1292 -0.3648 -0.4308
14818TIP3    H165945   5.754   6.562  10.409 -1.7562 -1.8088 -0.9498
14818TIP3    H265946   5.744   6.416  10.448  0.4303 -1.2672  1.9979
14819TIP3   OH265947   3.040   1.272   5.036 -0.1013 -0.2973 -0.5719
14819TIP3    H165948   3.032   1.177   5.022  0.0837 -0.2728 -0.8673
14819TIP3    H265949   3.117   1.281   5.092 -0.7400 -0.3849  0.3403
14820TIP3   OH265950   3.224   0.637  11.130  0.4837  0.7495 -0.3530
14820TIP3    H165951   3.213   0.569  11.064 -1.4862 -0.2137  0.8541
14820TIP3    H265952   3.278   0.597  11.198 -1.4484 -0.0814  0.8081
14821TIP3   OH265953   5.865   1.356  17.100  0.2388  0.7124 -0.0048
14821TIP3    H165954   5.904   1.287  17.047  1.7170  2.5435 -1.4638
14821TIP3    H265955   5.801   1.311  17.155 -0.3298 -1.5097 -2.2871
14822TIP3   OH265956   4.283   1.115  13.210 -0.2674  0.0535  0.5218
14822TIP3    H165957   4.252   1.098  13.299  2.2096 -1.7517  1.1665
14822TIP3    H265958   4.258   1.037  13.160 -1.1599  0.8152 -0.2557
14823TIP3   OH265959   5.535   3.306   3.177  0.0216  0.0856 -0.0943
14823TIP3    H165960   5.455   3.346   3.144  0.1730  1.0380  0.6478
14823TIP3    H265961   5.520   3.296   3.271  0.0676 -1.4383 -0.2155
14824TIP3   OH265962   1.752   5.966   3.950 -0.2349  0.0769  0.2026
14824TIP3    H165963   1.660   5.968   3.921  0.1033 -1.4815 -1.0887
14824TIP3    H265964   1.772   5.873   3.960  1.0286  0.4279  1.1446
14825TIP3   OH265965   0.050   1.924   1.025 -0.5113  0.0524  0.0108
14825TIP3    H165966   0.121   1.989   1.026 -0.7627  0.4076  2.8218
14825TIP3    H265967   0.064   1.873   1.105 -3.6666  0.4438  0.9203
14826TIP3   OH265968   2.919   4.606   3.008 -0.2551 -0.1242 -0.2539
14826TIP3    H165969   2.899   4.574   2.920  0.7971  0.9361 -0.9137
14826TIP3    H265970   2.877   4.692   3.013  1.0352  0.5354 -0.3419
14827TIP3   OH265971   3.416   0.222   1.329 -0.0656  0.5875  0.2559
14827TIP3    H165972   3.460   0.201   1.247 -0.5963 -0.5329  0.2462
14827TIP3    H265973   3.441   0.152   1.389  0.4670  1.4873  1.1304
14828TIP3   OH265974   1.197   6.201   2.831 -0.3487  0.5252  0.6414
14828TIP3    H165975   1.182   6.295   2.823  1.2164  0.7613  0.2073
14828TIP3    H265976   1.134   6.173   2.897 -1.4786  1.6975  0.1153
14829TIP3   OH265977   4.328   2.738  10.934  0.7073  0.2163 -0.3347
14829TIP3    H165978   4.367   2.817  10.971  0.3859  0.2409 -0.0476
14829TIP3    H265979   4.380   2.666  10.970 -0.3010  0.1656  1.0738
14830TIP3   OH265980   4.731   0.554   3.194  0.2230 -0.5442  0.5438
14830TIP3    H165981   4.654   0.501   3.214 -0.0142 -0.3636  0.1294
14830TIP3    H265982   4.696   0.637   3.160  0.5902 -1.1079 -1.3276
14831TIP3   OH265983   4.085   4.614   1.763 -0.5214  0.1171  0.6546
14831TIP3    H165984   4.059   4.704   1.781  1.8664  1.1587 -0.7663
14831TIP3    H265985   4.174   4.620   1.729 -0.6408 -2.6909 -0.4403
14832TIP3   OH265986   4.455   3.902   4.726 -0.5670  0.4558 -0.3922
14832TIP3    H165987   4.486   3.990   4.744 -0.5912  0.4280 -0.2114
14832TIP3    H265988   4.530   3.856   4.690 -0.3970  0.3879  0.0427
14833TIP3   OH265989   6.509   2.179   4.464 -0.6380 -0.5021 -0.2092
14833TIP3    H165990   6.422   2.210   4.440 -0.1605 -0.0576 -1.4252
14833TIP3    H265991   6.497   2.136   4.549 -1.6047  1.7285  0.8625
14834TIP3   OH265992   1.240   6.808  12.505 -0.0136  0.0430 -0.1435
14834TIP3    H165993   1.164   6.864  12.488  0.3563  0.7726  0.5585
14834TIP3    H265994   1.203   6.730  12.544 -0.4325  0.2674 -0.0800
14835TIP3   OH265995   3.316   4.118  12.372  0.3054  0.0941  0.1191
14835TIP3    H165996   3.329   4.116  12.277 -0.5210  0.6063 -0.0153
14835TIP3    H265997   3.335   4.208  12.397  0.1351  0.0585  0.3782
14836TIP3   OH265998   0.341   6.504   5.815  0.3008  0.1544  0.4165
14836TIP3    H165999   0.372   6.593   5.798 -0.8542  0.3772 -0.6870
14836TIP3    H266000   0.255   6.516   5.856  0.4077 -0.4600  0.8318
14837TIP3   OH266001   6.520   2.656   5.745 -0.1029  0.2746 -0.6642
14837TIP3    H166002   6.492   2.641   5.655 -0.9789 -1.9016 -0.0835
14837TIP3    H266003   6.579   2.583   5.764 -0.5166  0.2781  0.7464
14838TIP3   OH266004   2.744   0.279  15.814  0.3491  0.3166 -0.0111
14838TIP3    H166005   2.723   0.214  15.881 -1.7862  1.4750  0.5581
14838TIP3    H266006   2.691   0.253  15.739  0.6526  0.5526 -0.3067
14839TIP3   OH266007   5.381   5.679  16.366 -0.5444 -0.0394 -0.2376
14839TIP3    H166008   5.334   5.607  16.326  0.6980 -0.0115 -1.8491
14839TIP3    H266009   5.451   5.700  16.304 -0.1928  1.8187  0.6985
14840TIP3   OH266010   0.744   3.063  10.962 -0.3185  0.1452 -0.3521
14840TIP3    H166011   0.750   3.007  11.039 -0.0797  0.3554 -0.2176
14840TIP3    H266012   0.832   3.097  10.949 -0.0851 -0.7828 -1.4003
14841TIP3   OH266013   6.599   6.677  13.997 -0.6501 -0.4646  0.3609
14841TIP3    H166014   6.542   6.740  14.042  0.9954 -0.4175  2.5372
14841TIP3    H266015   6.684   6.720  13.995  0.1867 -2.0680  0.6065
14842TIP3   OH266016   5.997   0.462   2.480  0.8868  0.1201 -0.7465
14842TIP3    H166017   6.023   0.374   2.451 -0.3195 -0.0946 -1.2249
14842TIP3    H266018   6.075   0.515   2.467  1.5372 -0.8075 -0.7591
14843TIP3   OH266019   0.916   5.443  16.621 -0.2031  0.2889 -0.1398
14843TIP3    H166020   0.971   5.378  16.664 -0.4951  0.1935  0.0945
14843TIP3    H266021   0.921   5.422  16.528  0.6718  0.6778 -0.1899
14844TIP3   OH266022   4.269   5.633   1.353  0.2394 -0.8379 -0.3836
14844TIP3    H166023   4.177   5.648   1.372  0.5701  0.9589 -0.0990
14844TIP3    H266024   4.299   5.714   1.313  1.7066 -1.4118 -0.5007
14845TIP3   OH266025   0.841   5.333   6.469  0.2824 -0.1135 -0.3632
14845TIP3    H166026   0.843   5.354   6.562 -0.3268 -0.8167 -0.1871
14845TIP3    H266027   0.894   5.254   6.460  2.0688  1.0636 -0.9417
14846TIP3   OH266028   1.557   3.012  11.735 -0.2265 -0.0827  0.3831
14846TIP3    H166029   1.548   2.989  11.828  2.4587 -0.1807  0.6846
14846TIP3    H266030   1.646   2.987  11.713 -0.6773  0.3360 -2.1521
14847TIP3   OH266031   2.803   2.073  11.770  0.4803 -0.2145 -0.4360
14847TIP3    H166032   2.868   2.053  11.837  0.9696 -1.2248 -1.1906
14847TIP3    H266033   2.851   2.122  11.703 -0.1829  1.4901  0.2956
14848TIP3   OH266034   6.559   1.323  14.727  0.3600  0.2724 -0.0849
14848TIP3    H166035   6.553   1.358  14.816  0.0335 -1.3055  0.5384
14848TIP3    H266036   6.650   1.336  14.702  0.1344  2.0947 -0.1321
14849TIP3   OH266037   1.387   6.016  11.813  0.1461  0.0673  0.5856
14849TIP3    H166038   1.450   6.048  11.748  0.5502 -1.2005  0.3205
14849TIP3    H266039   1.310   6.070  11.801  0.8323  0.9979  0.2348
14850TIP3   OH266040   1.140   4.229   3.520  0.3248  0.0177 -0.1991
14850TIP3    H166041   1.052   4.258   3.496  1.3671  2.3686 -1.4938
14850TIP3    H266042   1.140   4.135   3.502 -1.8399 -0.0139 -0.3075
14851TIP3   OH266043   2.299   0.554   5.773  0.0830  0.1860  0.0274
14851TIP3    H166044   2.253   0.609   5.835 -0.6925  0.2267 -0.5740
14851TIP3    H266045   2.344   0.615   5.715 -0.0914  0.1728 -0.1229
14852TIP3   OH266046   5.545   5.388   2.695 -0.5540 -0.2164  0.1014
14852TIP3    H166047   5.614   5.442   2.734 -0.3379 -0.2996 -0.1615
14852TIP3    H266048   5.470   5.399   2.754 -0.6467  0.7055 -0.1749
14853TIP3   OH266049   4.014   2.278  11.123  0.3095  0.0219 -1.0166
14853TIP3    H166050   3.989   2.261  11.032 -0.8873  1.5483 -1.0054
14853TIP3    H266051   4.046   2.368  11.123  1.7877 -0.4709 -0.1842
14854TIP3   OH266052   1.967   4.536  16.246 -0.3799 -0.1287 -0.2214
14854TIP3    H166053   1.997   4.569  16.162 -1.1335  1.3346  0.0552
14854TIP3    H266054   1.898   4.473  16.224 -0.3673  0.0273 -0.7093
14855TIP3   OH266055   2.247   4.977  15.228 -0.1760  0.3245  0.5137
14855TIP3    H166056   2.245   4.926  15.309  1.0968  0.6915  0.7913
14855TIP3    H266057   2.155   4.994  15.209 -0.5022  0.1967  1.8522
14856TIP3   OH266058   4.082   5.174  13.869 -0.3295 -0.2319  0.1106
14856TIP3    H166059   4.123   5.097  13.829 -0.4730 -0.4020  0.2904
14856TIP3    H266060   4.115   5.174  13.959 -2.2123 -1.4796  0.8658
14857TIP3   OH266061   2.621   3.956   2.790  0.5657  0.1340  0.1240
14857TIP3    H166062   2.628   3.961   2.886 -0.3633  0.5545  0.1872
14857TIP3    H266063   2.688   3.893   2.764 -1.0316 -2.2197  1.3238
14858TIP3   OH266064   2.316   0.460   2.943  0.1595 -0.0540 -0.2479
14858TIP3    H166065   2.367   0.399   2.889  1.9428  0.9884  0.1547
14858TIP3    H266066   2.313   0.418   3.029  1.5880  0.4749  0.0925
14859TIP3   OH266067   4.670   6.064   5.360  0.3338  0.2189  0.1059
14859TIP3    H166068   4.731   6.037   5.428  1.1746 -0.5877 -0.9170
14859TIP3    H266069   4.660   5.985   5.305 -2.0915  0.1322  0.5541
14860TIP3   OH266070   6.584   0.180  14.746 -0.3294 -0.0544 -0.2964
14860TIP3    H166071   6.586   0.174  14.841  1.6568 -0.7323 -0.3363
14860TIP3    H266072   6.491   0.176  14.724 -0.8922  1.0827  1.6362
14861TIP3   OH266073   2.082   6.492   5.805  0.8625 -0.4334  0.3434
14861TIP3    H166074   2.064   6.399   5.793 -0.3189 -0.0489 -1.2077
14861TIP3    H266075   2.059   6.532   5.721  1.8599  1.1946  0.7923
14862TIP3   OH266076   2.482   5.130  13.967 -0.2515  0.1232 -0.3300
14862TIP3    H166077   2.441   5.189  14.031 -1.0152  0.5405 -1.1933
14862TIP3    H266078   2.469   5.172  13.883  0.8571 -0.3709 -0.7732
14863TIP3   OH266079   0.784   4.476  12.425 -0.4052  0.2567 -0.2916
14863TIP3    H166080   0.879   4.473  12.426 -0.3666  0.9258 -1.0307
14863TIP3    H266081   0.762   4.538  12.355 -1.3656  0.8139  0.4755
14864TIP3   OH266082   4.116   0.503  15.377  0.0740 -0.0170 -0.3368
14864TIP3    H166083   4.193   0.560  15.383  0.6331 -0.7108 -0.8563
14864TIP3    H266084   4.056   0.548  15.317  0.6614 -0.1390 -1.0210
14865TIP3   OH266085   6.165   3.364  15.326  0.1145 -0.0629  0.0588
14865TIP3    H166086   6.076   3.353  15.358  0.2973  1.5638  1.2749
14865TIP3    H266087   6.159   3.433  15.260  0.4676  0.0623  0.1519
14866TIP3   OH266088   6.266   1.178  10.236  0.7757  0.0714  0.3467
14866TIP3    H166089   6.319   1.098  10.232  0.7058  0.0678 -0.8415
14866TIP3    H266090   6.319   1.239  10.287  1.5807 -0.1954 -0.1397
14867TIP3   OH266091   2.522   2.877  11.043 -0.2774  0.3980 -0.3305
14867TIP3    H166092   2.510   2.972  11.032  2.0938  0.9169  0.8239
14867TIP3    H266093   2.487   2.858  11.130  0.0366  0.4062 -0.1991
14868TIP3   OH266094   5.267   6.802   0.193  0.0331  0.5081  0.5999
14868TIP3    H166095   5.248   6.753   0.113  2.0541  1.2934 -0.4312
14868TIP3    H266096   5.221   6.885   0.182  2.3025  1.6377 -0.9891
14869TIP3   OH266097   2.810   1.747   2.565  0.0390  0.4719 -0.0004
14869TIP3    H166098   2.851   1.834   2.569  0.9341  0.1566 -1.6350
14869TIP3    H266099   2.728   1.763   2.519  0.7289  0.2937 -1.3276
14870TIP3   OH266100   6.415   5.036  12.042 -0.3362  0.2248  0.0057
14870TIP3    H166101   6.436   5.024  12.135  0.6537  1.7816  0.0219
14870TIP3    H266102   6.421   5.130  12.028 -2.8213  0.2875 -1.1407
14871TIP3   OH266103   5.613   1.458   3.284  0.0055  0.5059  0.0450
14871TIP3    H166104   5.701   1.465   3.321  1.3662 -1.7417 -2.3974
14871TIP3    H266105   5.574   1.383   3.328 -0.8762  1.6921  1.3527
14872TIP3   OH266106   5.352   1.982   2.121  0.1610 -0.5859  0.2525
14872TIP3    H166107   5.283   1.919   2.101  0.5940 -0.8900 -0.3194
14872TIP3    H266108   5.403   1.941   2.191  0.4327 -0.8722 -0.1084
14873TIP3   OH266109   0.897   2.434   1.026 -0.2078  0.5701  0.1833
14873TIP3    H166110   0.923   2.519   1.060  1.2779 -0.1189  0.8582
14873TIP3    H266111   0.921   2.437   0.933  2.0055  0.1415  0.6711
14874TIP3   OH266112   3.018   0.249   3.608 -0.2905  0.1103  0.0014
14874TIP3    H166113   2.937   0.241   3.657  1.1878 -0.7674  2.4823
14874TIP3    H266114   3.071   0.310   3.658  0.9782 -0.1203 -1.0038
14875TIP3   OH266115   6.581   2.100  11.820 -0.1104  0.1809 -0.1467
14875TIP3    H166116   6.634   2.165  11.775  1.5475 -1.8018 -1.1887
14875TIP3    H266117   6.574   2.133  11.910  0.7759  1.7189 -0.6133
14876TIP3   OH266118   3.906   3.041   4.604 -0.0436 -0.4300  0.1132
14876TIP3    H166119   3.934   3.132   4.601  0.3835 -0.5728 -2.6971
14876TIP3    H266120   3.860   3.033   4.688 -0.0968  2.3394  0.4440
14877TIP3   OH266121   1.918   3.482   0.045 -0.4767  0.3995  0.8641
14877TIP3    H166122   1.839   3.531   0.022  1.0856  2.6855  0.1036
14877TIP3    H266123   1.943   3.516   0.131 -0.1781 -0.1148  0.9822
14878TIP3   OH266124   3.585   2.210  13.354 -0.5031 -0.8713 -0.4674
14878TIP3    H166125   3.587   2.114  13.349 -0.8254 -1.2640  3.4753
14878TIP3    H266126   3.492   2.231  13.363 -0.3939 -0.2203 -0.8022
14879TIP3   OH266127   5.439   5.558   4.093 -0.0666 -0.4002 -0.4312
14879TIP3    H166128   5.420   5.488   4.030 -2.4495  0.6504 -0.9984
14879TIP3    H266129   5.447   5.637   4.040 -1.3141  0.3726  0.4548
14880TIP3   OH266130   6.061   3.158   0.123  0.4039 -0.7303 -0.1717
14880TIP3    H166131   6.124   3.142   0.053 -0.3027 -0.8539 -0.7893
14880TIP3    H266132   6.054   3.074   0.169  2.2140 -0.1923  1.2033
14881TIP3   OH266133   0.370   1.392  14.998 -0.0319 -0.2267 -0.2565
14881TIP3    H166134   0.465   1.385  14.989  0.1184  0.6326  0.5075
14881TIP3    H266135   0.346   1.465  14.942 -0.0191  0.5922  0.7876
14882TIP3   OH266136   5.707   6.338   4.234 -0.1770 -1.2406  0.4336
14882TIP3    H166137   5.658   6.328   4.152 -0.5353 -0.3990  0.5408
14882TIP3    H266138   5.790   6.379   4.208 -1.0588  0.8101  0.7049
14883TIP3   OH266139   1.517   4.631  12.888  0.5280  0.2377  0.3453
14883TIP3    H166140   1.538   4.722  12.912  0.1116  0.7001 -0.9793
14883TIP3    H266141   1.586   4.579  12.930  0.4844  1.1022  1.5457
14884TIP3   OH266142   4.490   2.919   0.291 -0.6859 -0.3644  0.0157
14884TIP3    H166143   4.429   2.923   0.365  0.8749  0.6462  1.3092
14884TIP3    H266144   4.437   2.943   0.215 -2.0367 -0.1192  0.9980
14885TIP3   OH266145   1.629   0.141  12.061  0.1968 -0.2106  0.2016
14885TIP3    H166146   1.547   0.147  12.111  0.2236  1.0424  0.1275
14885TIP3    H266147   1.602   0.129  11.970  0.0452  1.0071  0.0629
14886TIP3   OH266148   1.223   2.382  15.107 -0.6228  0.0568 -0.3323
14886TIP3    H166149   1.160   2.384  15.035 -1.2640  3.8190  0.1575
14886TIP3    H266150   1.308   2.396  15.065 -0.9225  1.6145 -0.4537
14887TIP3   OH266151   2.630   1.868  13.663  0.6826 -0.2784  0.3797
14887TIP3    H166152   2.603   1.793  13.717  1.3805 -0.9012 -0.1129
14887TIP3    H266153   2.551   1.921  13.655 -0.2357 -1.6654 -0.3960
14888TIP3   OH266154   3.852   5.337   0.010  0.5601  0.0735  0.0419
14888TIP3    H166155   3.817   5.355   0.097 -0.1489 -2.0650  0.2588
14888TIP3    H266156   3.943   5.365   0.015  0.5894 -0.1808  1.5476
14889TIP3   OH266157   6.469   3.967   1.492 -0.0434 -0.2303  0.4336
14889TIP3    H166158   6.517   3.947   1.412  1.4973  1.8163  0.7539
14889TIP3    H266159   6.489   3.893   1.551  0.3203 -0.8464 -0.4370
14890TIP3   OH266160   3.190   0.116  15.746  0.0579 -0.0802  0.3984
14890TIP3    H166161   3.129   0.170  15.797  0.2107 -0.2927  0.8019
14890TIP3    H266162   3.272   0.121  15.794 -0.2327 -1.6444  1.1023
14891TIP3   OH266163   6.001   4.795   0.124 -0.1063 -0.3708 -0.0430
14891TIP3    H166164   6.063   4.734   0.165 -0.5501 -0.2588  0.8119
14891TIP3    H266165   5.932   4.739   0.089 -0.6730 -0.3554  1.0159
14892TIP3   OH266166   3.724   0.417  14.136  0.6417 -0.0478  0.3062
14892TIP3    H166167   3.694   0.329  14.160  1.9913 -0.9736 -1.1327
14892TIP3    H266168   3.658   0.476  14.171 -0.3018 -1.6334  1.3312
14893TIP3   OH266169   1.005   2.018  17.093  0.6027 -0.2955  0.5298
14893TIP3    H166170   1.010   2.036  16.999 -0.3429 -0.1940  0.4938
14893TIP3    H266171   0.913   2.030  17.115  0.6850 -1.0357  1.3265
14894TIP3   OH266172   2.414   0.522  16.454 -0.2569 -0.0069  0.4215
14894TIP3    H166173   2.420   0.528  16.550 -0.4519 -2.5364  0.6431
14894TIP3    H266174   2.321   0.508  16.437  0.0280 -1.5810  0.0419
14895TIP3   OH266175   0.546   5.286  14.910  0.2394  0.2749 -0.0689
14895TIP3    H166176   0.527   5.366  14.959 -2.1748 -0.2124 -0.0520
14895TIP3    H266177   0.501   5.298  14.826  3.9857  0.9468 -2.2169
14896TIP3   OH266178   1.405   3.124  13.086  0.1146 -0.3621 -0.3753
14896TIP3    H166179   1.490   3.085  13.106 -0.9754 -2.1497  1.0218
14896TIP3    H266180   1.372   3.072  13.013 -0.9784 -1.6023  0.9470
14897TIP3   OH266181   5.440   1.037   1.567 -0.5155  0.1866 -0.8185
14897TIP3    H166182   5.362   1.049   1.512  0.2653 -1.1962 -2.2791
14897TIP3    H266183   5.511   1.077   1.518 -0.5603  3.6425  1.5718
14898TIP3   OH266184   5.514   0.083  12.365  0.7803  0.1672 -0.0982
14898TIP3    H166185   5.601   0.065  12.400  0.6953 -0.8705 -0.3784
14898TIP3    H266186   5.513   0.037  12.281  0.2277  0.8075 -0.4461
14899TIP3   OH266187   5.426   3.370   2.389 -0.0165 -0.2889 -0.4135
14899TIP3    H166188   5.355   3.310   2.413  1.5552 -1.7978  0.8201
14899TIP3    H266189   5.505   3.315   2.392  1.5533  1.8804  1.0028
14900TIP3   OH266190   3.710   2.723   3.864  0.4119  0.0394 -0.0541
14900TIP3    H166191   3.756   2.791   3.913  1.0956  0.6821 -1.5245
14900TIP3    H266192   3.658   2.771   3.800  1.0159 -0.7935 -1.2114
14901TIP3   OH266193   4.102   5.605   0.291  0.4033 -0.1163 -0.0092
14901TIP3    H166194   4.009   5.611   0.312  0.5849 -1.3865  1.3480
14901TIP3    H266195   4.106   5.542   0.218  0.1635  0.4259 -0.4971
14902TIP3   OH266196   3.281   5.802   4.658  0.4526  0.6259 -1.3371
14902TIP3    H166197   3.294   5.715   4.618  0.7595  0.9416 -1.9419
14902TIP3    H266198   3.213   5.788   4.723  1.6136 -0.4253 -0.2811
14903TIP3   OH266199   4.311   2.150  12.647 -0.0572 -0.3726  0.6521
14903TIP3    H166200   4.284   2.241  12.655  0.4825 -0.1344 -0.1339
14903TIP3    H266201   4.331   2.123  12.737 -0.8200  0.0839  0.9668
14904TIP3   OH266202   5.547   5.704   5.950 -0.0256  0.0803  0.2012
14904TIP3    H166203   5.568   5.659   6.032 -2.7476 -1.7322  0.0155
14904TIP3    H266204   5.455   5.729   5.959  0.3888  2.4667 -1.2123
14905TIP3   OH266205   6.451   3.778  12.495  0.0924  0.1738 -0.0281
14905TIP3    H166206   6.423   3.687  12.500 -2.4690  0.8266 -1.1285
14905TIP3    H266207   6.439   3.812  12.584 -2.1275  0.2283 -0.2963
14906TIP3   OH266208   1.244   3.558   1.391  0.2554 -0.0735  0.1353
14906TIP3    H166209   1.262   3.545   1.298 -1.5904 -0.2173 -0.2404
14906TIP3    H266210   1.257   3.472   1.431  0.5466 -0.1315 -0.0856
14907TIP3   OH266211   0.022   0.253  15.529  0.7735 -0.0757  0.2186
14907TIP3    H166212   0.095   0.233  15.470  0.8564 -1.4446  0.7471
14907TIP3    H266213   0.016   0.177  15.587 -2.3570 -0.9993 -1.0707
14908TIP3   OH266214   3.158   2.565   1.627  0.3441 -0.1623  0.2157
14908TIP3    H166215   3.203   2.544   1.709 -0.2874  2.8886  1.4716
14908TIP3    H266216   3.189   2.653   1.604  1.9144 -1.5554 -3.9240
14909TIP3   OH266217   5.606   3.732   1.029  0.1474 -0.2098  0.1490
14909TIP3    H166218   5.676   3.765   1.086  0.2792 -0.6917  0.2683
14909TIP3    H266219   5.605   3.794   0.956 -0.2653  0.6279  0.8426
14910TIP3   OH266220   6.633   5.227   1.460 -0.7120 -0.2716  0.0587
14910TIP3    H166221   6.617   5.222   1.366 -1.1716 -0.9140  0.1631
14910TIP3    H266222   6.728   5.227   1.468 -0.6694 -1.0167 -0.3724
14911TIP3   OH266223   5.502   5.485   3.645 -0.2286  0.4285 -0.0044
14911TIP3    H166224   5.469   5.443   3.725 -2.5442 -1.6372 -1.8525
14911TIP3    H266225   5.439   5.555   3.628 -1.2557 -0.7427 -1.2571
14912TIP3   OH266226   2.431   5.552  17.048 -0.3674  0.3949  0.4728
14912TIP3    H166227   2.479   5.479  17.087 -0.2805  0.8189  1.1937
14912TIP3    H266228   2.392   5.516  16.968 -1.2163 -0.7435  1.3575
14913TIP3   OH266229   1.462   3.353  17.091 -0.0007  0.1176  0.1998
14913TIP3    H166230   1.503   3.439  17.085  2.0550 -0.8627 -0.6427
14913TIP3    H266231   1.418   3.353  17.177 -0.1053  1.9926  0.1800
14914TIP3   OH266232   6.088   0.067  12.905 -0.1841  0.2350 -0.6524
14914TIP3    H166233   6.128   0.008  12.969 -1.2690 -1.0169 -1.0970
14914TIP3    H266234   6.097   0.154  12.944 -0.2760 -0.4327  0.9120
14915TIP3   OH266235   1.160   5.763   4.212  0.5040 -0.5640  0.0411
14915TIP3    H166236   1.152   5.839   4.268 -2.0900  1.5161 -2.7937
14915TIP3    H266237   1.251   5.764   4.181  0.9010  0.4774  1.1947
14916TIP3   OH266238   2.788   0.471  14.369  0.2826 -0.0974  0.4096
14916TIP3    H166239   2.771   0.545  14.311 -0.0431 -1.2254 -0.9845
14916TIP3    H266240   2.883   0.462  14.370  0.2817 -0.1775 -0.0976
14917TIP3   OH266241   4.402   3.237   2.233  0.6509  0.2493  0.2303
14917TIP3    H166242   4.405   3.322   2.278  0.9881 -1.4002  3.5960
14917TIP3    H266243   4.488   3.229   2.191  0.9557  1.1622  0.6435
14918TIP3   OH266244   0.908   6.327  11.461  0.2765  0.8686  0.0281
14918TIP3    H166245   0.884   6.418  11.447  0.1756  0.8460  0.0562
14918TIP3    H266246   0.910   6.289  11.373 -2.3422  0.2229  0.1662
14919TIP3   OH266247   3.446   3.632  13.729 -0.0478  0.0899  0.5821
14919TIP3    H166248   3.445   3.537  13.736  0.9053  0.1186  1.2595
14919TIP3    H266249   3.529   3.658  13.768 -0.1627  1.1823  0.1338
14920TIP3   OH266250   6.151   0.084   1.492  0.7573  0.1696  0.4961
14920TIP3    H166251   6.187   0.166   1.459 -1.6675  0.9189 -0.5357
14920TIP3    H266252   6.087   0.111   1.558 -0.2223 -0.8603  0.0037
14921TIP3   OH266253   2.632   3.387   1.402 -0.4688 -0.6176 -0.2598
14921TIP3    H166254   2.654   3.294   1.395 -0.9183 -0.6662 -1.2000
14921TIP3    H266255   2.642   3.407   1.495 -1.0629 -1.7878  0.0800
14922TIP3   OH266256   2.437   6.148  11.489 -0.2254 -0.0692 -0.3000
14922TIP3    H166257   2.482   6.225  11.456 -0.8493  1.1563  1.5115
14922TIP3    H266258   2.499   6.076  11.477  0.3172  0.6542 -2.1628
14923TIP3   OH266259   1.354   6.778   0.838 -0.1968 -0.8954 -0.5888
14923TIP3    H166260   1.357   6.820   0.924 -0.1444  1.4936 -1.6795
14923TIP3    H266261   1.303   6.698   0.851  0.2323 -0.8432  1.7374
14924TIP3   OH266262   1.840   1.512   1.350  0.1254 -0.7766  0.1578
14924TIP3    H166263   1.790   1.508   1.431 -1.4043 -1.7458 -0.7746
14924TIP3    H266264   1.830   1.602   1.319 -0.3513 -0.7462  0.4006
14925TIP3   OH266265   2.147   6.049  12.758  0.7952  0.6368  0.2642
14925TIP3    H166266   2.058   6.066  12.787  1.0667  1.0072  0.9056
14925TIP3    H266267   2.139   6.026  12.665  0.2405  2.7465 -0.2625
14926TIP3   OH266268   2.193   2.329  11.868  0.0187  0.2159  0.1251
14926TIP3    H166269   2.112   2.380  11.856 -0.4893 -1.1265 -3.3611
14926TIP3    H266270   2.263   2.394  11.859 -0.5947  1.2498  2.2684
14927TIP3   OH266271   6.781   5.851   5.178  0.4322 -0.4723 -0.5502
14927TIP3    H166272   6.786   5.856   5.082 -0.6566 -0.6845 -0.6357
14927TIP3    H266273   6.729   5.927   5.203  0.5874 -0.4999 -0.1355
14928TIP3   OH266274   3.626   5.981  14.659  1.1926 -0.3531  0.5660
14928TIP3    H166275   3.545   5.933  14.646  0.7162  0.8850 -1.3593
14928TIP3    H266276   3.689   5.939  14.600  0.6806  1.5089 -1.3957
14929TIP3   OH266277   4.701   1.308  12.066 -0.0465  0.5042 -0.3001
14929TIP3    H166278   4.612   1.282  12.043 -1.3169  1.9603  2.5793
14929TIP3    H266279   4.741   1.334  11.982 -1.8653 -1.2503 -1.8213
14930TIP3   OH266280   1.937   4.839   6.037 -0.3997  0.1669 -0.1564
14930TIP3    H166281   1.993   4.908   6.003 -0.6980  0.5945  0.2097
14930TIP3    H266282   1.894   4.803   5.960  1.3830 -1.1000 -0.6214
14931TIP3   OH266283   4.176   6.735  13.017  0.1689  0.4776  0.1061
14931TIP3    H166284   4.215   6.744  12.930 -0.9630  0.0802 -0.4572
14931TIP3    H266285   4.109   6.802  13.021  1.2337  1.5239  1.2822
14932TIP3   OH266286   5.332   2.026  14.626 -0.1055  0.2627 -0.7691
14932TIP3    H166287   5.382   2.107  14.614 -0.6598  1.0597  1.6804
14932TIP3    H266288   5.397   1.957  14.618  0.4961  0.9550 -2.2630
14933TIP3   OH266289   1.961   0.506   4.535  0.4456  0.1179 -0.3823
14933TIP3    H166290   1.997   0.424   4.500  0.9017 -0.1945  0.7717
14933TIP3    H266291   1.881   0.480   4.579 -0.9413  0.7297 -2.4177
14934TIP3   OH266292   4.903   4.707  10.969 -0.4544 -0.0371  0.2124
14934TIP3    H166293   4.892   4.775  11.035 -0.9422 -0.1065  0.2114
14934TIP3    H266294   4.920   4.627  11.018  1.2836  0.2720  0.1819
14935TIP3   OH266295   1.636   0.766  16.069  0.2615  0.4433  0.0755
14935TIP3    H166296   1.575   0.840  16.070 -0.7744 -0.3467 -1.3299
14935TIP3    H266297   1.657   0.751  16.161 -1.0678  1.2253  0.5335
14936TIP3   OH266298   2.147   0.117   2.820  0.4573  0.4635  0.2553
14936TIP3    H166299   2.234   0.082   2.840  0.6369  1.1493  0.7248
14936TIP3    H266300   2.161   0.177   2.747  0.4312  0.8071  0.5315
14937TIP3   OH266301   4.382   6.043   0.962  0.0554  0.3680 -0.1531
14937TIP3    H166302   4.437   6.010   1.032 -0.2503 -0.2649 -0.2005
14937TIP3    H266303   4.337   6.118   1.000  0.8525  0.8095 -0.0798
14938TIP3   OH266304   4.214   4.650  11.799  0.2654 -0.4854  0.4931
14938TIP3    H166305   4.131   4.605  11.790  0.9115 -1.7770  0.7021
14938TIP3    H266306   4.278   4.580  11.812  1.3471  0.4864  0.6061
14939TIP3   OH266307   0.579   4.982  13.577 -0.9965 -0.6218  0.5311
14939TIP3    H166308   0.492   4.950  13.551 -0.3748 -1.6477 -0.4066
14939TIP3    H266309   0.583   4.968  13.671 -2.4928  1.1097  0.9020
14940TIP3   OH266310   0.970   6.546  15.948  0.9507  0.3887 -0.0871
14940TIP3    H166311   1.053   6.539  15.901  0.6593  0.3109 -0.5986
14940TIP3    H266312   0.953   6.458  15.980  1.0332  0.3913 -0.0360
14941TIP3   OH266313   1.522   2.970  12.309 -0.2456 -0.6312  0.4364
14941TIP3    H166314   1.465   2.956  12.384  0.0652 -0.7047  0.6568
14941TIP3    H266315   1.555   3.059  12.320 -0.2970 -0.5975  0.3210
14942TIP3   OH266316   5.378   5.327   4.503 -0.0689  0.2414 -0.0921
14942TIP3    H166317   5.326   5.374   4.568 -0.0441  1.0512 -0.6427
14942TIP3    H266318   5.439   5.274   4.555 -1.3517 -0.6411  0.5530
14943TIP3   OH266319   6.723   4.351   0.066 -0.2782  0.4238  0.2971
14943TIP3    H166320   6.774   4.431   0.056 -0.5195  0.5450  0.0039
14943TIP3    H266321   6.643   4.379   0.110 -1.0314  0.6211 -1.1537
14944TIP3   OH266322   1.548   5.565   3.585  0.5009 -0.3144  0.3579
14944TIP3    H166323   1.506   5.482   3.561 -1.8973  0.5984  1.0419
14944TIP3    H266324   1.515   5.584   3.673  0.2394  1.7680 -0.1272
14945TIP3   OH266325   2.552   4.206   0.642  0.1771 -0.3523  0.0572
14945TIP3    H166326   2.564   4.249   0.727  0.5218 -0.6362  0.1542
14945TIP3    H266327   2.629   4.150   0.632  2.0535  2.3206 -2.0214
14946TIP3   OH266328   2.900   2.651  11.153 -0.2544 -0.0976  0.2297
14946TIP3    H166329   2.888   2.557  11.143  2.0228 -0.4729  0.6158
14946TIP3    H266330   2.974   2.660  11.212 -1.7117  1.9823  1.8997
14947TIP3   OH266331   4.651   3.981  13.888 -0.0807  0.0757  0.1435
14947TIP3    H166332   4.582   4.032  13.931  0.2994  0.2273  0.5756
14947TIP3    H266333   4.642   4.002  13.795  1.2181  2.3675  0.4661
14948TIP3   OH266334   3.050   6.775   3.467  0.3701 -0.4120  0.3573
14948TIP3    H166335   3.124   6.835   3.474 -0.1364  0.3114 -0.3008
14948TIP3    H266336   3.033   6.769   3.373  0.4193 -1.6041  0.4123
14949TIP3   OH266337   2.023   6.355   4.009  0.0998 -0.4109 -0.1648
14949TIP3    H166338   2.114   6.385   4.004  0.8761 -2.0059  2.2757
14949TIP3    H266339   2.029   6.260   3.994 -1.5792 -0.2203 -2.6070
14950TIP3   OH266340   4.544   6.666   5.105 -0.1119 -0.2219  0.4672
14950TIP3    H166341   4.590   6.649   5.187 -1.4497  0.7002  1.4385
14950TIP3    H266342   4.521   6.759   5.109 -0.8439 -0.3383 -0.6180
14951TIP3   OH266343   1.930   5.830  15.708  0.1240 -0.0285  0.0421
14951TIP3    H166344   1.948   5.739  15.685  0.8063  0.0291  0.3444
14951TIP3    H266345   1.906   5.871  15.624 -0.5804 -0.5698 -0.0315
14952TIP3   OH266346   1.863   1.260   4.835  0.0313  0.3569 -0.7985
14952TIP3    H166347   1.878   1.193   4.768  0.0369  1.3086 -1.7836
14952TIP3    H266348   1.948   1.272   4.877 -0.5484 -2.3236  1.4765
14953TIP3   OH266349   5.903   1.225  15.325  0.0635 -0.6873  0.2189
14953TIP3    H166350   5.846   1.164  15.371 -1.1281  1.6690  2.1039
14953TIP3    H266351   5.992   1.195  15.344 -0.4390 -2.8886 -0.5729
14954TIP3   OH266352   4.125   0.573   4.865  0.0323  0.2802  0.2370
14954TIP3    H166353   4.065   0.517   4.914  0.2669  0.6010  0.8887
14954TIP3    H266354   4.136   0.528   4.781  0.3469 -0.7409  0.8150
14955TIP3   OH266355   5.274   6.490   1.869  0.1613  0.4307  0.3580
14955TIP3    H166356   5.236   6.402   1.862  0.3634  0.3330  0.4825
14955TIP3    H266357   5.310   6.507   1.782  0.9634  0.0009  0.5938
14956TIP3   OH266358   0.516   3.931  15.586 -0.3963 -0.2551  0.3605
14956TIP3    H166359   0.560   3.912  15.669 -0.9423 -0.9382  0.5061
14956TIP3    H266360   0.480   4.019  15.598  0.0252 -0.1166  0.6311
14957TIP3   OH266361   2.423   1.087  14.321  0.4312  0.5984  0.4070
14957TIP3    H166362   2.332   1.109  14.339  0.4709  0.2955  0.9995
14957TIP3    H266363   2.419   1.024  14.249 -0.0967 -2.2185  2.7142
14958TIP3   OH266364   3.527   3.136  16.527 -0.0397 -0.0233  0.0614
14958TIP3    H166365   3.579   3.206  16.567 -0.5516 -0.3939  1.4112
14958TIP3    H266366   3.456   3.183  16.481  0.5204  0.3996 -0.3949
14959TIP3   OH266367   3.759   3.965   5.015 -0.2370  0.2638  0.3650
14959TIP3    H166368   3.820   3.925   4.952 -1.1679 -0.2026 -0.2550
14959TIP3    H266369   3.684   3.906   5.016 -0.0270 -0.0385  2.3478
14960TIP3   OH266370   0.445   3.787   6.088 -0.4117  0.1783  1.1310
14960TIP3    H166371   0.394   3.724   6.037  1.6033 -0.7239  0.1185
14960TIP3    H266372   0.490   3.733   6.153 -0.9556  1.0062  2.2348
14961TIP3   OH266373   3.983   1.219   3.042  0.1530 -0.1211  0.0349
14961TIP3    H166374   4.013   1.248   2.956  0.2087  0.1212  0.1351
14961TIP3    H266375   4.055   1.239   3.102 -0.8527  2.2299  0.6206
14962TIP3   OH266376   1.204   2.437   2.241  0.0261  0.2379 -0.0508
14962TIP3    H166377   1.204   2.433   2.337 -2.0737 -1.1884 -0.0390
14962TIP3    H266378   1.116   2.468   2.219  0.0327 -0.7357 -1.5417
14963TIP3   OH266379   2.245   4.756   0.609 -0.0410  0.0264  0.4248
14963TIP3    H166380   2.230   4.850   0.623  0.1340 -0.0245  0.9834
14963TIP3    H266381   2.293   4.752   0.527  0.1737  0.4507  0.5237
14964TIP3   OH266382   2.987   0.912   4.708 -0.7190  0.1600  0.2503
14964TIP3    H166383   3.035   0.892   4.627 -2.6761 -0.5477 -0.7806
14964TIP3    H266384   2.966   1.005   4.700 -0.6836  0.1535  0.0726
14965TIP3   OH266385   4.642   2.992   3.309 -0.9297  0.1144  0.2035
14965TIP3    H166386   4.649   2.915   3.365  0.7343  0.5395  0.6327
14965TIP3    H266387   4.571   2.971   3.247  0.0538 -2.1072 -0.2428
14966TIP3   OH266388   2.777   2.955  16.942 -0.4904 -0.6643  0.1115
14966TIP3    H166389   2.798   2.895  16.871 -2.5590 -3.0717  1.3490
14966TIP3    H266390   2.805   2.910  17.021 -0.7727  0.6780  1.0206
14967TIP3   OH266391   2.167   4.071   3.114  0.2523  0.0499 -0.2986
14967TIP3    H166392   2.230   4.006   3.084 -0.1458  0.2303 -1.5735
14967TIP3    H266393   2.127   4.031   3.192  2.0126 -0.0020  0.6314
14968TIP3   OH266394   3.158   4.643   1.419 -0.4716 -0.2155  0.5087
14968TIP3    H166395   3.221   4.673   1.485  0.3976  0.4761 -0.5913
14968TIP3    H266396   3.200   4.664   1.335 -2.1738  0.2470 -0.2633
14969TIP3   OH266397   4.823   4.464  11.275  0.3601  0.1213  0.4594
14969TIP3    H166398   4.761   4.404  11.316  0.3919 -0.7121 -0.6732
14969TIP3    H266399   4.869   4.504  11.349 -0.8724  0.0735  1.2892
14970TIP3   OH266400   0.694   3.536  16.789  0.0073  0.3705 -0.5480
14970TIP3    H166401   0.606   3.501  16.804  0.4674 -0.5962 -0.0023
14970TIP3    H266402   0.686   3.588  16.709 -0.8311 -0.5266 -1.0725
14971TIP3   OH266403   1.917   5.735   1.045 -0.5098  0.1247  0.1255
14971TIP3    H166404   1.887   5.677   1.115  0.9616 -0.7342  0.0865
14971TIP3    H266405   1.959   5.676   0.982  1.9902  1.2958  0.5868
14972TIP3   OH266406   3.976   1.969  11.211 -0.2554 -0.3376  0.3734
14972TIP3    H166407   4.067   1.997  11.224 -0.1212  0.0119 -1.0890
14972TIP3    H266408   3.982   1.893  11.153 -0.8529 -0.9119  1.0452
14973TIP3   OH266409   1.810   3.739   5.898  0.2820  0.3025  0.1136
14973TIP3    H166410   1.822   3.644   5.910  0.8644  0.3538 -0.0298
14973TIP3    H266411   1.717   3.754   5.916  0.4199 -0.1238  1.2772
14974TIP3   OH266412   6.079   0.251   4.679  0.1060  0.8596  0.0601
14974TIP3    H166413   6.109   0.252   4.588  0.2504  1.8788  0.1131
14974TIP3    H266414   6.146   0.300   4.727  0.6146 -0.6034  0.9122
14975TIP3   OH266415   4.322   3.078   0.103  0.5972  0.2851  0.5418
14975TIP3    H166416   4.343   3.170   0.090  0.6883  0.6029  2.6375
14975TIP3    H266417   4.390   3.031   0.054  1.6204  1.3288  0.8995
14976TIP3   OH266418   1.873   3.691  13.445 -0.1110  0.0100 -0.0043
14976TIP3    H166419   1.945   3.738  13.403 -1.1503  0.6188 -1.1683
14976TIP3    H266420   1.824   3.653  13.372 -1.0141 -0.3313  0.7635
14977TIP3   OH266421   6.192   5.237   3.915 -0.2183  0.1322  0.8942
14977TIP3    H166422   6.126   5.168   3.912  1.3349 -1.3690 -0.6240
14977TIP3    H266423   6.188   5.278   3.829 -0.9114  1.8057  1.6715
14978TIP3   OH266424   4.679   1.010   2.829  0.0899  0.0773  0.4536
14978TIP3    H166425   4.605   1.066   2.804  0.3882 -0.0929 -0.8836
14978TIP3    H266426   4.653   0.923   2.798  0.5035 -0.1354  0.7035
14979TIP3   OH266427   0.379   1.009  16.540  0.1601  0.1672 -0.3140
14979TIP3    H166428   0.408   0.969  16.458 -0.1154  0.7706 -0.7125
14979TIP3    H266429   0.286   0.988  16.545  0.1742  0.1402 -0.1525
14980TIP3   OH266430   4.025   4.520   4.490 -0.7201  0.2207 -0.1503
14980TIP3    H166431   3.962   4.448   4.494  1.4803 -1.7719  0.8932
14980TIP3    H266432   4.110   4.479   4.508  0.8076  2.9043 -0.7068
14981TIP3   OH266433   4.991   5.561  14.790 -0.5017 -0.0841 -0.0803
14981TIP3    H166434   4.950   5.626  14.733 -1.8266 -0.9912 -0.2197
14981TIP3    H266435   5.047   5.611  14.849 -1.6624  1.2013 -0.0237
14982TIP3   OH266436   6.787   2.749   3.491 -0.1231  0.1325  0.3149
14982TIP3    H166437   6.768   2.682   3.556 -1.3088  0.6269  0.5030
14982TIP3    H266438   6.707   2.802   3.487 -0.0074  0.2399 -1.3772
14983TIP3   OH266439   5.455   2.058  13.050  0.2200  0.2524 -0.3766
14983TIP3    H166440   5.475   2.003  13.126  0.1644  1.5495  0.6173
14983TIP3    H266441   5.539   2.096  13.025 -0.0600  1.4627  0.3948
14984TIP3   OH266442   4.582   6.506  16.761 -0.1046 -0.0010 -0.3405
14984TIP3    H166443   4.499   6.553  16.749  0.3485  0.5354 -1.4668
14984TIP3    H266444   4.648   6.575  16.770  0.1178 -0.4028  1.6750
14985TIP3   OH266445   4.896   2.207   6.140  0.0142  0.3720 -0.4399
14985TIP3    H166446   4.884   2.122   6.182 -1.7522 -0.1661 -1.8641
14985TIP3    H266447   4.934   2.186   6.054  1.5786  1.2436  0.0054
14986TIP3   OH266448   2.987   6.344  11.562 -0.5104 -0.2342 -0.2857
14986TIP3    H166449   3.056   6.411  11.558 -0.6744 -0.0973 -1.2331
14986TIP3    H266450   3.002   6.299  11.645  0.7159 -0.1975 -0.4622
14987TIP3   OH266451   0.916   3.679   2.294  0.4082  0.4987  0.5573
14987TIP3    H166452   0.959   3.599   2.323 -1.8267 -0.5310  1.2951
14987TIP3    H266453   0.924   3.679   2.199  2.4195  0.6565  0.6812
14988TIP3   OH266454   1.124   5.282  14.819 -0.3894 -0.2186 -0.5814
14988TIP3    H166455   1.057   5.286  14.887 -0.2738  0.4269 -0.4974
14988TIP3    H266456   1.188   5.348  14.844  1.2432 -2.0417  0.3188
14989TIP3   OH266457   1.836   3.799   4.134 -0.2048  0.1752  0.2936
14989TIP3    H166458   1.923   3.831   4.110 -1.3171  3.4239  0.0772
14989TIP3    H266459   1.831   3.812   4.229 -0.0600 -1.1940  0.5080
14990TIP3   OH266460   0.322   4.842  15.098 -0.0568 -0.4260  0.0396
14990TIP3    H166461   0.350   4.876  15.183 -0.4940 -1.3651  0.5782
14990TIP3    H266462   0.376   4.888  15.034  0.2344  0.3426  0.8212
14991TIP3   OH266463   3.218   5.890  12.920 -0.0419 -0.1822  0.0752
14991TIP3    H166464   3.271   5.823  12.877  0.7123 -0.8081  1.8669
14991TIP3    H266465   3.281   5.944  12.967 -0.7591  1.0101 -0.2936
14992TIP3   OH266466   3.909   6.375  13.614 -0.4386  1.1522 -0.0756
14992TIP3    H166467   3.907   6.416  13.527 -1.5772 -1.1810 -1.2433
14992TIP3    H266468   4.002   6.354  13.628 -0.4230  0.0614 -1.5458
14993TIP3   OH266469   2.131   2.602  16.529 -0.3015  0.2060  0.2840
14993TIP3    H166470   2.101   2.559  16.608 -2.1764  1.5913  0.3756
14993TIP3    H266471   2.145   2.694  16.554 -0.1106  0.4918 -0.7933
14994TIP3   OH266472   2.485   3.096   1.192  0.8652 -0.0894  0.1597
14994TIP3    H166473   2.448   3.115   1.278  1.1560 -0.2800  0.3308
14994TIP3    H266474   2.417   3.121   1.130  0.8733  0.5888  0.4180
14995TIP3   OH266475   1.313   0.512   0.345  0.0933 -0.6143 -0.0791
14995TIP3    H166476   1.403   0.478   0.356  1.1520  1.2310 -2.3124
14995TIP3    H266477   1.282   0.471   0.265 -0.4198  0.0344 -0.2160
14996TIP3   OH266478   5.677   5.224   3.443  0.3602 -0.4680  0.0258
14996TIP3    H166479   5.598   5.220   3.497  0.4214 -0.2599  0.1312
14996TIP3    H266480   5.727   5.146   3.469 -0.6956 -1.7222 -1.4460
14997TIP3   OH266481   2.971   2.043  12.238 -0.1186  0.4568  0.4755
14997TIP3    H166482   3.004   2.008  12.321  0.2040 -0.3203  0.0263
14997TIP3    H266483   2.964   2.137  12.254 -1.3493  0.1730  1.8196
14998TIP3   OH266484   5.094   0.510  11.142 -0.2572  0.4045  0.3395
14998TIP3    H166485   5.062   0.422  11.125 -0.6729  0.3670  1.2251
14998TIP3    H266486   5.182   0.512  11.105  0.0229 -0.6128  0.9228
14999TIP3   OH266487   0.977   1.548   6.183 -0.6860 -0.7542 -0.0120
14999TIP3    H166488   1.044   1.584   6.243  1.7101 -3.4919 -0.8181
14999TIP3    H266489   0.987   1.600   6.103  3.2604 -3.2130 -1.4423
15000TIP3   OH266490   5.830   5.469  14.040 -0.6850 -0.0191 -0.2688
15000TIP3    H166491   5.910   5.521  14.048 -0.4119 -0.5028  0.1954
15000TIP3    H266492   5.831   5.436  13.950  0.9296 -2.0723  0.4240
15001TIP3   OH266493   2.136   2.412  10.984  1.1293  0.2957 -0.2425
15001TIP3    H166494   2.218   2.409  11.034  0.1230 -3.6338  1.5999
15001TIP3    H266495   2.070   2.435  11.049  0.3345 -0.4259 -0.7704
15002TIP3   OH266496   4.126   5.057  17.153  0.1048 -0.0553  0.5965
15002TIP3    H166497   4.131   5.056  17.058 -0.3918  0.8468  0.5569
15002TIP3    H266498   4.035   5.079  17.173 -0.0290 -1.1197  1.2939
15003TIP3   OH266499   5.080   3.308  13.484  0.0170  0.0608 -0.6913
15003TIP3    H166500   5.107   3.389  13.440  2.0558  0.0532  0.4402
15003TIP3    H266501   5.160   3.257  13.490 -1.1813 -1.9624 -1.1267
15004TIP3   OH266502   0.701   2.171   5.259 -0.3958 -0.0171  1.2247
15004TIP3    H166503   0.795   2.178   5.270 -0.1318 -0.5680 -0.4053
15004TIP3    H266504   0.682   2.078   5.272 -0.3484 -0.3301 -0.6421
15005TIP3   OH266505   4.454   4.414   1.375  0.1699  0.4368 -0.2294
15005TIP3    H166506   4.533   4.373   1.411 -2.6030 -2.9348  2.8240
15005TIP3    H266507   4.453   4.387   1.283  2.1621 -0.1235 -0.1417
15006TIP3   OH266508   0.533   5.177  11.926  0.1634  0.0287 -1.1240
15006TIP3    H166509   0.517   5.118  12.000 -0.4125  0.8111 -0.6169
15006TIP3    H266510   0.453   5.171  11.874 -0.8440  2.0432  0.1021
15007TIP3   OH266511   0.077   3.277   1.062  0.8085  0.5697 -0.2606
15007TIP3    H166512   0.123   3.353   1.027 -1.1859  1.1859 -1.7596
15007TIP3    H266513   0.096   3.207   1.000  0.9719  0.3985 -0.0198
15008TIP3   OH266514   5.561   6.232   0.587 -0.2218 -0.1536 -0.5821
15008TIP3    H166515   5.478   6.185   0.578 -0.7889  0.9316 -1.3214
15008TIP3    H266516   5.551   6.283   0.667 -0.4089  0.2372 -0.8525
15009TIP3   OH266517   5.513   0.085   0.223 -0.1844 -0.0905 -0.0403
15009TIP3    H166518   5.570   0.020   0.183 -0.5909  0.3555 -1.3838
15009TIP3    H266519   5.425   0.051   0.211 -0.2605 -0.7296  1.9472
15010TIP3   OH266520   5.562   2.729   0.919 -0.3517 -0.0308  0.6910
15010TIP3    H166521   5.492   2.780   0.960  0.0013  2.4509 -1.6006
15010TIP3    H266522   5.517   2.676   0.853 -0.3663 -0.6912  1.2107
15011TIP3   OH266523   2.663   3.186  12.021  0.6992  0.3224 -0.8207
15011TIP3    H166524   2.604   3.165  12.093  1.3237  1.3339  0.0064
15011TIP3    H266525   2.661   3.281  12.015  1.1140  0.2846 -1.7487
15012TIP3   OH266526   5.042   1.025   2.335 -0.5512 -0.2388  0.3413
15012TIP3    H166527   4.985   1.026   2.258  0.5090  0.5866 -0.4653
15012TIP3    H266528   5.001   1.088   2.395  0.1285  1.3206 -0.7418
15013TIP3   OH266529   2.570   4.122   3.339  0.0469  0.0809 -0.1286
15013TIP3    H166530   2.543   4.129   3.430  1.5087 -0.6420  0.3867
15013TIP3    H266531   2.660   4.153   3.338  0.4518 -1.0570 -1.1022
15014TIP3   OH266532   6.085   0.327  14.783 -0.4200 -0.0939 -0.1236
15014TIP3    H166533   6.069   0.256  14.845  1.2444 -2.2066 -1.9189
15014TIP3    H266534   6.108   0.402  14.838 -2.2003 -0.8795  1.8613
15015TIP3   OH266535   3.812   2.643   0.904  0.2015 -0.5389 -0.3821
15015TIP3    H166536   3.839   2.593   0.982 -0.0786 -1.0431 -0.6046
15015TIP3    H266537   3.845   2.731   0.920  1.3362 -0.9578 -0.2962
15016TIP3   OH266538   1.766   1.666  11.004 -0.1652  0.1420 -0.1306
15016TIP3    H166539   1.770   1.666  10.909  0.1889 -1.2042 -0.1479
15016TIP3    H266540   1.744   1.575  11.027 -1.1343  0.6465  1.0483
15017TIP3   OH266541   5.403   6.488  10.410  0.2130  0.6179  0.9688
15017TIP3    H166542   5.310   6.499  10.389  0.0421 -0.2589  1.2247
15017TIP3    H266543   5.404   6.438  10.491  0.9139  0.7086  1.0240
15018TIP3   OH266544   0.610   4.150   6.126  0.5602  0.3380  0.3102
15018TIP3    H166545   0.617   4.129   6.219 -0.1094  1.9250  0.7489
15018TIP3    H266546   0.641   4.240   6.120 -1.5044  1.0332 -0.6343
15019TIP3   OH266547   5.645   4.207   2.139  0.0299 -0.8099 -0.1163
15019TIP3    H166548   5.731   4.207   2.097 -0.3179 -1.7184 -0.8839
15019TIP3    H266549   5.660   4.169   2.226  0.6069  0.2358  0.2507
15020TIP3   OH266550   6.254   0.070  13.312 -0.1847 -0.2570  0.3905
15020TIP3    H166551   6.238   0.043  13.402  1.0260 -2.4081  0.0228
15020TIP3    H266552   6.339   0.114  13.315 -1.7925  3.1787  0.8481
15021TIP3   OH266553   4.705   0.222  12.942 -0.5625 -0.1360 -0.2949
15021TIP3    H166554   4.762   0.298  12.934 -0.3314  0.1867  3.1044
15021TIP3    H266555   4.617   0.259  12.953 -0.7500 -0.4466 -0.7253
15022TIP3   OH266556   6.716   1.105   1.071  0.2968  0.3073  0.6659
15022TIP3    H166557   6.754   1.057   0.997 -0.6770 -0.4193  0.6225
15022TIP3    H266558   6.726   1.046   1.145 -1.0863 -0.0688  0.5740
15023TIP3   OH266559   3.282   3.405   5.660  0.4781 -0.2740 -0.0172
15023TIP3    H166560   3.189   3.426   5.673  0.2216 -2.5779  2.9471
15023TIP3    H266561   3.282   3.343   5.587 -0.1191  0.5776 -0.7772
15024TIP3   OH266562   6.214   4.036  12.853  0.5366  0.1968  0.0488
15024TIP3    H166563   6.223   4.015  12.760  1.0440  2.3868 -0.4504
15024TIP3    H266564   6.238   3.955  12.898 -0.5109 -1.1636 -1.7148
15025TIP3   OH266565   0.451   3.784  11.631 -0.0240  0.6934  0.1654
15025TIP3    H166566   0.362   3.748  11.631 -0.1472  0.9333  1.8378
15025TIP3    H266567   0.498   3.730  11.567 -0.9144 -0.6221  0.5663
15026TIP3   OH266568   6.621   2.652   0.276 -0.2084 -0.1451  0.4523
15026TIP3    H166569   6.637   2.705   0.198 -0.1232 -0.3195  0.3537
15026TIP3    H266570   6.543   2.601   0.255 -1.3693  1.2452  1.1991
15027TIP3   OH266571   0.121   4.351  16.193  0.6213  0.3000  0.2273
15027TIP3    H166572   0.080   4.393  16.268 -1.6706  1.1256 -1.3921
15027TIP3    H266573   0.175   4.282  16.231 -0.7685  0.4151  2.5930
15028TIP3   OH266574   0.880   1.854  12.949 -0.5182 -0.4614 -0.1682
15028TIP3    H166575   0.812   1.839  13.015 -0.0319  2.2479  1.1015
15028TIP3    H266576   0.934   1.775  12.952 -0.9115 -0.7319  2.2396
15029TIP3   OH266577   2.517   3.640   1.808 -0.4270 -0.4206  0.0544
15029TIP3    H166578   2.424   3.652   1.790 -0.2230 -0.6096 -1.2680
15029TIP3    H266579   2.536   3.550   1.779  0.6594  0.4280 -2.1432
15030TIP3   OH266580   3.451   0.557   0.239 -0.2888  0.0387 -0.3007
15030TIP3    H166581   3.451   0.564   0.144  1.2958 -0.6852 -0.3866
15030TIP3    H266582   3.518   0.492   0.258  0.2994  1.0805  1.3833
15031TIP3   OH266583   3.065   3.215  17.069 -0.8337 -0.0484  0.0494
15031TIP3    H166584   3.061   3.245  16.978 -1.7988  2.9665  0.9714
15031TIP3    H266585   3.135   3.266  17.109 -2.0022  0.4626  1.5379
15032TIP3   OH266586   5.018   0.922  12.719  0.2119  0.5030  0.3434
15032TIP3    H166587   5.026   0.912  12.624  1.3185  0.6917  0.3952
15032TIP3    H266588   4.926   0.907  12.737  0.1194 -0.2959 -0.6727
15033TIP3   OH266589   2.231   2.598   3.900 -0.3345 -0.7434  0.0869
15033TIP3    H166590   2.137   2.579   3.892 -0.5337 -0.2960  1.1649
15033TIP3    H266591   2.260   2.613   3.810 -1.3640 -0.6059 -0.2396
15034TIP3   OH266592   1.604   6.103   1.368  0.1533  0.3824  0.7919
15034TIP3    H166593   1.628   6.066   1.453 -2.3847  2.3725  2.5419
15034TIP3    H266594   1.572   6.190   1.389 -3.3695 -0.1032 -1.8055
15035TIP3   OH266595   0.200   5.045   6.723  0.3031  0.1448  0.0666
15035TIP3    H166596   0.285   5.056   6.681  1.4463 -2.5940  1.4384
15035TIP3    H266597   0.219   5.043   6.817 -1.5007  0.9011  0.5094
15036TIP3   OH266598   4.727   3.671  14.863 -0.2258 -0.2382 -0.9342
15036TIP3    H166599   4.703   3.703  14.950 -2.5220 -2.0792 -0.7915
15036TIP3    H266600   4.766   3.585  14.879 -0.4014 -0.4670 -1.6803
15037TIP3   OH266601   1.040   0.141   3.845  0.5689 -0.4690 -0.4015
15037TIP3    H166602   1.121   0.114   3.802  1.1166 -0.2577  0.4741
15037TIP3    H266603   1.054   0.234   3.866 -0.1679 -0.2445 -0.8323
15038TIP3   OH266604   4.703   4.712  15.490 -0.2233 -0.0301  0.4587
15038TIP3    H166605   4.793   4.684  15.474  0.0665 -0.2520  2.2314
15038TIP3    H266606   4.688   4.784  15.429  2.0057  1.6610  1.7930
15039TIP3   OH266607   4.009   3.207  11.526  0.2556 -0.6690 -0.0563
15039TIP3    H166608   4.103   3.220  11.539 -0.0066  2.0577 -0.2916
15039TIP3    H266609   3.983   3.279  11.468 -2.1114 -0.9026  0.6076
15040TIP3   OH266610   0.058   5.051   2.329 -0.2488 -0.0606  0.3791
15040TIP3    H166611   0.073   5.112   2.401  0.5626 -0.5612  0.6537
15040TIP3    H266612   0.090   5.097   2.251  1.2358 -0.4649  0.7167
15041TIP3   OH266613   6.817   4.294  14.290  0.5002 -0.3473 -0.1567
15041TIP3    H166614   6.862   4.324  14.212 -0.1833 -0.3054 -0.5391
15041TIP3    H266615   6.868   4.219  14.320  1.8168  0.7388  0.4039
15042TIP3   OH266616   1.913   6.016   2.329 -0.3175 -0.7214  0.5436
15042TIP3    H166617   1.955   6.039   2.412  1.7747  0.0708 -0.6523
15042TIP3    H266618   1.821   6.041   2.341 -0.6360 -2.7266  3.3491
15043TIP3   OH266619   6.757   0.791  12.919  0.0096  0.4633  0.0565
15043TIP3    H166620   6.852   0.786  12.935  0.1142 -0.2096 -0.7240
15043TIP3    H266621   6.744   0.742  12.838 -1.0630  0.2458  0.3520
15044TIP3   OH266622   1.780   3.315   3.239 -0.3467 -0.3111 -0.5119
15044TIP3    H166623   1.856   3.267   3.204 -0.2452 -0.8834  0.4722
15044TIP3    H266624   1.814   3.403   3.257 -0.2021 -0.2385 -1.1150
15045TIP3   OH266625   3.814   1.403   3.174  0.1148 -0.1044  0.5506
15045TIP3    H166626   3.810   1.335   3.107 -1.2994  0.9968 -0.5299
15045TIP3    H266627   3.870   1.471   3.136 -0.6607  0.5081  0.4857
15046TIP3   OH266628   6.703   5.463   6.221  0.7562 -0.0929 -0.1722
15046TIP3    H166629   6.679   5.460   6.128  0.2383  1.5785 -0.1345
15046TIP3    H266630   6.668   5.383   6.258  0.0162 -0.2668 -1.2122
15047TIP3   OH266631   4.854   5.668   3.373 -0.0018  0.5611 -0.4280
15047TIP3    H166632   4.799   5.699   3.445 -0.0753 -0.5723  0.0266
15047TIP3    H266633   4.927   5.624   3.415 -0.3781 -0.6932 -1.0275
15048TIP3   OH266634   1.578   6.664  14.376 -0.2389 -0.4770 -0.2800
15048TIP3    H166635   1.496   6.619  14.357  0.1846 -0.9960 -0.9010
15048TIP3    H266636   1.621   6.611  14.443  0.1981 -0.9499 -0.9159
15049TIP3   OH266637   2.299   0.237  14.376 -0.9151  0.4855  0.1457
15049TIP3    H166638   2.370   0.282  14.329 -2.4418 -0.7187 -3.7767
15049TIP3    H266639   2.252   0.307  14.421  0.3518  1.8858 -0.6009
15050TIP3   OH266640   3.008   6.610   1.363  0.6264 -0.2449 -0.1889
15050TIP3    H166641   3.058   6.551   1.420 -1.2415 -0.4114  1.4098
15050TIP3    H266642   2.952   6.552   1.312 -0.5449  0.0255  0.7217
15051TIP3   OH266643   3.417   4.724   6.408 -0.6258 -0.0057 -0.0189
15051TIP3    H166644   3.489   4.668   6.438 -0.9748  0.5808  2.0314
15051TIP3    H266645   3.352   4.719   6.478  0.3587  4.9040  1.5894
15052TIP3   OH266646   0.612   6.608  12.644 -0.0842 -0.3018 -0.0988
15052TIP3    H166647   0.549   6.598  12.573  1.0276 -0.6933 -1.0790
15052TIP3    H266648   0.631   6.702  12.647 -0.2307 -0.2675 -0.2384
15053TIP3   OH266649   3.808   0.690  14.371  0.0433 -0.1042  0.2358
15053TIP3    H166650   3.821   0.770  14.319 -0.2676  0.1184  0.4950
15053TIP3    H266651   3.714   0.675  14.369  0.0256 -0.0785  0.7460
15054TIP3   OH266652   3.868   5.789   5.510  0.6365  0.1889  0.2109
15054TIP3    H166653   3.924   5.859   5.476  1.6077 -1.4517 -1.8876
15054TIP3    H266654   3.799   5.781   5.445 -0.8090  0.6938  1.6355
15055TIP3   OH266655   3.436   1.704   5.490  0.1665 -0.2473 -0.0579
15055TIP3    H166656   3.491   1.753   5.429  0.1932  0.6890  0.6967
15055TIP3    H266657   3.355   1.687   5.441 -0.2390  1.4188 -0.0295
15056TIP3   OH266658   5.638   2.277   2.428  0.0659 -0.3283  0.0168
15056TIP3    H166659   5.580   2.275   2.352 -0.3775 -0.7476  0.3594
15056TIP3    H266660   5.630   2.190   2.466  1.4585 -0.6284 -0.3289
15057TIP3   OH266661   2.026   2.515  11.243  0.6056  0.2181  0.2694
15057TIP3    H166662   2.042   2.600  11.202  1.8812 -0.4064 -0.5948
15057TIP3    H266663   2.095   2.507  11.309 -0.7129  0.6910  1.7621
15058TIP3   OH266664   4.797   6.328   3.131  0.5997  0.3623  0.0782
15058TIP3    H166665   4.762   6.294   3.048 -0.0008 -0.3030  0.5858
15058TIP3    H266666   4.789   6.423   3.123 -0.8299  0.2559 -0.0610
15059TIP3   OH266667   0.070   0.893   5.524  0.1217 -0.2041  0.5140
15059TIP3    H166668   0.115   0.974   5.550 -0.8420  0.4641  0.1676
15059TIP3    H266669  -0.008   0.891   5.580  0.4609 -1.2374  0.9675
15060TIP3   OH266670   4.657   6.668  14.202  0.1256  0.1605  0.8060
15060TIP3    H166671   4.619   6.755  14.214  0.6784  0.7599 -1.2831
15060TIP3    H266672   4.627   6.642  14.114  2.1475 -0.5666  0.2836
15061TIP3   OH266673   1.483   0.074   3.505  0.1507  0.0861 -0.0270
15061TIP3    H166674   1.425   0.087   3.580  0.7340  0.7842  0.3251
15061TIP3    H266675   1.488  -0.021   3.494 -0.8814  0.0112  0.0598
15062TIP3   OH266676   5.454   5.983   4.313  0.6635 -0.3954 -1.0898
15062TIP3    H166677   5.451   5.926   4.237 -1.0336  0.9635 -2.1034
15062TIP3    H266678   5.488   6.066   4.281  2.3689 -0.5313  0.2032
15063TIP3   OH266679   0.484   0.404  10.770  0.2193  0.0590  0.2596
15063TIP3    H166680   0.446   0.364  10.692 -2.1876  1.3867  0.6820
15063TIP3    H266681   0.518   0.330  10.820 -1.2697 -1.1471 -0.4452
15064TIP3   OH266682   0.626   2.963   3.235  0.3672  0.7223 -0.2789
15064TIP3    H166683   0.630   2.887   3.177 -1.5674 -0.8230  1.4714
15064TIP3    H266684   0.540   2.957   3.277  1.2333  2.3571  1.9348
15065TIP3   OH266685   2.079   5.500  14.656 -0.3458  0.1172 -0.0697
15065TIP3    H166686   2.151   5.556  14.687 -0.6263  0.7517 -0.5383
15065TIP3    H266687   2.100   5.413  14.690 -0.1647  0.6018  1.1249
15066TIP3   OH266688   3.049   4.725  12.969 -0.3236  0.2573  0.2386
15066TIP3    H166689   3.102   4.805  12.983 -1.4101  1.3830 -1.7313
15066TIP3    H266690   3.084   4.687  12.889 -1.9382  0.5675 -0.6365
15067TIP3   OH266691   0.288   1.695  14.848  0.0727 -0.3760  0.0292
15067TIP3    H166692   0.302   1.771  14.904 -0.2086 -0.8641  0.7674
15067TIP3    H266693   0.309   1.727  14.760  0.2384  0.4737  0.3635
15068TIP3   OH266694   0.319   1.240  16.848  0.6983 -0.0119 -0.0260
15068TIP3    H166695   0.409   1.222  16.823  0.5983  1.0551 -1.2582
15068TIP3    H266696   0.271   1.160  16.825  1.1273 -0.1429 -0.4594
15069TIP3   OH266697   6.241   3.458   4.924 -0.3016  0.4977 -0.4093
15069TIP3    H166698   6.227   3.543   4.967 -1.5123  1.0742 -1.8420
15069TIP3    H266699   6.255   3.397   4.996  1.2172  1.9960  0.6421
15070TIP3   OH266700   6.296   0.479  14.106 -0.2224 -0.1629 -0.2685
15070TIP3    H166701   6.267   0.565  14.075 -1.4883 -0.3021  0.4937
15070TIP3    H266702   6.357   0.498  14.177 -0.6760  0.0914  0.0489
15071TIP3   OH266703   2.206   3.056   3.509  0.3773 -0.6084  0.4765
15071TIP3    H166704   2.164   2.995   3.570  1.4471 -1.8142  0.0278
15071TIP3    H266705   2.300   3.044   3.523  0.6194  0.3966 -0.1693
15072TIP3   OH266706   5.732   1.292  10.253  0.2452  0.3065  0.1043
15072TIP3    H166707   5.813   1.321  10.297  2.0546  1.6337 -3.6425
15072TIP3    H266708   5.724   1.350  10.177 -2.6073 -1.7348 -1.3529
15073TIP3   OH266709   2.951   4.821  12.312  0.0071  0.2703  0.1531
15073TIP3    H166710   2.870   4.800  12.265  1.3208 -1.3062 -1.5925
15073TIP3    H266711   2.949   4.916  12.322 -1.4231  0.4172 -1.1176
15074TIP3   OH266712   0.754   4.093   2.959 -0.0892 -0.4724  0.2943
15074TIP3    H166713   0.688   4.153   2.923  0.8054  0.0111 -0.5801
15074TIP3    H266714   0.838   4.128   2.929  0.5787 -1.1025  1.3534
15075TIP3   OH266715   2.608   0.818  10.431  0.6477 -0.8151  0.0254
15075TIP3    H166716   2.703   0.819  10.435  0.6933 -1.0462 -0.8056
15075TIP3    H266717   2.587   0.740  10.381  0.0334 -0.5373 -0.1572
15076TIP3   OH266718   2.796   4.769  16.818 -0.4414  0.2598 -0.3943
15076TIP3    H166719   2.784   4.688  16.867 -1.4776  1.9647  2.4746
15076TIP3    H266720   2.890   4.774  16.801 -0.2145 -0.9880  0.3895
15077TIP3   OH266721   3.336   5.876  14.746 -0.0830  0.0742 -0.0492
15077TIP3    H166722   3.323   5.793  14.699 -2.7598 -0.1379  0.8898
15077TIP3    H266723   3.380   5.851  14.827  1.9637  0.0603 -1.1039
15078TIP3   OH266724   2.300   0.136  11.856 -0.1684  0.4926 -0.1618
15078TIP3    H166725   2.231   0.111  11.916  1.0114 -2.0353  0.2537
15078TIP3    H266726   2.349   0.204  11.903 -0.0694 -0.4743  1.1773
15079TIP3   OH266727   5.453   6.468  11.008 -0.9087  0.4795 -0.8161
15079TIP3    H166728   5.416   6.486  10.921  1.5404  0.9318 -1.8416
15079TIP3    H266729   5.547   6.465  10.994 -0.5569 -2.1043  1.3850
15080TIP3   OH266730   5.863   1.870   0.286  0.3479 -0.3561  0.0462
15080TIP3    H166731   5.835   1.778   0.288 -1.1459  0.0763  1.0526
15080TIP3    H266732   5.784   1.918   0.261  1.1108  0.6808 -0.4583
15081TIP3   OH266733   5.872   1.479   0.126 -0.1700  0.2513  0.6306
15081TIP3    H166734   5.959   1.465   0.089  0.3838 -0.1360  1.9852
15081TIP3    H266735   5.827   1.396   0.114 -0.2341  0.3415  0.2381
15082TIP3   OH266736   3.717   6.059   5.680  0.5593  0.5846 -0.2484
15082TIP3    H166737   3.737   6.124   5.613 -0.9279  0.6011 -0.7044
15082TIP3    H266738   3.696   5.980   5.631  2.3613 -0.3042  0.3001
15083TIP3   OH266739   3.009   5.252   1.485 -0.3814  0.1592 -0.6908
15083TIP3    H166740   2.940   5.187   1.471  0.3867 -0.3802 -2.1091
15083TIP3    H266741   3.074   5.233   1.418  0.7573  1.2035  0.0835
15084TIP3   OH266742   1.100   2.647   4.629 -0.0412 -0.4612  0.3319
15084TIP3    H166743   1.106   2.552   4.614  2.4091 -0.5077  1.1742
15084TIP3    H266744   1.101   2.656   4.725  2.2864  0.4743  0.2660
15085TIP3   OH266745   3.303   0.605  15.736 -0.5998 -0.0172 -0.6096
15085TIP3    H166746   3.398   0.605  15.747 -0.5947  1.1139 -0.5580
15085TIP3    H266747   3.288   0.660  15.659 -1.1068 -1.7505 -1.8155
15086TIP3   OH266748   1.498   3.601   5.353 -0.1022 -0.3335 -0.3165
15086TIP3    H166749   1.489   3.616   5.259 -0.9784  0.7590 -0.0839
15086TIP3    H266750   1.434   3.533   5.373  0.9353 -1.4538 -0.6883
15087TIP3   OH266751   2.646   2.710   4.079  0.1548  0.4969  0.5728
15087TIP3    H166752   2.699   2.722   4.158  0.4877 -0.0926  0.4400
15087TIP3    H266753   2.699   2.654   4.023 -0.3512  0.4028  0.1858
15088TIP3   OH266754   0.339   4.360  12.424  0.1459 -0.5969  0.4097
15088TIP3    H166755   0.312   4.294  12.488  0.1884 -0.9709  0.0477
15088TIP3    H266756   0.378   4.309  12.353  0.9230 -0.1285  0.4892
15089TIP3   OH266757   0.434   5.040  16.235 -0.4641  0.2174 -0.2430
15089TIP3    H166758   0.449   4.954  16.274 -1.3239  1.0037  1.9611
15089TIP3    H266759   0.508   5.092  16.265 -1.4227  0.9804  0.8990
15090TIP3   OH266760   0.891   4.464  16.772 -0.3534  0.3992 -0.5726
15090TIP3    H166761   0.882   4.522  16.696  3.0956  1.8345 -0.1132
15090TIP3    H266762   0.911   4.523  16.844 -0.4318 -1.1453  0.7588
15091TIP3   OH266763   5.368   0.643   2.755 -0.6001  0.8398 -0.0736
15091TIP3    H166764   5.329   0.616   2.838 -1.0420  0.7565 -0.3059
15091TIP3    H266765   5.346   0.572   2.694  3.2347 -1.2756  0.6697
15092TIP3   OH266766   4.570   4.261   0.519 -0.5717  0.3148  0.4208
15092TIP3    H166767   4.640   4.326   0.518 -0.2704  0.0116  1.0777
15092TIP3    H266768   4.491   4.312   0.543 -0.5750  0.6459 -0.2727
15093TIP3   OH266769   2.579   1.617   4.028  0.8423  0.4072 -0.5800
15093TIP3    H166770   2.586   1.662   3.943 -0.2821  0.2645 -0.7676
15093TIP3    H266771   2.548   1.684   4.088  1.1039  0.3751 -0.4122
15094TIP3   OH266772   3.640   4.077  15.488 -0.4149  0.2589 -0.4404
15094TIP3    H166773   3.718   4.130  15.473 -0.3283  0.1677 -0.3143
15094TIP3    H266774   3.670   4.005  15.543 -0.1489 -0.9051 -2.0625
15095TIP3   OH266775   2.275   4.404   5.848  0.5351  0.6512 -0.2935
15095TIP3    H166776   2.283   4.475   5.785  0.8419 -0.0238 -1.0432
15095TIP3    H266777   2.181   4.383   5.850  0.5163  0.7235 -0.4698
15096TIP3   OH266778   0.594   3.283   5.652  0.9463  0.0917 -0.3961
15096TIP3    H166779   0.536   3.265   5.578  1.0116 -0.5187 -0.3027
15096TIP3    H266780   0.646   3.203   5.662  3.6980  1.4990 -2.1445
15097TIP3   OH266781   0.968   2.270  13.157 -0.0248 -0.2025  0.4976
15097TIP3    H166782   1.029   2.293  13.228 -1.9475  3.1384  1.3070
15097TIP3    H266783   0.894   2.230  13.202 -0.0061 -0.8012 -0.0021
15098TIP3   OH266784   0.195   1.671  13.963 -0.3048 -0.4472  0.1999
15098TIP3    H166785   0.184   1.662  13.868 -1.6404 -0.4890  0.3316
15098TIP3    H266786   0.176   1.764  13.980 -1.0415 -0.6461  0.5210
15099TIP3   OH266787   4.562   0.124   2.519  0.1813 -0.1842  0.1268
15099TIP3    H166788   4.516   0.194   2.566  2.0328  2.5720 -1.8881
15099TIP3    H266789   4.635   0.101   2.576 -0.0046  0.0633  0.4692
15100TIP3   OH266790   3.239   1.364  13.717  0.2074 -0.2790 -0.5181
15100TIP3    H166791   3.172   1.424  13.684  2.3418  1.2955 -2.2618
15100TIP3    H266792   3.322   1.402  13.689  1.8170 -2.8944  0.2982
15101TIP3   OH266793   5.916   4.477   2.966 -0.0597  0.2505 -0.2941
15101TIP3    H166794   5.858   4.419   3.016 -1.5896  0.0517 -2.2092
15101TIP3    H266795   5.995   4.425   2.950 -0.3696 -0.3783  0.1807
15102TIP3   OH266796   2.232   2.594  13.633 -0.3963 -0.1078 -0.1827
15102TIP3    H166797   2.230   2.499  13.622 -0.0642 -0.6575  3.1822
15102TIP3    H266798   2.294   2.625  13.567 -0.7436 -2.1558 -1.5702
15103TIP3   OH266799   3.259   1.023   3.219  0.3118  0.1152 -0.3783
15103TIP3    H166800   3.180   1.075   3.233  0.0615 -0.5592  0.8831
15103TIP3    H266801   3.308   1.031   3.301 -0.7439 -3.2490  0.7883
15104TIP3   OH266802   1.801   3.544   5.656  0.1286 -0.5572  0.5748
15104TIP3    H166803   1.715   3.585   5.656  0.7510  0.8249  0.9259
15104TIP3    H266804   1.858   3.608   5.614  0.8971 -1.6882 -0.1746
15105TIP3   OH266805   0.639   5.267  13.552  0.3203 -0.5609  0.4463
15105TIP3    H166806   0.586   5.339  13.518  2.9957  3.0720  3.0872
15105TIP3    H266807   0.577   5.213  13.601 -1.6666  0.6220 -0.6424
15106TIP3   OH266808   5.643   2.158   4.352 -0.3281  0.0518 -0.1644
15106TIP3    H166809   5.651   2.249   4.323  2.0814  0.0574  0.3713
15106TIP3    H266810   5.564   2.126   4.308 -2.8405  3.1203  1.6169
15107TIP3   OH266811   1.494   0.625  14.886 -0.4183 -0.5891 -0.4380
15107TIP3    H166812   1.462   0.679  14.958  2.1980 -0.2192  0.5492
15107TIP3    H266813   1.469   0.536  14.910 -0.4863 -0.3482  0.4112
15108TIP3   OH266814   2.217   2.120  12.156 -0.0689 -0.3196 -0.2327
15108TIP3    H166815   2.192   2.079  12.073 -0.3007 -0.2776 -0.1841
15108TIP3    H266816   2.222   2.213  12.136 -0.6449 -0.2518 -0.0739
15109TIP3   OH266817   3.900   3.896   5.882  0.2519 -0.9099  0.0344
15109TIP3    H166818   3.856   3.909   5.966 -0.9414  0.2890 -0.7287
15109TIP3    H266819   3.980   3.849   5.903  0.0080 -0.5700  1.8438
15110TIP3   OH266820   5.253   0.137  11.933 -0.2933 -0.0221  0.7655
15110TIP3    H166821   5.329   0.147  11.875 -1.3515 -0.1941 -0.7092
15110TIP3    H266822   5.255   0.214  11.989 -0.7401  1.6043 -1.3445
15111TIP3   OH266823   0.776   4.290  13.918  0.1897 -0.0565  0.3271
15111TIP3    H166824   0.783   4.202  13.881 -1.2071  0.8148 -2.2884
15111TIP3    H266825   0.693   4.291  13.964  0.3319 -0.1728  0.5878
15112TIP3   OH266826   0.171   5.083  12.359  0.7879  0.4707  0.8060
15112TIP3    H166827   0.208   5.166  12.328 -0.2894  0.4308 -0.7348
15112TIP3    H266828   0.078   5.101  12.372  0.4006 -0.6280 -0.2006
15113TIP3   OH266829   5.420   5.297   3.471  0.4615  0.4141  0.2683
15113TIP3    H166830   5.451   5.387   3.459  1.1084  0.2351  0.5600
15113TIP3    H266831   5.376   5.298   3.556 -1.0595  0.8542 -0.4869
15114TIP3   OH266832   6.815   4.057   0.056  0.4217 -0.6243  0.1176
15114TIP3    H166833   6.769   4.138   0.079  0.2912 -0.7827  0.4082
15114TIP3    H266834   6.903   4.069   0.091 -0.0176 -1.2220  1.4787
15115TIP3   OH266835   4.387   6.630  16.997  0.2715 -0.5177  0.2013
15115TIP3    H166836   4.299   6.618  16.961 -0.0821 -1.1348  1.2142
15115TIP3    H266837   4.427   6.697  16.942  0.6396 -3.0409 -2.8699
15116TIP3   OH266838   0.957   1.987   4.821 -0.1844  0.1114 -0.2548
15116TIP3    H166839   1.001   1.974   4.737  0.1748  0.6937 -0.1620
15116TIP3    H266840   0.939   1.898   4.853 -0.4020 -0.1084 -0.9816
15117TIP3   OH266841   5.171   2.571  15.671 -0.4107  0.4595  0.2105
15117TIP3    H166842   5.139   2.565  15.761  0.3202 -0.5988  0.4189
15117TIP3    H266843   5.105   2.523  15.619 -1.0122  1.3659  0.1208
15118TIP3   OH266844   1.512   3.824  15.235  0.1358  0.1331 -0.5006
15118TIP3    H166845   1.444   3.812  15.301  0.5092 -1.1647 -0.3279
15118TIP3    H266846   1.509   3.918  15.215 -0.3783  0.4505  0.9162
15119TIP3   OH266847   3.855   1.302  15.387 -0.5868  0.4467 -0.3859
15119TIP3    H166848   3.853   1.239  15.459  0.0355 -0.3426 -1.0452
15119TIP3    H266849   3.779   1.358  15.403 -0.6410  0.0865  0.7032
15120TIP3   OH266850   6.146   2.048  16.527  0.5663  0.2535 -0.3810
15120TIP3    H166851   6.231   2.062  16.485  1.8345 -0.8783  1.6769
15120TIP3    H266852   6.157   2.080  16.616 -0.6155 -1.4393  0.4336
15121TIP3   OH266853   5.007   1.209  11.251 -0.3202 -0.1819  0.0954
15121TIP3    H166854   5.065   1.135  11.233 -0.0276  0.1997 -0.6046
15121TIP3    H266855   5.047   1.282  11.204 -2.0761 -0.1975 -1.5959
15122TIP3   OH266856   3.414   4.372   2.317  0.4276  0.4165 -0.1073
15122TIP3    H166857   3.390   4.301   2.377 -1.0866  1.6763  0.8562
15122TIP3    H266858   3.370   4.449   2.352  0.7934  1.5395 -1.9746
15123TIP3   OH266859   0.957   6.491   4.134  0.0334  0.4567 -0.3750
15123TIP3    H166860   0.923   6.516   4.220  0.7239  0.7451 -0.1816
15123TIP3    H266861   0.947   6.570   4.081 -0.4449  0.2626 -0.5863
15124TIP3   OH266862   4.923   4.684  14.576  0.2942 -0.2184 -0.2329
15124TIP3    H166863   4.853   4.619  14.582 -0.7933  1.0251  1.5539
15124TIP3    H266864   4.977   4.668  14.653  0.3591  0.5983 -0.1007
15125TIP3   OH266865   2.912   1.125  16.343  0.2141  0.2236 -0.1126
15125TIP3    H166866   2.948   1.090  16.425 -0.0499 -0.9206 -0.4662
15125TIP3    H266867   2.989   1.143  16.289  0.3373 -0.9787 -0.3760
15126TIP3   OH266868   3.693   2.517  13.923  0.1651  0.3878 -0.1725
15126TIP3    H166869   3.732   2.436  13.956  1.5581  1.0761 -0.0905
15126TIP3    H266870   3.663   2.495  13.835 -0.4087 -0.4955  0.2291
15127TIP3   OH266871   2.847   1.643  11.532  0.7275  0.4736 -0.5274
15127TIP3    H166872   2.834   1.734  11.507 -0.0763  0.6748  0.5163
15127TIP3    H266873   2.797   1.593  11.468 -0.9284  0.9446  0.3297
15128TIP3   OH266874   1.063   0.675   1.630 -0.4252  0.4753  0.0861
15128TIP3    H166875   1.152   0.705   1.649 -0.0303  0.0464 -1.0323
15128TIP3    H266876   1.070   0.580   1.620 -0.2321  0.7469 -3.7477
15129TIP3   OH266877   2.900   5.525  13.539  0.1323  0.4521  0.1059
15129TIP3    H166878   2.903   5.620  13.534  0.3578  0.4184 -0.5779
15129TIP3    H266879   2.976   5.500  13.591  0.1608  0.6369  0.1518
15130TIP3   OH266880   4.587   4.176  16.480  0.1373  0.7113 -0.2038
15130TIP3    H166881   4.581   4.102  16.420 -0.0596  0.6316 -0.0888
15130TIP3    H266882   4.557   4.141  16.564 -1.7552  1.3729 -0.5461
15131TIP3   OH266883   6.307   1.963  13.229 -0.2575  0.0230  0.0294
15131TIP3    H166884   6.339   1.910  13.302 -2.3827 -2.6434 -0.8129
15131TIP3    H266885   6.257   1.902  13.175 -0.9226  2.4502 -2.3091
15132TIP3   OH266886   4.047   1.861   2.105 -0.1690 -0.3488  0.0016
15132TIP3    H166887   3.994   1.925   2.152  0.5843  1.0028 -0.9038
15132TIP3    H266888   4.002   1.849   2.021 -0.4013 -1.1643  0.2342
15133TIP3   OH266889   5.306   3.021   3.131  0.0224 -0.3883  0.2761
15133TIP3    H166890   5.325   3.076   3.207  0.6166 -1.3075  0.8219
15133TIP3    H266891   5.338   3.071   3.056  0.1446  0.1977  0.7110
15134TIP3   OH266892   6.585   4.261   0.334  0.4723 -0.4069  0.4734
15134TIP3    H166893   6.532   4.303   0.267 -3.2711 -1.4614  2.4675
15134TIP3    H266894   6.610   4.332   0.393 -1.8233 -0.2290  1.3369
15135TIP3   OH266895   2.023   6.078   3.071 -0.5016  0.0379 -0.5096
15135TIP3    H166896   2.040   6.002   3.127 -2.3315 -1.1546 -1.4681
15135TIP3    H266897   1.927   6.083   3.067 -0.4058  1.4938 -1.6779
15136TIP3   OH266898   3.483   2.390  16.946  0.2742 -0.1818  0.4805
15136TIP3    H166899   3.394   2.417  16.968  0.0267 -1.0576  0.6098
15136TIP3    H266900   3.522   2.364  17.030  0.2198 -0.9794  0.2756
15137TIP3   OH266901   6.573   5.590  11.706 -0.3035 -0.3121 -0.1735
15137TIP3    H166902   6.514   5.522  11.673 -0.3897  0.1522 -0.9911
15137TIP3    H266903   6.591   5.645  11.631 -0.6365  0.8725  0.5937
15138TIP3   OH266904   6.231   3.753  14.231  0.0976  0.3958 -0.3148
15138TIP3    H166905   6.293   3.754  14.303 -0.6205 -0.6670  0.3564
15138TIP3    H266906   6.170   3.682  14.253 -1.9158  1.9923 -0.4751
15139TIP3   OH266907   5.799   3.532  13.990 -0.2788  0.2245 -0.1220
15139TIP3    H166908   5.765   3.620  14.006  0.5423  1.4061 -3.8644
15139TIP3    H266909   5.760   3.506  13.906  1.6657 -1.8120 -0.5071
15140TIP3   OH266910   1.954   4.985  15.602 -0.0139 -0.1692  0.0427
15140TIP3    H166911   1.891   5.050  15.634  0.7166  0.8772 -0.5693
15140TIP3    H266912   1.994   5.027  15.525  1.3350 -0.8562  0.3458
15141TIP3   OH266913   3.905   0.931  12.515  0.1978  0.4758  0.3236
15141TIP3    H166914   3.932   0.965  12.600  2.7906 -1.2625  0.3336
15141TIP3    H266915   3.982   0.941  12.459 -0.0967 -1.9347 -0.6539
15142TIP3   OH266916   6.774   6.699   0.151 -0.2034  0.0176 -0.7230
15142TIP3    H166917   6.723   6.697   0.232 -0.9873  0.0775 -1.2037
15142TIP3    H266918   6.831   6.622   0.156  1.4587  1.2862  0.9492
15143TIP3   OH266919   1.511   6.324  15.394  0.4442 -0.4571 -0.9241
15143TIP3    H166920   1.606   6.325  15.386  0.4240 -0.5905 -1.1982
15143TIP3    H266921   1.495   6.319  15.488  0.7067 -0.3329 -0.8723
15144TIP3   OH266922   2.765   0.780  13.121  0.0525 -0.8133  0.0855
15144TIP3    H166923   2.684   0.740  13.152 -0.7138  0.9819  0.5110
15144TIP3    H266924   2.826   0.772  13.195 -0.9676  1.1730  1.2314
15145TIP3   OH266925   4.541   1.872   5.758 -0.7716  0.2012  0.4260
15145TIP3    H166926   4.633   1.864   5.783 -0.8716  0.3372  0.8484
15145TIP3    H266927   4.499   1.911   5.834 -0.7770  2.1894 -0.5241
15146TIP3   OH266928   4.184   4.854   4.537 -0.1318  0.5784 -0.7730
15146TIP3    H166929   4.262   4.872   4.485 -1.0227  1.3441 -1.8809
15146TIP3    H266930   4.217   4.840   4.626  1.1632  2.0508 -0.9833
15147TIP3   OH266931   4.928   5.217   0.640  0.3795  0.0492  0.2015
15147TIP3    H166932   4.835   5.238   0.650  0.3525  0.8589 -1.5401
15147TIP3    H266933   4.974   5.297   0.665  0.8440 -1.1588  3.8432
15148TIP3   OH266934   5.261   2.845  15.632  0.3313  0.0614 -0.3508
15148TIP3    H166935   5.326   2.824  15.700  1.2540 -1.7999 -1.7057
15148TIP3    H266936   5.200   2.771  15.634 -1.0120  1.1648  0.0309
15149TIP3   OH266937   5.402   0.293   3.571 -0.0735  0.0337 -0.3438
15149TIP3    H166938   5.354   0.251   3.500 -0.1890 -0.1883 -0.1341
15149TIP3    H266939   5.493   0.297   3.540  0.0886 -1.0791 -0.0483
15150TIP3   OH266940   5.582   0.408  14.106  1.0627 -0.2083 -0.5238
15150TIP3    H166941   5.609   0.379  14.019  1.0769  1.1594 -0.9994
15150TIP3    H266942   5.524   0.482  14.090 -0.2279 -0.9110  0.5912
15151TIP3   OH266943   2.664   6.817  14.897 -0.7093  0.2448 -0.3004
15151TIP3    H166944   2.745   6.843  14.853 -0.8352 -0.1815 -0.7897
15151TIP3    H266945   2.691   6.795  14.986  0.0466 -1.6727 -0.9487
15152TIP3   OH266946   5.902   5.452  13.208  0.0460  0.1769  0.9234
15152TIP3    H166947   5.908   5.357  13.197  0.2544  0.1768  1.0320
15152TIP3    H266948   5.986   5.485  13.174  0.2525  0.2671  1.5139
15153TIP3   OH266949   2.636   4.675  14.127 -0.3350  0.0216 -0.2473
15153TIP3    H166950   2.649   4.756  14.177  0.1998  0.7996 -1.5934
15153TIP3    H266951   2.548   4.646  14.151  0.5247 -0.6757  2.5355
15154TIP3   OH266952   6.354   3.313  12.019 -0.3145 -0.8543 -0.1853
15154TIP3    H166953   6.414   3.386  12.033 -0.9501 -0.1498 -1.0422
15154TIP3    H266954   6.385   3.271  11.938 -1.4406  0.0217 -1.0987
15155TIP3   OH266955   4.142   0.421   0.737 -0.2994  0.2515  0.0409
15155TIP3    H166956   4.164   0.511   0.757 -0.0982 -0.0349  1.1695
15155TIP3    H266957   4.155   0.413   0.642 -0.8027  1.5254 -0.1433
15156TIP3   OH266958   0.492   5.370  14.638  0.0749  0.1362 -0.3149
15156TIP3    H166959   0.444   5.322  14.570  0.5840  1.5248 -1.6925
15156TIP3    H266960   0.436   5.444  14.660 -0.4968 -0.7718  1.4744
15157TIP3   OH266961   4.889   4.944  12.240 -0.4955  0.3677 -0.1540
15157TIP3    H166962   4.922   5.000  12.310 -2.8081  0.9967  0.5189
15157TIP3    H266963   4.854   4.867  12.284 -0.1883 -0.1488 -0.7965
15158TIP3   OH266964   4.954   2.316   5.841  0.3263 -0.4865 -0.3058
15158TIP3    H166965   5.010   2.246   5.874 -1.7512 -1.7971  0.5781
15158TIP3    H266966   4.976   2.322   5.748 -0.2723 -3.1759 -0.6884
15159TIP3   OH266967   4.427   6.072   6.479 -0.1568 -0.4329  0.7021
15159TIP3    H166968   4.476   6.075   6.396  1.2892 -0.4840  1.5191
15159TIP3    H266969   4.350   6.019   6.459  0.1036 -0.3508 -0.6454
15160TIP3   OH266970   4.697   5.637   3.106  0.3603  0.1062  0.1558
15160TIP3    H166971   4.689   5.596   3.192 -1.0864  1.0369  0.5044
15160TIP3    H266972   4.761   5.707   3.119  1.3413 -0.7335  0.0448
15161TIP3   OH266973   6.783   4.724  13.466 -0.0405  0.1829 -0.1921
15161TIP3    H166974   6.843   4.754  13.535  1.0914 -2.3237  0.0106
15161TIP3    H266975   6.818   4.762  13.385  0.3133  0.7846  0.2346
15162TIP3   OH266976   2.410   2.928   2.853 -0.2652  0.5928 -0.1330
15162TIP3    H166977   2.461   2.856   2.816 -1.2241 -0.5666  0.6823
15162TIP3    H266978   2.390   2.984   2.779 -0.2244 -0.4604 -0.9692
15163TIP3   OH266979   6.495   1.856   1.596 -0.1638 -0.4044  0.1038
15163TIP3    H166980   6.475   1.933   1.543 -0.3407 -0.9021 -0.5656
15163TIP3    H266981   6.504   1.785   1.533 -0.2671 -0.9865  0.7323
15164TIP3   OH266982   3.977   3.776  14.864  0.2301 -0.7468 -0.2665
15164TIP3    H166983   4.067   3.744  14.864  0.1661 -0.9295 -0.5947
15164TIP3    H266984   3.924   3.699  14.884  0.1509 -0.6243 -0.0017
15165TIP3   OH266985   3.057   6.104  13.015  0.5305  0.1163 -0.2169
15165TIP3    H166986   2.978   6.051  13.021  0.7431 -0.2404 -0.5723
15165TIP3    H266987   3.106   6.067  12.942  0.6899  0.7920 -0.4567
15166TIP3   OH266988   4.459   0.049   1.266 -0.5305 -0.1213  0.6680
15166TIP3    H166989   4.537   0.017   1.310  0.4287 -1.9981 -2.1293
15166TIP3    H266990   4.465   0.014   1.177 -3.3284  1.7255 -0.4042
15167TIP3   OH266991   2.041   6.441   1.129  0.0345 -0.2223 -0.0667
15167TIP3    H166992   2.061   6.426   1.221 -1.4335  0.4792  0.3964
15167TIP3    H266993   1.988   6.366   1.104 -1.7056  0.8160  0.3938
15168TIP3   OH266994   3.909   0.766   0.739 -0.2218  0.4429  0.0314
15168TIP3    H166995   3.837   0.790   0.681  0.3134 -0.1503 -0.8843
15168TIP3    H266996   3.988   0.789   0.691  0.2265  0.6516  0.8426
15169TIP3   OH266997   0.457   4.085   2.082  0.1514 -0.4010  0.4812
15169TIP3    H166998   0.405   4.151   2.129 -0.8724 -1.3000  0.6481
15169TIP3    H266999   0.468   4.014   2.144 -0.2012 -1.0958 -0.2274
15170TIP3   OH267000   0.560   3.453   2.628 -0.1599  0.2952 -0.1121
15170TIP3    H167001   0.554   3.371   2.578 -1.8254  0.7371 -0.7086
15170TIP3    H267002   0.503   3.514   2.581 -0.1011  1.3711  1.1550
15171TIP3   OH267003   5.500   6.515   0.338 -0.1805  0.4868  0.1169
15171TIP3    H167004   5.450   6.575   0.392 -1.4847 -1.1199  0.7621
15171TIP3    H267005   5.475   6.428   0.368  1.7963 -0.4162 -0.6418
15172TIP3   OH267006   3.502   4.889   4.557  0.5617 -0.3031 -0.2183
15172TIP3    H167007   3.459   4.838   4.626  1.0003 -0.2833  0.0709
15172TIP3    H267008   3.433   4.945   4.523  0.3102 -0.4038  0.1164
15173TIP3   OH267009   4.715   5.547  16.517  0.0461  0.4458  0.0481
15173TIP3    H167010   4.735   5.494  16.594 -1.0108 -0.2507 -0.1382
15173TIP3    H267011   4.801   5.577  16.486  0.8253 -2.0686 -0.4631
15174TIP3   OH267012   4.299   5.818   0.219 -0.2122 -0.6025  0.2804
15174TIP3    H167013   4.360   5.747   0.198 -0.3013 -0.3453 -0.9186
15174TIP3    H267014   4.221   5.773   0.251  0.1464 -0.9817  0.6576
15175TIP3   OH267015   1.409   0.267   5.210 -0.6887  0.2329  0.5099
15175TIP3    H167016   1.348   0.332   5.244 -1.2279  0.0341 -0.0595
15175TIP3    H267017   1.414   0.287   5.116  0.1021  0.2288  0.5462
15176TIP3   OH267018   5.929   1.750   4.430  0.8971  0.1237 -0.0961
15176TIP3    H167019   5.948   1.776   4.521 -0.4052  1.1205 -0.0906
15176TIP3    H267020   5.882   1.667   4.438  2.1769 -0.6291  0.0327
15177TIP3   OH267021   2.032   5.994   6.519  0.6267  0.1697  0.5229
15177TIP3    H167022   1.965   5.968   6.582 -0.6726  0.8957 -0.4953
15177TIP3    H267023   2.115   5.981   6.564 -0.0312 -3.0511  1.0284
15178TIP3   OH267024   6.593   4.423   1.936  0.7456 -0.2903  0.3637
15178TIP3    H167025   6.667   4.365   1.952  0.2387 -0.8988  0.5272
15178TIP3    H267026   6.604   4.494   1.998  1.3356 -0.2383  0.2059
15179TIP3   OH267027   4.722   5.099  17.083 -0.6308  0.3797  0.1372
15179TIP3    H167028   4.731   5.013  17.125  0.3235  1.2875  1.9340
15179TIP3    H267029   4.812   5.124  17.063 -0.8640  1.1404  0.0347
15180TIP3   OH267030   0.644   3.930  14.450  0.3213  0.2592 -0.0938
15180TIP3    H167031   0.699   3.852  14.456 -1.4015 -1.0538 -0.6236
15180TIP3    H267032   0.572   3.913  14.510 -0.3206  1.2389 -0.5663
15181TIP3   OH267033   5.328   4.751  11.065 -0.4716 -0.0867  0.6150
15181TIP3    H167034   5.248   4.767  11.115  0.5426  0.5477  2.0723
15181TIP3    H267035   5.352   4.661  11.086 -0.7387 -0.2474  0.2471
15182TIP3   OH267036   4.856   2.936   5.971 -0.1071 -0.1026 -0.1260
15182TIP3    H167037   4.893   2.885   6.043  1.3558  1.7449  0.5292
15182TIP3    H267038   4.834   3.021   6.011 -0.6607  0.4539 -1.5579
15183TIP3   OH267039   1.850   2.575   5.177 -0.3152  0.2096  0.0312
15183TIP3    H167040   1.795   2.609   5.249 -0.3794 -0.6290  0.3850
15183TIP3    H267041   1.854   2.648   5.115 -1.4753  0.4455  0.1979
15184TIP3   OH267042   1.887   6.433  16.002  0.2839 -0.1444  0.2135
15184TIP3    H167043   1.904   6.496  16.073 -0.7056  2.0567 -1.3773
15184TIP3    H267044   1.833   6.365  16.042  0.3876  0.6267  1.7337
15185TIP3   OH267045   5.048   5.819   2.651  0.2489 -0.0784  0.4603
15185TIP3    H167046   5.095   5.761   2.710 -0.5282 -0.6233  0.5549
15185TIP3    H267047   5.018   5.762   2.580  1.1310  0.5523 -0.4551
15186TIP3   OH267048   5.912   3.446  11.824  0.1973 -0.3250  0.1990
15186TIP3    H167049   5.877   3.406  11.904 -1.8851 -0.2483 -0.6135
15186TIP3    H267050   5.936   3.536  11.850 -0.7948 -0.1883  0.6657
15187TIP3   OH267051   2.151   0.450   1.575  0.0177  0.5273 -0.2837
15187TIP3    H167052   2.171   0.480   1.664 -0.2416  0.2513 -0.1306
15187TIP3    H267053   2.231   0.408   1.545  0.2041  0.8881 -0.2932
15188TIP3   OH267054   4.700   3.017   5.067 -0.6255  0.2073  0.4304
15188TIP3    H167055   4.663   3.016   5.155 -1.7396  0.7502 -0.0156
15188TIP3    H267056   4.633   3.060   5.013 -0.5576 -1.3393 -0.9475
15189TIP3   OH267057   3.527   5.010   3.585 -0.5100 -0.4736  0.0070
15189TIP3    H167058   3.528   5.105   3.575 -1.3567 -0.1728  2.2423
15189TIP3    H267059   3.436   4.985   3.566 -0.5747 -0.6706  0.5495
15190TIP3   OH267060   2.634   4.709  12.236 -0.3109 -1.1689 -0.1957
15190TIP3    H167061   2.573   4.741  12.302 -0.3517 -0.6221 -0.4918
15190TIP3    H267062   2.617   4.764  12.159  0.5742 -0.9853 -0.2679
15191TIP3   OH267063   2.247   1.061  12.273  0.1362 -0.2480 -0.0354
15191TIP3    H167064   2.303   1.138  12.261 -0.9099  0.7596  1.1733
15191TIP3    H267065   2.229   1.060  12.367 -0.9969 -1.1559 -0.2476
15192TIP3   OH267066   0.546   3.158   4.653 -0.4111 -0.8781  0.5270
15192TIP3    H167067   0.633   3.191   4.677 -0.9843 -0.4943  2.1915
15192TIP3    H267068   0.494   3.168   4.733 -2.0692 -0.8559 -0.5208
15193TIP3   OH267069   3.901   4.107  11.808  0.1398  0.1056  0.3643
15193TIP3    H167070   3.933   4.036  11.864 -1.9633  0.0297  1.5800
15193TIP3    H267071   3.875   4.175  11.869 -3.8280 -0.6295 -0.2518
15194TIP3   OH267072   4.521   1.050  16.754  0.1088  0.4026 -0.1079
15194TIP3    H167073   4.536   1.024  16.663  0.8518  0.0349  0.1212
15194TIP3    H267074   4.608   1.060  16.791 -0.1976 -0.1240  0.7632
15195TIP3   OH267075   4.198   1.627   0.302 -0.2080  0.1816 -0.1166
15195TIP3    H167076   4.165   1.715   0.325  0.0830 -0.2480  2.2331
15195TIP3    H267077   4.130   1.590   0.246 -1.4722  1.0743  0.7554
15196TIP3   OH267078   1.350   0.201  12.139  0.0549 -0.2516 -0.8545
15196TIP3    H167079   1.285   0.221  12.207 -0.8545  0.6480 -1.9539
15196TIP3    H267080   1.318   0.121  12.098 -0.4174  0.2116 -1.4206
15197TIP3   OH267081   4.200   3.149   2.450 -0.4314  0.6549 -0.2375
15197TIP3    H167082   4.241   3.198   2.379  0.7669 -0.8234 -0.6387
15197TIP3    H267083   4.236   3.060   2.441 -0.2797  0.4039  2.1669
15198TIP3   OH267084   6.749   3.324   1.957  0.0039 -0.6490  0.1788
15198TIP3    H167085   6.687   3.331   2.029  0.1901  1.7083  0.1889
15198TIP3    H267086   6.803   3.403   1.964  2.0889 -1.9047 -0.6849
15199TIP3   OH267087   2.271   2.104   4.547  0.3894  0.4764  0.7491
15199TIP3    H167088   2.232   2.049   4.479  1.5365  0.0959  0.3797
15199TIP3    H267089   2.365   2.096   4.533  0.6183  3.0086  0.2942
15200TIP3   OH267090   4.410   3.883   3.959  0.4128  0.1217 -0.1010
15200TIP3    H167091   4.316   3.866   3.967  0.3016  0.9037  0.3584
15200TIP3    H267092   4.418   3.942   3.884  0.5251  0.1517 -0.0660
15201TIP3   OH267093   2.299   2.850   3.082 -0.1452  0.1355 -0.3190
15201TIP3    H167094   2.365   2.879   3.019  0.9563 -1.9044 -0.1741
15201TIP3    H267095   2.220   2.837   3.030  0.0218  0.9278 -0.7919
15202TIP3   OH267096   4.622   4.171  12.280 -0.2790  0.0435  0.0425
15202TIP3    H167097   4.695   4.152  12.338 -0.0235  1.2155  0.1275
15202TIP3    H267098   4.547   4.182  12.338 -0.2048  0.3618  0.0763
15203TIP3   OH267099   5.083   0.376  16.456  0.4964 -0.6382  0.6953
15203TIP3    H167100   5.100   0.451  16.513  1.8637 -1.3191  1.2451
15203TIP3    H267101   5.069   0.413  16.370 -1.7974  0.4371  1.4622
15204TIP3   OH267102   2.960   2.591  13.704  0.1714  0.1475  0.1908
15204TIP3    H167103   2.992   2.682  13.705 -1.7478  0.8835  1.5410
15204TIP3    H267104   3.019   2.544  13.763  0.6600  0.7162  0.1633
15205TIP3   OH267105   2.197   4.370  16.185  0.3591 -0.7904 -0.2601
15205TIP3    H167106   2.123   4.428  16.169  2.9988  2.2411 -2.8204
15205TIP3    H267107   2.211   4.375  16.279 -0.6192  1.3238 -0.1685
15206TIP3   OH267108   2.929   0.385  13.023  0.4505  0.3880 -0.2878
15206TIP3    H167109   2.843   0.347  13.007  0.7922 -0.5944  0.1584
15206TIP3    H267110   2.988   0.310  13.030  1.0566  0.9613  1.0793
15207TIP3   OH267111   5.053   3.216  13.135 -0.1461 -0.4385 -0.2586
15207TIP3    H167112   5.077   3.269  13.211 -1.3771  0.6935 -0.6302
15207TIP3    H267113   5.097   3.132  13.150  0.5309  0.1312  1.1450
15208TIP3   OH267114   5.824   2.336  12.668  0.6300 -0.0917  0.0735
15208TIP3    H167115   5.753   2.293  12.620  1.6976 -1.3643 -0.4117
15208TIP3    H267116   5.894   2.271  12.672  1.9038  1.2251  0.2696
15209TIP3   OH267117   3.423   0.577  11.372  0.2617 -0.1215  0.1704
15209TIP3    H167118   3.518   0.578  11.381  0.1472  0.9805  1.5817
15209TIP3    H267119   3.398   0.486  11.391  1.1609 -1.0304 -2.5402
15210TIP3   OH267120   0.283   4.519  11.908 -0.0787 -0.1792  0.6448
15210TIP3    H167121   0.240   4.453  11.853  0.2587  0.0155  0.1368
15210TIP3    H267122   0.273   4.487  11.997  1.8727 -1.9911  0.2875
15211TIP3   OH267123   6.687   6.555  17.170  0.4390 -0.3378 -0.1381
15211TIP3    H167124   6.718   6.487  17.110 -0.4977 -0.7778 -0.1406
15211TIP3    H267125   6.659   6.507  17.248 -0.1903  0.0491 -0.1214
15212TIP3   OH267126   4.499   3.600   3.914  0.0418 -0.5362 -0.1548
15212TIP3    H167127   4.577   3.652   3.896 -1.0486  0.9580 -0.7070
15212TIP3    H267128   4.435   3.662   3.948 -0.0898 -2.1783  2.9856
15213TIP3   OH267129   5.953   1.017  14.317  0.1408 -0.3456  0.2012
15213TIP3    H167130   5.980   1.052  14.402  0.7729 -0.2604 -0.0307
15213TIP3    H267131   6.034   0.987  14.276 -0.1061 -0.0333 -0.5376
15214TIP3   OH267132   2.695   1.024  14.803  0.6849 -0.0841  0.1846
15214TIP3    H167133   2.624   1.087  14.803  0.5232 -0.2455 -1.0025
15214TIP3    H267134   2.721   1.016  14.712  2.9148  0.7162  0.6933
15215TIP3   OH267135   3.320   5.395   3.605 -0.0072  0.2040  0.2157
15215TIP3    H167136   3.400   5.356   3.570 -0.4081  0.8881 -1.5823
15215TIP3    H267137   3.250   5.335   3.578 -0.2178  0.1246  0.9157
15216TIP3   OH267138   2.734   1.808  14.968  0.3968  0.2213 -0.7007
15216TIP3    H167139   2.640   1.790  14.967  0.6681 -1.4052 -2.1966
15216TIP3    H267140   2.770   1.744  15.029  0.8348 -1.3235 -2.4865
15217TIP3   OH267141   6.419   0.465  12.726  0.3120  0.5259 -0.4690
15217TIP3    H167142   6.333   0.504  12.741  0.1424 -0.7461  2.4201
15217TIP3    H267143   6.411   0.423  12.640 -2.3720 -0.4644  0.1472
15218TIP3   OH267144   6.152   0.099   3.640  0.1293 -0.7598 -0.1855
15218TIP3    H167145   6.209   0.101   3.563  1.7472 -1.6716  0.9072
15218TIP3    H267146   6.210   0.124   3.712 -2.0096  3.0039  0.4655
15219TIP3   OH267147   1.228   3.509  13.443 -0.3070 -0.1580  0.7373
15219TIP3    H167148   1.250   3.551  13.360 -0.6360 -3.8232 -1.4040
15219TIP3    H267149   1.303   3.526  13.499  1.7142 -0.6475 -1.6389
15220TIP3   OH267150   6.511   5.155   4.205 -0.1625 -0.6281 -0.0211
15220TIP3    H167151   6.502   5.162   4.110 -0.0612 -1.9208 -0.1348
15220TIP3    H267152   6.447   5.218   4.239 -1.0139 -0.9654 -0.9422
15221TIP3   OH267153   1.263   6.322  16.614 -0.5225 -0.0054  0.1975
15221TIP3    H167154   1.331   6.378  16.650  0.9025 -1.2812 -0.3964
15221TIP3    H267155   1.264   6.244  16.671 -1.0170 -0.3256 -0.2214
15222TIP3   OH267156   6.115   5.228  15.632  0.3733 -0.4483  0.2433
15222TIP3    H167157   6.187   5.282  15.663 -0.0212  1.3269 -1.7135
15222TIP3    H267158   6.154   5.142  15.617  1.9711  0.3236 -0.2441
15223TIP3   OH267159   5.578   0.994  14.555  0.1257 -0.4343 -0.6709
15223TIP3    H167160   5.628   0.951  14.625  1.1892 -0.8552 -1.6520
15223TIP3    H267161   5.524   0.924  14.518 -0.3577 -0.2362 -0.3434
15224TIP3   OH267162   4.452   1.903  13.096  0.4209 -0.6968  0.0546
15224TIP3    H167163   4.387   1.841  13.128  1.3760 -2.3613 -1.0361
15224TIP3    H267164   4.513   1.914  13.169 -0.5591  0.1678  0.7667
15225TIP3   OH267165   5.110   3.383   0.295  0.3782  0.1309  0.5514
15225TIP3    H167166   5.091   3.472   0.266  0.9254  0.3011  0.6993
15225TIP3    H267167   5.032   3.333   0.272 -0.8998  1.1081  2.4938
15226TIP3   OH267168   0.446   5.052   0.081  0.0328  0.2922  0.3333
15226TIP3    H167169   0.395   5.031   0.003 -0.2945  0.1329  0.5892
15226TIP3    H267170   0.438   4.974   0.137 -1.4629  1.1860  1.4404
15227TIP3   OH267171   0.746   2.544  12.113 -0.0377 -0.2286  0.0236
15227TIP3    H167172   0.809   2.602  12.069  1.8721 -2.0904  0.1591
15227TIP3    H267173   0.700   2.601  12.174 -0.0877  1.6542 -1.6707
15228TIP3   OH267174   0.080   3.613  13.188  0.1999  0.1504  0.0742
15228TIP3    H167175   0.104   3.522  13.202  0.5961  0.5680  2.6063
15228TIP3    H267176  -0.008   3.610  13.150  0.1414 -1.2779  0.2914
15229TIP3   OH267177   2.108   5.717   3.574  0.4779  0.0869  0.1862
15229TIP3    H167178   2.076   5.633   3.540  0.7136 -0.1500  0.5452
15229TIP3    H267179   2.180   5.740   3.516 -1.2495  1.3937 -1.6180
15230TIP3   OH267180   4.304   2.557   2.535 -0.2615  0.2080 -0.2884
15230TIP3    H167181   4.381   2.614   2.540 -1.2086  1.4463  1.1457
15230TIP3    H267182   4.338   2.468   2.546  1.0194  0.6839 -0.3001
15231TIP3   OH267183   0.672   1.833  13.168  0.0160  0.0823  0.9330
15231TIP3    H167184   0.697   1.741  13.161 -1.1248 -0.4671  3.2524
15231TIP3    H267185   0.601   1.843  13.104  1.2759 -0.1455 -0.5699
15232TIP3   OH267186   4.178   1.161   0.725  0.2914  0.6458  0.6134
15232TIP3    H167187   4.176   1.131   0.816 -2.2752 -0.8033  0.1752
15232TIP3    H267188   4.224   1.245   0.728 -0.2617  0.9275  3.3298
15233TIP3   OH267189   0.256   4.293  11.758 -0.0930 -0.5389  0.0793
15233TIP3    H167190   0.288   4.205  11.777 -0.0570 -0.1796  1.9137
15233TIP3    H267191   0.288   4.313  11.670  0.5520 -2.0505 -0.0477
15234TIP3   OH267192   5.234   0.578  10.903  0.0093 -0.0751 -0.1447
15234TIP3    H167193   5.262   0.487  10.901 -0.8380 -0.3329 -1.5310
15234TIP3    H267194   5.307   0.627  10.864 -0.5671 -0.5068 -1.8716
15235TIP3   OH267195   5.625   3.130  12.487 -0.1256 -0.0425  0.2583
15235TIP3    H167196   5.581   3.098  12.408  2.1317 -1.5755 -0.4765
15235TIP3    H267197   5.657   3.217  12.462  1.0862 -0.7501 -0.8056
15236TIP3   OH267198   1.058   3.657   5.726 -0.0891 -0.8972 -0.0105
15236TIP3    H167199   1.021   3.717   5.661  1.1691 -0.6997 -0.5839
15236TIP3    H267200   1.035   3.570   5.694 -0.4869 -0.7694 -0.0779
15237TIP3   OH267201   0.095   1.871  10.579  0.4393 -0.1767 -0.1007
15237TIP3    H167202   0.036   1.833  10.514 -0.9653 -1.1058  1.6559
15237TIP3    H267203   0.178   1.880  10.532 -1.2274  2.0737 -2.9394
15238TIP3   OH267204   1.347   6.255   4.383  0.6994  0.2341 -0.2027
15238TIP3    H167205   1.275   6.300   4.428  0.6755  1.8985 -1.8113
15238TIP3    H267206   1.389   6.323   4.331  1.0096 -1.4842 -2.3467
15239TIP3   OH267207   1.484   4.978   0.873 -0.5140  0.4519  0.2239
15239TIP3    H167208   1.452   4.994   0.784  0.2339  1.2522  0.0890
15239TIP3    H267209   1.431   5.035   0.928  1.5320  2.8995 -0.1558
15240TIP3   OH267210   1.263   3.504   4.203  0.0623 -0.2751  0.3640
15240TIP3    H167211   1.302   3.522   4.288 -1.8463  0.2209  1.1761
15240TIP3    H267212   1.302   3.420   4.176  1.7482  0.2493  1.0264
15241TIP3   OH267213   5.915   2.394   2.911 -0.1669  0.2362 -0.6009
15241TIP3    H167214   5.991   2.398   2.853 -0.5053 -0.6722 -1.1431
15241TIP3    H267215   5.880   2.306   2.897 -1.2506  0.6011 -0.2783
15242TIP3   OH267216   2.215   0.484  17.067 -0.1673  0.4693  0.4003
15242TIP3    H167217   2.282   0.416  17.061 -0.9985 -0.4525  1.3286
15242TIP3    H267218   2.221   0.517  17.156 -0.8791  0.4497  0.4649
15243TIP3   OH267219   6.158   1.349  16.530 -0.0421  0.0079 -0.4596
15243TIP3    H167220   6.223   1.388  16.588 -1.1247  0.2217  0.6470
15243TIP3    H267221   6.194   1.361  16.442  1.7365 -0.5197  0.1545
15244TIP3   OH267222   2.314   3.683  13.533  0.0319  0.2733 -0.0789
15244TIP3    H167223   2.375   3.611  13.549 -0.8688 -0.0084  2.5323
15244TIP3    H267224   2.231   3.640  13.511 -0.5666  0.4456  1.6985
15245TIP3   OH267225   4.131   1.064   5.441 -0.3925  0.4951  0.0371
15245TIP3    H167226   4.135   1.057   5.536 -0.0746  3.5529  0.3496
15245TIP3    H267227   4.042   1.038   5.419 -0.6536  0.3203  1.2220
15246TIP3   OH267228   0.650   4.500   4.367  0.9007  0.7227 -0.1591
15246TIP3    H167229   0.659   4.560   4.441 -0.6351  0.8782 -0.0570
15246TIP3    H267230   0.556   4.500   4.348  1.1024 -0.3236 -1.2743
15247TIP3   OH267231   4.647   6.245  16.088 -0.4296 -0.3665  0.2919
15247TIP3    H167232   4.696   6.164  16.077 -0.3464 -0.2389 -0.3592
15247TIP3    H267233   4.702   6.299  16.145  0.5597  0.0578 -1.0111
15248TIP3   OH267234   5.885   0.976  12.239  0.3568  0.1660  0.2620
15248TIP3    H167235   5.846   1.013  12.318  2.5996  1.2769  0.9069
15248TIP3    H267236   5.883   1.047  12.175 -0.2185 -0.3252 -0.2948
15249TIP3   OH267237   4.718   5.938  15.781  0.0565  0.0949 -0.4187
15249TIP3    H167238   4.785   5.959  15.847  1.2197 -0.6201 -1.3270
15249TIP3    H267239   4.763   5.879  15.720 -1.3597 -0.2314 -1.1753
15250TIP3   OH267240   3.824   1.208  10.716 -0.5388  0.1154  0.4917
15250TIP3    H167241   3.849   1.115  10.716  0.6275  0.4132 -0.2503
15250TIP3    H267242   3.888   1.250  10.773 -0.7977  0.5414  0.4730
15251TIP3   OH267243   6.717   0.460   0.354  0.1205 -0.5168 -0.1162
15251TIP3    H167244   6.746   0.448   0.264 -0.7612 -0.1462 -0.4661
15251TIP3    H267245   6.763   0.538   0.384 -1.8502  1.2440 -1.3166
15252TIP3   OH267246   0.282   3.743   0.399 -0.0997 -0.0571 -0.7555
15252TIP3    H167247   0.309   3.828   0.434  0.2417 -0.1125 -0.8759
15252TIP3    H267248   0.347   3.724   0.331  0.4606 -0.9018 -0.0144
15253TIP3   OH267249   5.894   1.899   1.438 -0.5476 -0.6363  0.5853
15253TIP3    H167250   5.819   1.839   1.435 -0.6229 -0.5991  1.6569
15253TIP3    H267251   5.909   1.921   1.346 -1.0829 -1.5966  0.2457
15254TIP3   OH267252   3.058   2.666   1.090  0.1936  0.0797 -0.1334
15254TIP3    H167253   2.994   2.606   1.128  0.3783 -0.2182 -0.2881
15254TIP3    H267254   3.136   2.612   1.078  0.8352  0.7111  1.0835
15255TIP3   OH267255   0.731   3.999   3.341 -0.3563  0.6679 -0.1523
15255TIP3    H167256   0.767   3.912   3.323  0.2404  1.0156 -0.6762
15255TIP3    H267257   0.640   3.983   3.366  0.2730 -0.2764  1.6935
15256TIP3   OH267258   4.823   6.318  13.527 -0.0150  0.3757 -0.2005
15256TIP3    H167259   4.739   6.349  13.561  0.5515  0.7497  0.9222
15256TIP3    H267260   4.814   6.223  13.524 -0.0905  0.3259  1.0526
15257TIP3   OH267261   2.564   3.301  14.151 -0.2271 -0.3683 -0.0931
15257TIP3    H167262   2.608   3.288  14.067  0.8400  2.1942 -0.0202
15257TIP3    H267263   2.635   3.302  14.215 -0.8411 -0.4111  0.5978
15258TIP3   OH267264   5.204   0.890   1.983  0.3703  0.1326 -0.1148
15258TIP3    H167265   5.282   0.868   1.933  1.1353  1.3146  0.5077
15258TIP3    H267266   5.162   0.959   1.933  0.0094 -0.1230 -0.1706
15259TIP3   OH267267   4.047   2.006  12.168 -0.1094  0.2830 -0.3010
15259TIP3    H167268   3.976   2.071  12.168  1.1016  1.6581 -0.3065
15259TIP3    H267269   4.118   2.049  12.216  1.0790 -0.6716 -1.1630
15260TIP3   OH267270   5.818   0.438   3.115  1.1000  0.1263 -0.0644
15260TIP3    H167271   5.873   0.499   3.066  0.6857 -0.1397 -0.8625
15260TIP3    H267272   5.857   0.352   3.098  2.0397  0.1934  1.5212
15261TIP3   OH267273   1.125   4.989  14.662  0.2511 -0.4194  0.2158
15261TIP3    H167274   1.130   4.911  14.608  0.4697 -0.3805  0.1782
15261TIP3    H267275   1.214   5.003  14.693  0.4006  0.3451 -0.5392
15262TIP3   OH267276   4.211   2.090  13.463 -0.5202 -0.0804  0.3236
15262TIP3    H167277   4.242   2.032  13.533 -1.9218  0.1186  1.1465
15262TIP3    H267278   4.116   2.092  13.475 -0.4831  2.8603  0.7106
15263TIP3   OH267279   4.008   2.206  10.859 -0.3534 -0.1489 -0.2679
15263TIP3    H167280   3.957   2.264  10.802  0.1233  0.0016 -0.5453
15263TIP3    H267281   3.980   2.118  10.834 -1.8130 -0.0334  0.8373
15264TIP3   OH267282   1.438   6.093   5.092 -0.3479  0.3205 -0.6979
15264TIP3    H167283   1.421   6.174   5.139  1.3302  0.9174 -1.0370
15264TIP3    H267284   1.358   6.042   5.101 -0.5170  0.9170  1.7599
15265TIP3   OH267285   2.293   0.155   1.911 -0.3536  0.0552 -0.5163
15265TIP3    H167286   2.326   0.079   1.959 -0.5553  0.9993  1.1765
15265TIP3    H267287   2.198   0.155   1.928 -0.4691  0.2692 -1.1258
15266TIP3   OH267288   1.686   2.292   6.552 -0.3071 -0.9193 -0.1741
15266TIP3    H167289   1.705   2.379   6.587  0.9166 -1.0186 -0.5468
15266TIP3    H267290   1.704   2.232   6.624 -1.9805 -0.8220  0.3544
15267TIP3   OH267291   6.002   2.761  13.545  0.2935 -0.2534  0.1402
15267TIP3    H167292   6.009   2.735  13.454 -0.6297  3.2742 -1.1113
15267TIP3    H267293   5.925   2.714  13.578  0.7918 -1.7662 -0.7659
15268TIP3   OH267294   4.293   6.548  15.957 -0.2256  0.4867 -0.0153
15268TIP3    H167295   4.388   6.536  15.962 -0.3461 -1.5736 -1.3725
15268TIP3    H267296   4.279   6.593  15.873 -0.5450 -2.4031 -1.6742
15269TIP3   OH267297   2.817   6.446   3.603  0.1570 -0.3875  0.4772
15269TIP3    H167298   2.873   6.403   3.668  0.1929  1.0243  1.4416
15269TIP3    H267299   2.729   6.414   3.622  0.2627 -0.5070  0.7802
15270TIP3   OH267300   2.399   6.784   2.908  0.0041 -0.1189  0.5312
15270TIP3    H167301   2.361   6.791   2.995 -0.4642 -1.1563  0.4256
15270TIP3    H267302   2.491   6.807   2.919 -0.2212  0.5163  1.1446
15271TIP3   OH267303   4.428   2.341   1.214  0.3680 -0.1507  0.3867
15271TIP3    H167304   4.365   2.291   1.265  0.2591  0.5608  0.9615
15271TIP3    H267305   4.433   2.295   1.130 -1.5993  0.2737 -0.0147
15272TIP3   OH267306   5.172   6.249   4.944  0.8619  0.8328 -0.1656
15272TIP3    H167307   5.102   6.185   4.956  0.0397  1.8929  0.9153
15272TIP3    H267308   5.153   6.290   4.860  1.5633 -0.5087 -1.0080
15273TIP3   OH267309   2.673   0.720   3.251  0.5232 -0.2493 -0.1291
15273TIP3    H167310   2.660   0.813   3.234  0.7515  0.3297  2.5228
15273TIP3    H267311   2.739   0.693   3.187  1.3514  1.6991 -0.1660
15274TIP3   OH267312   5.800   0.432   2.013 -0.0188  0.0769 -0.5110
15274TIP3    H167313   5.720   0.390   2.045  0.3827 -1.7285 -1.7516
15274TIP3    H267314   5.871   0.377   2.045  0.8497  1.9834  1.0919
15275TIP3   OH267315   4.798   4.511  13.122 -0.4086 -0.0139 -0.1053
15275TIP3    H167316   4.867   4.574  13.141 -1.1022  0.3375  1.4912
15275TIP3    H267317   4.717   4.558  13.143 -0.9116 -1.6204  1.9363
15276TIP3   OH267318   4.266   3.606   6.532 -0.5342  0.1148  0.0477
15276TIP3    H167319   4.304   3.674   6.587 -0.0911  0.1217 -0.2617
15276TIP3    H267320   4.303   3.622   6.446 -0.6201 -0.3709 -0.0790
15277TIP3   OH267321   4.461   1.163  15.344 -0.2301  0.0147 -0.1373
15277TIP3    H167322   4.512   1.228  15.392 -1.2090 -0.4632  1.6225
15277TIP3    H267323   4.526   1.108  15.300  0.6536  1.0825 -0.1984
15278TIP3   OH267324   6.136   5.855  16.630 -0.1565 -0.2243  0.4943
15278TIP3    H167325   6.088   5.840  16.711 -0.2736  0.9675  0.6562
15278TIP3    H267326   6.083   5.917  16.581  0.6998  0.3134  0.2181
15279TIP3   OH267327   3.783   3.311   4.099  0.1248 -0.5089 -0.3700
15279TIP3    H167328   3.828   3.268   4.172 -0.3791 -2.2780 -1.0548
15279TIP3    H267329   3.825   3.274   4.021 -0.8621 -0.3384 -0.9895
15280TIP3   OH267330   1.003   1.563   5.198 -0.0802  0.3588  0.1187
15280TIP3    H167331   0.925   1.593   5.152 -0.1622 -1.0317 -0.7069
15280TIP3    H267332   0.972   1.545   5.287 -0.9381 -1.0059 -0.4216
15281TIP3   OH267333   0.786   1.491   2.006 -0.1506 -0.0165  0.1110
15281TIP3    H167334   0.696   1.516   1.986 -0.2724 -0.0114  0.6658
15281TIP3    H267335   0.793   1.496   2.101  0.3209 -0.4101  0.1048
15282TIP3   OH267336   2.247   1.772  16.213  0.0733  0.0595  0.1852
15282TIP3    H167337   2.162   1.791  16.253 -1.0152 -0.4337 -1.8047
15282TIP3    H267338   2.276   1.692  16.256  0.2739  0.9824  1.8971
15283TIP3   OH267339   6.420   4.091  11.935  0.1149  0.3184 -0.7528
15283TIP3    H167340   6.420   4.072  12.029  2.3235 -0.3405 -0.8198
15283TIP3    H267341   6.445   4.184  11.931  1.2445  0.0301 -0.6926
15284TIP3   OH267342   5.779   5.431  12.196  0.3769 -0.0675  0.0849
15284TIP3    H167343   5.870   5.403  12.201  0.2844 -0.4955 -0.6094
15284TIP3    H267344   5.742   5.408  12.281  1.2152  1.2091  0.8384
15285TIP3   OH267345   2.234   6.281   0.868  0.6381 -0.1396  0.4634
15285TIP3    H167346   2.141   6.302   0.866  0.3923 -1.2313 -1.3284
15285TIP3    H267347   2.253   6.244   0.782  2.4410 -1.1855  1.2431
15286TIP3   OH267348   6.129   6.126   2.000  0.0897 -0.4955 -0.0043
15286TIP3    H167349   6.118   6.219   1.979  0.2597 -0.5858 -0.5125
15286TIP3    H267350   6.198   6.124   2.066 -0.1037 -0.2382  0.2061
15287TIP3   OH267351   1.341   3.019  15.061 -0.2892  0.3121  0.1984
15287TIP3    H167352   1.356   2.991  14.971  1.6454 -0.0960  0.6060
15287TIP3    H267353   1.297   2.945  15.102 -1.4804  0.6273 -0.4717
15288TIP3   OH267354   0.357   2.412   2.161  0.5435 -0.3310  0.1872
15288TIP3    H167355   0.329   2.468   2.088 -0.9594 -0.3245  0.7375
15288TIP3    H267356   0.397   2.336   2.118 -3.4754 -2.0847 -0.9129
15289TIP3   OH267357   6.609   2.485  11.448 -0.0383 -0.6969  0.1278
15289TIP3    H167358   6.670   2.536  11.395 -0.7008  0.2376  0.2394
15289TIP3    H267359   6.652   2.479  11.534  0.4242 -1.0637 -0.1211
15290TIP3   OH267360   0.237   3.952  12.128  0.1386  0.9833  0.3546
15290TIP3    H167361   0.197   3.894  12.063 -0.6162  1.6035  0.2500
15290TIP3    H267362   0.173   4.022  12.140  0.6420  1.3243  1.1438
15291TIP3   OH267363   0.961   6.446   1.993 -0.3576  0.5019  0.5935
15291TIP3    H167364   1.037   6.488   2.033  0.5598  0.4326 -1.0054
15291TIP3    H267365   0.962   6.357   2.027  0.1104  0.5843  0.7970
15292TIP3   OH267366   4.608   0.803   4.998  0.0848 -0.1023  0.6639
15292TIP3    H167367   4.682   0.791   4.939 -0.7822 -2.5083 -0.0387
15292TIP3    H267368   4.620   0.737   5.066 -1.7837 -1.1121  0.0832
15293TIP3   OH267369   2.620   5.687  12.805 -0.4932  0.3195  0.5214
15293TIP3    H167370   2.666   5.607  12.779  1.9049  0.6226  3.2017
15293TIP3    H267371   2.680   5.758  12.781 -1.0684  1.0304  1.1093
15294TIP3   OH267372   2.454   3.152   0.578  0.4691  0.6537 -0.1868
15294TIP3    H167373   2.535   3.204   0.583  0.3561  0.8309 -0.2025
15294TIP3    H267374   2.478   3.077   0.523  1.6617 -1.2024  2.5905
15295TIP3   OH267375   6.462   3.724  13.745 -0.4444  0.0482  0.2382
15295TIP3    H167376   6.514   3.799  13.717 -0.9815 -0.0587 -1.1198
15295TIP3    H267377   6.398   3.760  13.806 -0.0642  0.5199  0.3585
15296TIP3   OH267378   1.476   3.717  14.158  0.2260 -0.6624 -0.0205
15296TIP3    H167379   1.481   3.622  14.164  2.8214 -0.5921 -0.1929
15296TIP3    H267380   1.443   3.734  14.070 -1.5931 -1.3684  0.4851
15297TIP3   OH267381   5.259   0.744   4.317 -0.3253 -0.6168 -0.1885
15297TIP3    H167382   5.190   0.807   4.296 -0.6188 -0.8742  0.0071
15297TIP3    H267383   5.287   0.767   4.405  0.5258  0.1113 -0.6298
15298TIP3   OH267384   5.130   4.512   4.182  0.3275  0.3579  0.6860
15298TIP3    H167385   5.211   4.534   4.226  0.2686 -0.1116  1.0379
15298TIP3    H267386   5.136   4.417   4.167  0.0875  0.4131  0.2225
15299TIP3   OH267387   3.777   5.317   0.254 -0.6693  0.6085  0.4350
15299TIP3    H167388   3.702   5.317   0.314 -0.0528  1.2369  1.2256
15299TIP3    H267389   3.838   5.253   0.291 -1.1535 -0.5693 -0.6910
15300TIP3   OH267390   0.898   0.881   4.137  1.1355 -0.1768  0.5612
15300TIP3    H167391   0.812   0.923   4.128 -0.1427 -2.2663  2.1139
15300TIP3    H267392   0.937   0.924   4.213  0.8249 -0.2492  0.7638
15301TIP3   OH267393   3.921   0.356  16.939  0.2240 -0.3840 -0.2988
15301TIP3    H167394   3.917   0.409  16.860 -0.5457 -0.3974 -0.2748
15301TIP3    H267395   4.004   0.381  16.980  1.0851 -1.0652 -1.5697
15302TIP3   OH267396   0.575   2.945   5.323 -0.2886  0.2659 -0.6233
15302TIP3    H167397   0.668   2.923   5.312 -0.4818 -0.8663 -0.1293
15302TIP3    H267398   0.548   2.895   5.400 -1.7559 -0.8258 -1.7952
15303TIP3   OH267399   2.896   5.773  12.839 -0.1710  0.1708 -0.4564
15303TIP3    H167400   2.964   5.806  12.780  0.9593 -0.7695  0.2707
15303TIP3    H267401   2.923   5.683  12.858 -1.3715 -0.0572  0.2504
15304TIP3   OH267402   5.085   1.768   2.750  0.9211  0.5987 -0.1778
15304TIP3    H167403   5.020   1.697   2.754  0.4352  1.0393 -0.1536
15304TIP3    H267404   5.156   1.732   2.697 -0.5354  1.0315 -2.5847
15305TIP3   OH267405   2.361   1.353   0.377 -0.3272 -0.1107  0.3005
15305TIP3    H167406   2.377   1.331   0.285  1.7674 -2.2574  1.0681
15305TIP3    H267407   2.431   1.414   0.400 -1.5045  1.3207  0.2433
15306TIP3   OH267408   6.411   0.712  16.218 -0.0782 -0.2276  0.6807
15306TIP3    H167409   6.429   0.693  16.126  0.6417 -1.1868  1.0103
15306TIP3    H267410   6.493   0.749  16.251  0.5732 -2.3650  1.5819
15307TIP3   OH267411   0.367   3.043   5.880  0.4582 -0.1420  0.0319
15307TIP3    H167412   0.459   3.026   5.859  0.5579 -0.4247  0.6715
15307TIP3    H267413   0.328   3.067   5.796  1.1976  0.3464 -0.1847
15308TIP3   OH267414   5.091   3.143  11.262 -0.5061 -0.7445  0.0530
15308TIP3    H167415   5.176   3.117  11.299 -0.5186 -3.5110 -1.6585
15308TIP3    H267416   5.110   3.223  11.213  0.7007 -0.3007  1.1885
15309TIP3   OH267417   1.700   4.819  13.720  0.0614  0.1010  0.5653
15309TIP3    H167418   1.608   4.836  13.739  0.1834  0.4147  0.8728
15309TIP3    H267419   1.733   4.901  13.683  0.1800 -0.0567  0.3190
15310TIP3   OH267420   5.275   3.586   4.529  0.3705 -0.4355  0.1272
15310TIP3    H167421   5.217   3.531   4.476 -1.0195 -0.4842  1.6026
15310TIP3    H267422   5.239   3.578   4.618  2.4420 -0.1459  1.0338
15311TIP3   OH267423   0.119   5.929   2.196  0.0070  0.2751 -0.6820
15311TIP3    H167424   0.209   5.948   2.170 -0.5281  1.3736 -1.8803
15311TIP3    H267425   0.125   5.851   2.250  2.0156  1.9763  1.7694
15312TIP3   OH267426   6.108   0.588   2.174  0.4849  0.4681  0.1465
15312TIP3    H167427   6.131   0.681   2.168  2.7595 -0.0074  0.6764
15312TIP3    H267428   6.116   0.567   2.267 -1.8984  0.1367  0.3259
15313TIP3   OH267429   6.814   5.857  16.307  0.8394 -0.6780 -0.3836
15313TIP3    H167430   6.881   5.920  16.280 -0.2097  2.1588  2.8723
15313TIP3    H267431   6.734   5.910  16.317 -0.5709 -2.8764  0.8170
15314TIP3   OH267432   0.880   4.222   3.419  0.0085 -0.0379  0.0492
15314TIP3    H167433   0.866   4.279   3.343 -2.0860  1.5786  1.5519
15314TIP3    H267434   0.819   4.150   3.406  0.7985 -0.6149 -0.5584
15315TIP3   OH267435   1.462   0.459   2.325  0.1343 -0.1043 -0.6263
15315TIP3    H167436   1.531   0.393   2.338  0.0553  0.0963  0.9448
15315TIP3    H267437   1.502   0.525   2.268  1.3224  0.1121  0.4329
15316TIP3   OH267438   2.379   3.472  15.671 -0.6473 -0.1887  0.7099
15316TIP3    H167439   2.290   3.491  15.701  0.5233  2.0459  3.2101
15316TIP3    H267440   2.429   3.550  15.695  2.2336 -1.8043  0.3656
15317TIP3   OH267441   4.225   2.264  15.407 -0.6114 -0.5208  0.2760
15317TIP3    H167442   4.257   2.351  15.383  1.9651 -1.7723 -1.2598
15317TIP3    H267443   4.129   2.273  15.406 -0.6226  1.4090 -3.8241
15318TIP3   OH267444   3.440   6.281  12.774  0.2393  0.1836 -0.2367
15318TIP3    H167445   3.381   6.340  12.728  0.0955 -0.6795 -1.1883
15318TIP3    H267446   3.472   6.221  12.707  1.8722  0.3511  0.3366
15319TIP3   OH267447   6.747   3.321  13.997  0.0171 -0.1448  0.0586
15319TIP3    H167448   6.699   3.399  13.970  0.4318  0.5720  1.3745
15319TIP3    H267449   6.686   3.274  14.054 -0.6121 -1.3311 -1.5160
15320TIP3   OH267450   1.945   5.868   3.377 -0.7671  0.0847 -0.0344
15320TIP3    H167451   1.857   5.844   3.405 -0.4506 -0.9701  0.1215
15320TIP3    H267452   2.003   5.815   3.432 -0.0718 -0.0185 -0.8351
15321TIP3   OH267453   0.752   3.847   6.001  0.7689 -0.4001 -0.2603
15321TIP3    H167454   0.720   3.837   6.091  1.2873  2.0689  0.2762
15321TIP3    H267455   0.811   3.923   6.005 -0.4213  0.7866 -2.9996
15322TIP3   OH267456   6.310   4.412  14.581 -0.7084 -0.5909 -0.0141
15322TIP3    H167457   6.309   4.342  14.515 -1.7855 -0.5565 -0.0515
15322TIP3    H267458   6.394   4.402  14.626 -0.4501 -1.3209 -0.6431
15323TIP3   OH267459   5.293   3.657  16.883  0.2298 -0.6782  0.1471
15323TIP3    H167460   5.237   3.731  16.903 -1.1315 -1.8841  1.0057
15323TIP3    H267461   5.264   3.627  16.797  0.2790 -0.6580  0.1235
15324TIP3   OH267462   0.729   1.900   5.342  0.3943  0.1521 -0.6501
15324TIP3    H167463   0.666   1.830   5.359 -0.3497  0.7501 -0.8692
15324TIP3    H267464   0.810   1.871   5.385 -0.7400  0.5568  1.9551
15325TIP3   OH267465   5.250   2.935  11.208 -0.0147  0.1379 -0.2278
15325TIP3    H167466   5.184   2.870  11.183 -0.4049  1.3330 -2.5444
15325TIP3    H267467   5.236   3.008  11.148  2.6178  0.9627  0.0407
15326TIP3   OH267468   4.330   3.600   4.802  0.0163  0.6317 -0.1654
15326TIP3    H167469   4.393   3.584   4.732 -1.2972  1.2144 -1.5705
15326TIP3    H267470   4.284   3.517   4.813  0.4719  0.4356  0.2803
15327TIP3   OH267471   4.791   0.717  15.386  0.2613 -0.7039 -0.4801
15327TIP3    H167472   4.875   0.677  15.364  0.7454  1.3472 -2.8730
15327TIP3    H267473   4.726   0.665  15.340  0.1549 -2.1268  1.1547
15328TIP3   OH267474   0.025   3.862   0.718  0.8613  0.1278 -0.5119
15328TIP3    H167475   0.034   3.926   0.648  0.5829 -1.7625 -2.3842
15328TIP3    H267476  -0.056   3.815   0.698  0.8920 -0.6160  0.9548
15329TIP3   OH267477   4.316   4.818   1.000 -0.1069  0.2580  0.4238
15329TIP3    H167478   4.294   4.754   1.067  0.4087 -2.0600 -1.4933
15329TIP3    H267479   4.412   4.819   0.998 -0.1103 -0.2935 -0.7678
15330TIP3   OH267480   0.394   4.418   5.902  0.2697 -0.1783 -0.2340
15330TIP3    H167481   0.377   4.353   5.970 -1.0056 -0.3110 -0.6489
15330TIP3    H267482   0.480   4.396   5.868  0.8022 -0.2751  1.1405
15331TIP3   OH267483   4.956   0.054  16.162 -0.1110  0.3440  0.3776
15331TIP3    H167484   4.893   0.081  16.229 -1.1162 -0.8373 -0.0615
15331TIP3    H267485   5.028   0.117  16.171 -0.7868  0.9789  1.7119
15332TIP3   OH267486   6.706   2.305  16.080  0.6593  0.5554  0.2148
15332TIP3    H167487   6.691   2.388  16.127  0.1669  0.3539  0.4240
15332TIP3    H267488   6.801   2.292  16.085  1.4113  3.0755 -3.1701
15333TIP3   OH267489   6.389   0.649  13.841 -0.2992  0.4338  0.8447
15333TIP3    H167490   6.356   0.736  13.865 -0.1396  0.3066  1.5704
15333TIP3    H267491   6.477   0.665  13.808  0.6779  0.3598  3.1837
15334TIP3   OH267492   3.101   0.859  12.888  0.4373 -0.5151 -0.2716
15334TIP3    H167493   3.050   0.938  12.905  0.4058 -0.5157 -0.3627
15334TIP3    H267494   3.178   0.889  12.841  2.7137  0.1014  3.4692
15335TIP3   OH267495   6.718   4.959   5.255  0.3511  0.6153  0.4608
15335TIP3    H167496   6.726   5.048   5.223  1.5900  0.3683  0.0519
15335TIP3    H267497   6.745   4.963   5.347 -0.5741  0.8265  0.7380
15336TIP3   OH267498   2.070   1.182   6.062  0.0645 -0.6324 -0.6295
15336TIP3    H167499   2.122   1.114   6.105  1.6022 -1.6096 -3.7131
15336TIP3    H267500   2.123   1.261   6.072  0.6390 -0.9495 -1.0884
15337TIP3   OH267501   5.521   4.799   1.776  0.1514 -0.0375 -0.1403
15337TIP3    H167502   5.571   4.872   1.812  0.8652 -0.2931 -0.5813
15337TIP3    H267503   5.561   4.721   1.816  0.1493 -0.2462 -0.5375
15338TIP3   OH267504   5.269   0.697  12.460 -0.5020 -0.0541  1.1461
15338TIP3    H167505   5.199   0.735  12.407  1.0022  0.9216 -0.2305
15338TIP3    H267506   5.226   0.626  12.508 -2.7456  1.4385  1.5168
15339TIP3   OH267507   5.415   3.231  10.713 -0.7109  0.0616 -0.1629
15339TIP3    H167508   5.485   3.275  10.665  0.2577  0.2668  1.3663
15339TIP3    H267509   5.366   3.301  10.756  0.8333 -0.2406  2.2731
15340TIP3   OH267510   5.967   3.029   2.370  0.5626 -0.1416  0.6075
15340TIP3    H167511   6.028   3.089   2.327  0.4219 -0.3920  0.0531
15340TIP3    H267512   5.912   2.995   2.299  0.9320 -1.2753  0.8398
15341TIP3   OH267513   0.707   2.010  11.881 -0.2680 -0.3180 -0.1915
15341TIP3    H167514   0.631   2.053  11.922  0.1035  0.4379 -0.2841
15341TIP3    H267515   0.712   1.925  11.925 -1.0072 -0.2734  0.0051
15342TIP3   OH267516   5.477   6.565   2.037  0.4341  0.5381 -0.7722
15342TIP3    H167517   5.407   6.552   1.973 -0.7809  1.1480  0.3966
15342TIP3    H267518   5.519   6.480   2.044 -0.2920  0.1181 -1.3790
15343TIP3   OH267519   1.299   1.545   0.881  0.2853 -0.1187 -0.3346
15343TIP3    H167520   1.212   1.515   0.907  0.3485 -1.5030 -1.6066
15343TIP3    H267521   1.356   1.518   0.953  0.0608 -1.5962 -0.6729
15344TIP3   OH267522   6.562   2.499   3.307  0.2150 -0.1009 -0.1137
15344TIP3    H167523   6.481   2.474   3.263  0.2782 -0.4401 -0.0379
15344TIP3    H267524   6.571   2.437   3.379 -0.1301  0.7501  0.6760
15345TIP3   OH267525   4.390   6.769   3.508  0.0548  0.1420  0.0518
15345TIP3    H167526   4.330   6.715   3.457 -2.4054  0.9392  1.8755
15345TIP3    H267527   4.367   6.751   3.599  1.2415  1.9883  0.7827
15346TIP3   OH267528   6.519   0.867   2.369 -0.1633 -0.4217  0.3575
15346TIP3    H167529   6.613   0.882   2.365 -0.3564  0.6317 -1.0434
15346TIP3    H267530   6.483   0.948   2.405 -0.5364 -0.9416  1.2054
15347TIP3   OH267531   3.343   4.902  16.953 -0.0975 -1.0587 -0.3820
15347TIP3    H167532   3.405   4.938  17.017  0.5997 -0.4724 -1.3671
15347TIP3    H267533   3.341   4.966  16.882 -3.4093  0.0082  0.4824
15348TIP3   OH267534   2.744   6.483   4.472 -0.9607  0.0721 -0.1489
15348TIP3    H167535   2.787   6.567   4.490  0.0530 -0.1174 -1.5359
15348TIP3    H267536   2.706   6.494   4.384 -0.8251 -0.9083 -0.3396
15349TIP3   OH267537   4.959   4.853  11.780 -0.0076 -0.6445 -0.4628
15349TIP3    H167538   4.908   4.916  11.831 -1.5207 -0.5618 -1.9836
15349TIP3    H267539   4.929   4.865  11.690  0.8763 -2.3874 -1.0395
15350TIP3   OH267540   4.148   2.659   4.851  0.1827  0.3969 -0.1368
15350TIP3    H167541   4.143   2.722   4.779 -0.2673  0.9117  0.3465
15350TIP3    H267542   4.065   2.668   4.898  0.6404  0.3543  0.6993
15351TIP3   OH267543   2.217   3.935  12.348  0.4281 -0.3368  0.0389
15351TIP3    H167544   2.299   3.931  12.396 -0.5203 -0.7555  1.6807
15351TIP3    H267545   2.175   4.016  12.377  0.8986  0.7070 -1.9604
15352TIP3   OH267546   6.747   2.440   1.241 -0.2778  0.3307  0.5272
15352TIP3    H167547   6.785   2.360   1.277  0.1705  0.5372  0.5201
15352TIP3    H267548   6.667   2.455   1.293 -0.4021 -0.1549  0.4801
15353TIP3   OH267549   0.720   6.119   2.684  0.3224  0.5382  1.0256
15353TIP3    H167550   0.662   6.195   2.692 -0.3988  0.0716  0.3676
15353TIP3    H267551   0.744   6.117   2.591 -0.6022 -0.7014  0.7915
15354TIP3   OH267552   0.166   2.362   6.434  0.0573 -0.0321  0.4034
15354TIP3    H167553   0.108   2.390   6.504 -0.6581 -0.0365 -0.1759
15354TIP3    H267554   0.170   2.266   6.442 -1.4774 -0.2215 -0.6448
15355TIP3   OH267555   2.976   6.258   2.505  0.2628  0.1115  0.1234
15355TIP3    H167556   3.015   6.249   2.418 -0.6581  0.7492 -0.3671
15355TIP3    H267557   2.954   6.351   2.511  0.0769  0.0159  0.9369
15356TIP3   OH267558   3.667   0.143  15.021  0.0747 -0.3412  0.3935
15356TIP3    H167559   3.645   0.050  15.019  1.4479 -0.6560 -0.9660
15356TIP3    H267560   3.620   0.176  15.098 -1.8258 -1.7790 -0.0747
15357TIP3   OH267561   2.968   4.451  17.211  0.0339 -0.4289 -0.4673
15357TIP3    H167562   2.975   4.398  17.132  0.2668  0.9595 -1.4209
15357TIP3    H267563   2.904   4.518  17.190 -0.0246 -0.1344  0.5883
15358TIP3   OH267564   5.642   4.054  16.813  0.4395 -0.1055 -0.0937
15358TIP3    H167565   5.614   3.994  16.745  1.6289 -1.2131  0.3482
15358TIP3    H267566   5.618   4.141  16.781 -2.3229 -0.8548 -0.2492
15359TIP3   OH267567   2.013   3.522  11.258  0.6075 -0.6363  0.4513
15359TIP3    H167568   1.989   3.598  11.311  0.9001 -0.5098  0.4012
15359TIP3    H267569   2.061   3.558  11.184 -2.0964 -0.5223 -1.3907
15360TIP3   OH267570   0.790   3.716  13.537 -0.1871  0.1964 -0.5386
15360TIP3    H167571   0.793   3.706  13.442  0.4867  0.3781 -0.5401
15360TIP3    H267572   0.866   3.667  13.569  0.4295  1.3366 -0.2046
15361TIP3   OH267573   5.004   4.834   3.480 -0.3966 -0.2107  0.4494
15361TIP3    H167574   4.933   4.855   3.419  1.3138  2.0607 -0.9383
15361TIP3    H267575   5.063   4.778   3.430  0.2345  0.3728  0.5123
15362TIP3   OH267576   4.341   0.444   4.265  0.4482  0.1143  0.6294
15362TIP3    H167577   4.419   0.397   4.237 -0.1416 -0.6248  0.1755
15362TIP3    H267578   4.374   0.517   4.319  1.3965 -0.6030  1.0415
15363TIP3   OH267579   0.390   0.133   6.119  0.2627 -0.5265 -0.1818
15363TIP3    H167580   0.309   0.122   6.170  0.3663 -1.2268 -0.1611
15363TIP3    H267581   0.454   0.166   6.183  0.4001 -1.4268  0.1670
15364TIP3   OH267582   6.049   2.816   1.896 -0.2702  0.2065 -0.5649
15364TIP3    H167583   5.974   2.789   1.950 -0.0489 -0.5561 -0.6255
15364TIP3    H267584   6.031   2.778   1.810 -0.3285  0.9152 -0.8653
15365TIP3   OH267585   4.871   0.492  14.678  0.1455 -0.3407  0.2704
15365TIP3    H167586   4.826   0.423  14.630 -0.8778 -0.0394  0.7805
15365TIP3    H267587   4.888   0.454  14.764 -0.5135  0.0686  0.5867
15366TIP3   OH267588   0.043   2.719  15.252  0.1815 -0.8489 -0.3978
15366TIP3    H167589   0.025   2.647  15.192 -0.4503 -1.8949  0.9836
15366TIP3    H267590   0.136   2.712  15.272  0.5563 -0.0773 -1.7232
15367TIP3   OH267591   3.292   0.111   0.201  0.0561  1.1656  0.2120
15367TIP3    H167592   3.358   0.149   0.258  1.3308  0.8080 -0.9661
15367TIP3    H267593   3.324   0.127   0.112 -0.8792  0.0126 -0.3803
15368TIP3   OH267594   1.960   4.194   2.961 -0.0990  0.6251 -0.2205
15368TIP3    H167595   1.885   4.192   3.021  0.2124 -0.8602  0.1550
15368TIP3    H267596   2.027   4.142   3.004 -0.0853 -1.0448 -2.0986
15369TIP3   OH267597   0.350   1.406  13.169 -0.1379  0.4766 -0.1612
15369TIP3    H167598   0.354   1.478  13.106  1.8715 -0.5501 -1.3177
15369TIP3    H267599   0.360   1.448  13.254  1.5677  1.5619 -0.8462
15370TIP3   OH267600   5.775   1.615  17.181  0.7136 -0.1623  0.2369
15370TIP3    H167601   5.805   1.528  17.154  0.2054 -0.3556  0.2803
15370TIP3    H267602   5.820   1.632  17.264  1.6752  0.0956 -0.3184
15371TIP3   OH267603   2.397   4.353  14.233  0.1771 -0.4304 -0.2748
15371TIP3    H167604   2.389   4.358  14.328  1.3968  1.3413 -0.2321
15371TIP3    H267605   2.328   4.412  14.200 -0.3532 -1.1674 -0.5222
15372TIP3   OH267606   3.750   3.542   3.292 -0.1006 -0.0054  0.3664
15372TIP3    H167607   3.745   3.591   3.374  0.1218 -1.7834  1.4913
15372TIP3    H267608   3.727   3.606   3.225  0.8328  1.8003  1.6803
15373TIP3   OH267609   0.434   4.335  16.396  0.6313 -0.4886 -0.3868
15373TIP3    H167610   0.456   4.316  16.487  0.6119 -0.9647 -0.4771
15373TIP3    H267611   0.387   4.257  16.366 -0.0061 -0.0316 -0.5911
15374TIP3   OH267612   3.339   3.486  14.021  0.5040  0.5941 -0.0836
15374TIP3    H167613   3.257   3.494  14.069  0.9317  1.0182  0.6041
15374TIP3    H267614   3.320   3.427  13.949 -0.4661  0.8791 -0.0703
15375TIP3   OH267615   6.259   3.592   1.767  0.5365  0.0389  0.0701
15375TIP3    H167616   6.265   3.577   1.861 -0.3254  0.7987  0.2634
15375TIP3    H267617   6.296   3.513   1.728 -0.8581 -1.1342  1.0357
15376TIP3   OH267618   1.833   3.990  14.234 -0.2472 -0.4016 -0.2581
15376TIP3    H167619   1.887   3.967  14.159  0.6030  2.0555 -0.4848
15376TIP3    H267620   1.890   3.973  14.310  0.4224  0.9899 -0.4283
15377TIP3   OH267621   6.430   2.685  14.220 -0.1776  0.5214 -0.4688
15377TIP3    H167622   6.382   2.632  14.156 -1.6168 -0.0559  1.0174
15377TIP3    H267623   6.389   2.771  14.215  0.0596  0.6230 -0.6826
15378TIP3   OH267624   4.664   2.708  13.520  0.2977 -0.1259  0.2018
15378TIP3    H167625   4.613   2.631  13.543  0.0059  0.5739  2.1446
15378TIP3    H267626   4.732   2.676  13.461 -1.6093 -1.2973 -1.4698
15379TIP3   OH267627   4.885   3.151  15.680  0.7636  0.2662  0.7773
15379TIP3    H167628   4.920   3.078  15.731  0.1587 -1.2591 -0.8879
15379TIP3    H267629   4.920   3.138  15.592 -2.4712 -0.3927 -0.5634
15380TIP3   OH267630   5.806   0.005  13.422 -0.6527 -0.3357  0.1188
15380TIP3    H167631   5.762   0.019  13.338  1.8242  1.5557 -0.9768
15380TIP3    H267632   5.806   0.091  13.464  2.0909 -0.1668 -0.0574
15381TIP3   OH267633   0.470   5.974   6.431 -0.5870 -0.6091 -0.0548
15381TIP3    H167634   0.557   5.950   6.400 -0.3857 -1.2259  0.9363
15381TIP3    H267635   0.484   6.004   6.521 -1.1923  0.8238 -0.3963
15382TIP3   OH267636   6.408   1.585  11.823 -0.1757 -0.0420 -0.3996
15382TIP3    H167637   6.437   1.575  11.732 -3.9216  0.7291 -1.8618
15382TIP3    H267638   6.424   1.677  11.844  0.1088 -0.0708 -0.4870
15383TIP3   OH267639   0.663   1.434  14.711  0.0341  0.5059  0.0895
15383TIP3    H167640   0.599   1.374  14.673  0.2767  0.0469  0.3980
15383TIP3    H267641   0.714   1.466  14.637 -1.0322  1.4641 -0.2644
15384TIP3   OH267642   5.821   1.739  12.283 -0.3383  1.0358  0.8154
15384TIP3    H167643   5.772   1.782  12.213 -0.9880 -2.4176 -1.0530
15384TIP3    H267644   5.789   1.781  12.363 -2.9707  2.0458 -0.6199
15385TIP3   OH267645   0.373   0.997  12.913  0.5113  0.0133  0.3026
15385TIP3    H167646   0.397   1.032  12.999 -0.3624 -0.3322  0.6982
15385TIP3    H267647   0.304   0.934  12.931  0.0563  0.2000 -0.6939
15386TIP3   OH267648   5.231   2.175  11.675 -0.4085 -0.4470 -0.2235
15386TIP3    H167649   5.173   2.107  11.708  0.7206 -0.3577  2.1389
15386TIP3    H267650   5.181   2.256  11.685 -0.7698 -0.6255 -0.5496
15387TIP3   OH267651   5.775   0.007  11.001  0.1313  0.8327  0.1629
15387TIP3    H167652   5.762   0.018  10.906 -1.1305  0.5923  0.2863
15387TIP3    H267653   5.825  -0.074  11.009  1.1133  1.3680 -0.3276
15388TIP3   OH267654   6.468   1.128  14.110  0.2411  0.4966 -0.5230
15388TIP3    H167655   6.521   1.088  14.179  1.0674 -1.3596 -2.1430
15388TIP3    H267656   6.498   1.219  14.106 -0.2539  0.8378  1.9118
15389TIP3   OH267657   4.709   5.614  14.339 -0.4504  0.1621 -0.1234
15389TIP3    H167658   4.618   5.641  14.357 -1.0470 -1.7147 -0.1166
15389TIP3    H267659   4.712   5.604  14.244 -0.6843 -1.1287 -0.0121
15390TIP3   OH267660   2.086   4.168  11.330  0.2208  0.2703 -0.2940
15390TIP3    H167661   2.008   4.196  11.378  0.4245  1.2304 -0.4967
15390TIP3    H267662   2.065   4.186  11.238  0.6814  0.5610 -0.3487
15391TIP3   OH267663   6.040   3.773  13.413  0.1011  0.4372  0.3989
15391TIP3    H167664   6.075   3.793  13.500 -0.4106 -0.3744  0.7948
15391TIP3    H267665   5.964   3.829  13.404 -0.1066  0.1975  0.6569
15392TIP3   OH267666   6.722   2.658   4.267 -0.2310 -0.0453  0.1857
15392TIP3    H167667   6.689   2.678   4.355  0.0901 -0.4081  0.3892
15392TIP3    H267668   6.755   2.568   4.274 -2.1575 -0.8846 -0.8482
15393TIP3   OH267669   6.260   4.730   1.638  0.1007 -0.3512 -0.3629
15393TIP3    H167670   6.294   4.775   1.715  0.2102  0.0063 -0.6232
15393TIP3    H267671   6.291   4.640   1.648  1.2447 -0.0037 -0.6682
15394TIP3   OH267672   4.876   6.644   3.415 -0.6577 -0.6088 -0.2426
15394TIP3    H167673   4.813   6.670   3.347 -0.6488 -1.4950 -0.5943
15394TIP3    H267674   4.853   6.554   3.436 -1.0605 -0.1545  1.3974
15395TIP3   OH267675   5.588   0.907   0.485  0.1301 -0.2386  0.5251
15395TIP3    H167676   5.661   0.969   0.482 -0.8857  0.9946  0.4494
15395TIP3    H267677   5.573   0.884   0.393 -1.3623  1.7306  0.2083
15396TIP3   OH267678   2.215   0.239   0.105  0.6263  0.2197  0.1444
15396TIP3    H167679   2.131   0.227   0.062 -0.0112 -0.5070  1.5104
15396TIP3    H267680   2.278   0.248   0.034 -0.4916 -0.0879 -0.9096
15397TIP3   OH267681   6.692   0.526   2.542 -0.0563 -0.3882 -0.3347
15397TIP3    H167682   6.772   0.519   2.489  0.1017  0.0344 -0.1568
15397TIP3    H267683   6.719   0.499   2.629  0.2801  1.2311  0.0888
15398TIP3   OH267684   3.622   1.271   2.975 -0.2915 -0.3760 -0.0009
15398TIP3    H167685   3.542   1.236   3.012 -0.8107 -0.0583 -0.7846
15398TIP3    H267686   3.601   1.363   2.955  0.3042 -0.2528 -0.0871
15399TIP3   OH267687   2.287   5.408   2.122 -0.0291  0.2863  0.3388
15399TIP3    H167688   2.378   5.405   2.150  0.3204 -0.2575 -0.8157
15399TIP3    H267689   2.288   5.376   2.032 -1.1991  1.4192 -0.1066
15400TIP3   OH267690   2.600   1.577  10.456 -0.1697 -0.4473 -0.0342
15400TIP3    H167691   2.593   1.626  10.374 -1.1504 -0.7998 -0.1722
15400TIP3    H267692   2.539   1.504  10.445 -0.2462 -0.5441  0.9797
15401TIP3   OH267693   4.931   2.650  13.153 -0.0602  0.3869  0.2428
15401TIP3    H167694   4.970   2.582  13.097  1.1130  1.7390 -0.6395
15401TIP3    H267695   4.985   2.727  13.138 -0.7392  1.2615  2.0052
15402TIP3   OH267696   3.170   2.376   0.198  0.2831 -0.9008  0.5510
15402TIP3    H167697   3.190   2.362   0.291  0.7913 -1.3763  0.3769
15402TIP3    H267698   3.084   2.417   0.199  0.3284 -0.7970  1.2398
15403TIP3   OH267699   0.078   4.822   2.488 -0.1871  0.2649  0.1405
15403TIP3    H167700   0.002   4.777   2.452 -0.5784  0.0852  1.1574
15403TIP3    H267701   0.075   4.910   2.449 -0.6727  0.1155 -0.1638
15404TIP3   OH267702   3.659   3.394  14.271 -0.4490  0.6839 -0.1667
15404TIP3    H167703   3.638   3.354  14.186 -0.1008  0.8668 -0.3404
15404TIP3    H267704   3.574   3.403  14.315 -0.5753  0.0768 -0.2655
15405TIP3   OH267705   6.436   5.503   5.072 -0.3033 -0.4260  0.8528
15405TIP3    H167706   6.439   5.508   5.168 -0.9669  0.6935  0.8254
15405TIP3    H267707   6.482   5.581   5.042 -1.2996 -0.0420  0.2788
15406TIP3   OH267708   5.685   4.336   5.916 -0.4743 -0.0883  0.1188
15406TIP3    H167709   5.696   4.262   5.975  0.4252  0.2488  0.4064
15406TIP3    H267710   5.642   4.403   5.969 -2.2899 -0.7508 -0.4523
15407TIP3   OH267711   2.861   1.511   5.111 -0.5397  0.1085 -0.5480
15407TIP3    H167712   2.926   1.480   5.174 -1.0025  1.3232  0.5698
15407TIP3    H267713   2.835   1.432   5.064 -0.6462 -0.9885  1.2256
15408TIP3   OH267714   4.101   3.647   3.647  0.8545  0.5121 -0.1104
15408TIP3    H167715   4.080   3.586   3.576 -0.2550  0.4948  0.2177
15408TIP3    H267716   4.120   3.729   3.602 -0.4449  0.6659 -0.4131
15409TIP3   OH267717   5.934   1.915  17.141 -0.6144  0.0324 -0.1451
15409TIP3    H167718   5.992   1.991  17.137 -1.0813  0.4030  0.1170
15409TIP3    H267719   5.993   1.842  17.163 -0.4220  0.6248  1.4474
15410TIP3   OH267720   4.414   0.272   6.460  0.3343  0.1008  0.2108
15410TIP3    H167721   4.326   0.235   6.471 -0.2035  0.6283 -1.8354
15410TIP3    H267722   4.468   0.197   6.436  0.6272 -0.3289  2.0366
15411TIP3   OH267723   0.591   4.572   5.482  0.0603  0.6016 -0.1699
15411TIP3    H167724   0.648   4.573   5.405  0.9953  0.0554  0.4863
15411TIP3    H267725   0.601   4.483   5.518 -1.9432  0.1886 -0.5564
15412TIP3   OH267726   5.400   3.814  15.311 -0.2635  0.7010  0.8211
15412TIP3    H167727   5.473   3.833  15.370 -1.0150  0.8626  1.7151
15412TIP3    H267728   5.434   3.743  15.255 -0.1821 -0.8997  2.7683
15413TIP3   OH267729   1.542   0.960  13.226  0.3705  0.6896 -0.4367
15413TIP3    H167730   1.518   1.041  13.181 -0.3760  1.3985  1.1727
15413TIP3    H267731   1.629   0.939  13.192  0.3153  1.8205 -1.3440
15414TIP3   OH267732   0.795   4.039  16.739  0.0184 -0.8318  0.0790
15414TIP3    H167733   0.725   4.080  16.791 -0.4787 -1.1406 -0.3364
15414TIP3    H267734   0.785   3.945  16.754  0.2172 -0.8903 -0.1482
15415TIP3   OH267735   1.257   5.271   5.697 -0.0498  0.2654  0.3171
15415TIP3    H167736   1.232   5.179   5.698 -0.4879  0.3812  0.3327
15415TIP3    H267737   1.190   5.313   5.644  0.7786  0.4026 -0.6457
15416TIP3   OH267738   4.876   3.973  11.300 -0.2964 -0.4145  0.0960
15416TIP3    H167739   4.926   3.893  11.283  2.7000  1.6335 -1.8506
15416TIP3    H267740   4.886   3.988  11.393  0.5377 -1.4449  0.1977
15417TIP3   OH267741   2.530   0.229   5.046 -0.2928 -0.3857 -0.3966
15417TIP3    H167742   2.524   0.209   4.952 -0.0566 -0.4848 -0.3898
15417TIP3    H267743   2.477   0.308   5.057  1.6375  1.0755 -1.0356
15418TIP3   OH267744   2.492   5.842   3.862  0.2628 -0.5412 -0.7469
15418TIP3    H167745   2.565   5.898   3.838 -0.1285  0.5168  0.3954
15418TIP3    H267746   2.522   5.753   3.843  3.0156 -0.4442  2.2981
15419TIP3   OH267747   0.141   3.428   5.329 -0.0285  0.3638  0.0238
15419TIP3    H167748   0.111   3.374   5.255 -0.3407  0.3341  0.1695
15419TIP3    H267749   0.071   3.419   5.394  0.7614 -0.5183  0.7792
15420TIP3   OH267750   3.195   3.104   4.009  0.5487 -0.0408 -0.1143
15420TIP3    H167751   3.159   3.157   3.938 -0.2277 -1.2183 -0.6444
15420TIP3    H267752   3.274   3.065   3.973  0.3047 -0.4182 -0.2517
15421TIP3   OH267753   4.355   3.712  16.333  0.2869 -0.2236 -0.4962
15421TIP3    H167754   4.408   3.639  16.364  0.6812 -0.2973 -1.3081
15421TIP3    H267755   4.284   3.671  16.284 -0.7934 -0.1453  0.9237
15422TIP3   OH267756   1.684   3.824   2.498  0.4302  0.7254 -0.1268
15422TIP3    H167757   1.674   3.734   2.529 -0.4749  0.1593 -1.9319
15422TIP3    H267758   1.777   3.844   2.511  0.8487 -0.8151 -0.5692
15423TIP3   OH267759   1.884   0.606  17.133  0.4205  0.1376 -0.5782
15423TIP3    H167760   1.960   0.600  17.075  1.4498 -0.4904  0.7628
15423TIP3    H267761   1.889   0.695  17.170  0.7235 -0.0287 -0.2148
15424TIP3   OH267762   4.428   2.715   4.913 -0.0425  0.1037 -0.0864
15424TIP3    H167763   4.434   2.767   4.833 -0.1052  0.2057 -0.0239
15424TIP3    H267764   4.337   2.686   4.916  0.4089 -1.6377 -1.1587
15425TIP3   OH267765   6.538   2.680   1.152  0.4947 -0.3651 -0.1227
15425TIP3    H167766   6.623   2.689   1.107  0.2684 -0.1884 -0.5219
15425TIP3    H267767   6.559   2.692   1.245  0.8408  0.1265 -0.2600
15426TIP3   OH267768   4.292   4.224  15.548  0.1055  0.2684 -0.1105
15426TIP3    H167769   4.292   4.294  15.483  2.9375 -0.7440 -1.3569
15426TIP3    H267770   4.381   4.223  15.583 -1.1921  0.5131  3.6404
15427TIP3   OH267771   2.071   4.360   5.590 -0.5923  0.4143  0.0431
15427TIP3    H167772   2.099   4.451   5.582  0.3837  0.1339  0.1647
15427TIP3    H267773   1.999   4.362   5.654 -1.0359  1.1794 -0.4600
15428TIP3   OH267774   2.797   6.333  14.476 -0.0233 -0.7482  0.3103
15428TIP3    H167775   2.801   6.309  14.569 -1.1131  0.3722  0.6836
15428TIP3    H267776   2.737   6.408  14.474  1.4474  0.4687 -1.0483
15429TIP3   OH267777   5.610   3.036  11.662  0.3519 -0.4240  0.0772
15429TIP3    H167778   5.617   3.043  11.757  2.3013 -0.8932  0.0055
15429TIP3    H267779   5.591   3.126  11.633 -1.2988 -0.4504  0.9384
15430TIP3   OH267780   1.185   5.991   5.051  0.7840 -0.4395  0.0745
15430TIP3    H167781   1.122   6.061   5.034  1.2877 -0.3166 -1.3927
15430TIP3    H267782   1.140   5.932   5.111 -0.4756 -0.0217 -0.4351
15431TIP3   OH267783   1.002   1.367   4.515  0.3314 -0.4727 -0.1082
15431TIP3    H167784   0.995   1.287   4.567  1.9417 -0.4834  0.1398
15431TIP3    H267785   0.935   1.358   4.447  0.5555 -2.0721 -0.1494
15432TIP3   OH267786   2.638   2.351   1.008 -0.0752  0.1785  0.3871
15432TIP3    H167787   2.558   2.344   1.060  1.0219 -1.6643  1.9304
15432TIP3    H267788   2.613   2.319   0.921 -1.1961  0.4093  0.6124
15433TIP3   OH267789   0.705   0.530  14.832 -0.2741  0.0459  0.3283
15433TIP3    H167790   0.793   0.498  14.853 -0.0921  1.0717  1.1960
15433TIP3    H267791   0.683   0.589  14.904  0.0583  3.1422 -1.8846
15434TIP3   OH267792   5.296   0.237  16.906 -0.4523  0.1052 -0.1616
15434TIP3    H167793   5.382   0.266  16.937 -0.8183  0.8672  0.1752
15434TIP3    H267794   5.308   0.224  16.812 -0.2737  1.4481 -0.3534
15435TIP3   OH267795   4.170   1.558  16.242  0.1552  0.0901 -0.1768
15435TIP3    H167796   4.264   1.578  16.246  0.3046 -0.7107  1.3277
15435TIP3    H267797   4.160   1.484  16.303 -1.2714 -0.5692 -1.1866
15436TIP3   OH267798   1.005   2.208  15.859  0.0877  0.4023 -0.2048
15436TIP3    H167799   0.941   2.156  15.811 -2.4545  3.5014 -0.5332
15436TIP3    H267800   1.062   2.244  15.791  0.7009 -0.4343 -0.1520
15437TIP3   OH267801   1.588   2.149  14.126  0.6596  0.3590 -0.4478
15437TIP3    H167802   1.638   2.230  14.117 -1.4858  1.5930 -2.2000
15437TIP3    H267803   1.604   2.121  14.217  1.7283  2.5386  0.1078
15438TIP3   OH267804   3.782   2.404  15.037 -0.3427  0.2106  0.3513
15438TIP3    H167805   3.731   2.330  15.003  0.4067 -0.5201  0.7879
15438TIP3    H267806   3.873   2.380  15.021 -0.1060  1.8492 -1.1173
15439TIP3   OH267807   1.762   6.087   3.159  0.2760  1.0276  0.4010
15439TIP3    H167808   1.709   6.040   3.224  2.7157 -0.2262  1.6027
15439TIP3    H267809   1.697   6.123   3.098 -1.8983 -2.9370 -0.0043
15440TIP3   OH267810   1.596   3.576   6.112  0.6722 -0.0746  0.1193
15440TIP3    H167811   1.678   3.613   6.145  0.7273 -0.5008  0.4603
15440TIP3    H267812   1.603   3.482   6.130  0.7705 -0.3561 -1.2133
15441TIP3   OH267813   1.277   4.752  13.082  0.4543 -0.4928 -0.2470
15441TIP3    H167814   1.265   4.845  13.099 -0.0814 -0.5432 -0.3341
15441TIP3    H267815   1.363   4.732  13.118  0.3901 -0.0565  0.1603
15442TIP3   OH267816   1.376   5.289  15.203 -0.1315  0.2572  0.8764
15442TIP3    H167817   1.345   5.246  15.123 -0.9084  1.5219  0.4625
15442TIP3    H267818   1.380   5.218  15.268  0.0865 -0.7077 -0.1523
15443TIP3   OH267819   4.112   1.450  13.551  0.0314 -0.7161 -0.2537
15443TIP3    H167820   4.060   1.500  13.614 -0.0576  0.6848 -1.3923
15443TIP3    H267821   4.188   1.505  13.533  1.7031 -2.5071  0.9845
15444TIP3   OH267822   1.159   2.346   4.596  0.0835  0.1108 -0.3374
15444TIP3    H167823   1.108   2.403   4.538  0.8447  0.0584 -1.0631
15444TIP3    H267824   1.193   2.277   4.539 -0.6487 -0.9797  0.4926
15445TIP3   OH267825   3.904   4.979  14.110  0.6017 -0.3296  0.3811
15445TIP3    H167826   3.888   5.037  14.184 -1.2306  0.4350 -0.5538
15445TIP3    H267827   3.817   4.961  14.074  1.3904 -1.2100 -1.1993
15446TIP3   OH267828   0.821   6.655  12.293  0.0670  0.1549 -0.4031
15446TIP3    H167829   0.880   6.708  12.347  1.3518 -0.7332 -0.9058
15446TIP3    H267830   0.826   6.567  12.331  0.0791 -0.2190 -1.2587
15447TIP3   OH267831   5.332   0.319  10.887 -0.4778  0.4115  0.2496
15447TIP3    H167832   5.300   0.248  10.944 -0.2616  0.7502  0.8046
15447TIP3    H267833   5.422   0.295  10.867 -0.2729  0.7205  0.7681
15448TIP3   OH267834   4.804   0.289  12.196  0.1297  0.2631  0.3154
15448TIP3    H167835   4.725   0.298  12.250  1.6745  0.7012  2.6366
15448TIP3    H267836   4.867   0.349  12.236  2.5616 -2.1308  0.3553
15449TIP3   OH267837   6.173   3.121  15.527 -0.3147 -0.3373 -0.2076
15449TIP3    H167838   6.118   3.150  15.600 -0.4676  1.2587 -0.9203
15449TIP3    H267839   6.238   3.191  15.516  0.2842 -0.9942 -1.0184
15450TIP3   OH267840   0.491   2.344   5.283  0.0496 -0.4950 -0.2098
15450TIP3    H167841   0.418   2.284   5.299  1.5383 -1.6043  3.4893
15450TIP3    H267842   0.565   2.286   5.261  0.5346  0.3668 -0.9013
15451TIP3   OH267843   3.212   3.005   4.964 -0.0230  0.0412  0.1751
15451TIP3    H167844   3.143   2.970   4.908  0.1727  2.0768 -1.4521
15451TIP3    H267845   3.293   2.971   4.926 -0.0207 -2.2828  2.0374
15452TIP3   OH267846   5.771   1.519   2.707  0.0236  0.3811  0.4291
15452TIP3    H167847   5.756   1.443   2.763  0.2987  0.2144  0.2810
15452TIP3    H267848   5.684   1.556   2.692 -0.0648  0.3663  0.8794
15453TIP3   OH267849   2.184   3.671  13.844  0.7349 -0.0785 -0.4002
15453TIP3    H167850   2.145   3.712  13.768 -1.5002 -2.3242 -0.5908
15453TIP3    H267851   2.131   3.701  13.918 -0.3133 -1.7542 -0.4259
15454TIP3   OH267852   2.218   4.242  15.913  0.0551  0.1467 -0.4520
15454TIP3    H167853   2.259   4.261  15.997 -1.3676  1.2322  0.0251
15454TIP3    H267854   2.199   4.327  15.875  1.7796 -0.2700 -2.4968
15455TIP3   OH267855   0.956   6.171  11.224  0.2884  0.2234 -0.1541
15455TIP3    H167856   0.873   6.207  11.193 -0.4968 -0.2895  1.2483
15455TIP3    H267857   0.982   6.108  11.156 -1.0085 -0.3612 -0.1476
15456TIP3   OH267858   1.818   0.684   1.089  0.3081  0.1414 -0.2365
15456TIP3    H167859   1.735   0.636   1.089  0.6610 -0.5071  0.9800
15456TIP3    H267860   1.878   0.629   1.039  0.8524 -1.0109  1.5792
15457TIP3   OH267861   3.536   5.889   1.550 -0.4716 -0.5892  0.1205
15457TIP3    H167862   3.628   5.866   1.543 -0.6784 -0.9812 -3.0457
15457TIP3    H267863   3.535   5.971   1.599  1.4107 -1.1990  1.2484
15458TIP3   OH267864   3.814   5.077   3.575 -0.2612  0.0991 -0.0509
15458TIP3    H167865   3.849   5.147   3.519 -0.6833 -0.2331 -0.7396
15458TIP3    H267866   3.772   5.017   3.514 -0.5136 -0.3968  0.6104
15459TIP3   OH267867   4.817   1.628   3.519  0.1586  0.2024  0.1820
15459TIP3    H167868   4.888   1.575   3.555 -0.6710 -1.7562 -0.9178
15459TIP3    H267869   4.848   1.657   3.434 -0.4407 -0.9441 -0.4512
15460TIP3   OH267870   6.392   2.417  12.008  0.3355  0.0655 -0.2611
15460TIP3    H167871   6.422   2.507  12.023  1.1441 -0.4358  1.3736
15460TIP3    H267872   6.301   2.416  12.036 -0.0234  0.6193 -1.3499
15461TIP3   OH267873   6.613   4.660   2.585 -0.3131 -0.5564  0.3649
15461TIP3    H167874   6.609   4.753   2.564  0.2640 -0.4017  0.9136
15461TIP3    H267875   6.631   4.657   2.679  1.6175 -1.1877  0.0318
15462TIP3   OH267876   0.865   2.774  11.700  0.4623  0.1573 -0.4584
15462TIP3    H167877   0.911   2.763  11.783  3.1248  0.0281 -1.8627
15462TIP3    H267878   0.868   2.868  11.683  1.7382 -0.0303 -1.3506
15463TIP3   OH267879   4.565   4.970   1.914  0.4661  0.2000 -0.3055
15463TIP3    H167880   4.613   5.044   1.878  0.6677  0.4469  0.4418
15463TIP3    H267881   4.607   4.952   1.998 -2.1349  1.9627  1.5537
15464TIP3   OH267882   6.529   1.410   5.725 -0.5099 -0.5120  0.2407
15464TIP3    H167883   6.612   1.450   5.751 -1.2736  1.7291 -0.4921
15464TIP3    H267884   6.538   1.392   5.632 -0.7632 -0.4797  0.2084
15465TIP3   OH267885   5.943   1.600  15.595 -0.4706  0.2436 -0.5432
15465TIP3    H167886   5.911   1.510  15.602  0.1318  0.1147  1.0087
15465TIP3    H267887   6.001   1.610  15.671 -2.2314  2.6362  0.6170
15466TIP3   OH267888   2.251   6.136  12.471 -0.3523  0.0340  0.2979
15466TIP3    H167889   2.288   6.187  12.542  2.4483 -0.9800 -0.2699
15466TIP3    H267890   2.262   6.191  12.393  1.3708 -0.7464 -0.0821
15467TIP3   OH267891   6.245   1.197  14.819 -0.4082  0.1347  0.2841
15467TIP3    H167892   6.227   1.267  14.881 -2.3294  0.5286 -0.6447
15467TIP3    H267893   6.161   1.151  14.809 -0.1313 -0.0033 -1.8860
15468TIP3   OH267894   4.075   2.520  11.011 -0.0823  0.4131  0.1723
15468TIP3    H167895   3.987   2.557  11.008  0.9136  2.9216 -0.0147
15468TIP3    H267896   4.097   2.503  10.920 -0.2548 -0.0162  0.2044
15469TIP3   OH267897   6.473   4.913   5.515 -0.0415 -0.2712 -0.5481
15469TIP3    H167898   6.537   4.947   5.577  0.3647 -0.0440 -1.0806
15469TIP3    H267899   6.462   4.821   5.538  1.5684 -0.7005 -1.3409
15470TIP3   OH267900   0.294   6.418  17.215 -0.4300  0.0577 -0.1525
15470TIP3    H167901   0.249   6.435  17.132 -1.6979 -1.0002  0.2768
15470TIP3    H267902   0.362   6.355  17.193 -1.2676 -0.8255 -0.2839
15471TIP3   OH267903   0.112   3.797   3.921  0.1723 -0.3625 -0.2868
15471TIP3    H167904   0.067   3.727   3.874 -1.7194  0.5588  0.0723
15471TIP3    H267905   0.111   3.871   3.861 -0.1177  0.0989  0.2733
15472TIP3   OH267906   3.178   1.383   0.613  0.2168  0.3113 -0.1081
15472TIP3    H167907   3.118   1.320   0.651  0.9095 -0.4369 -0.2288
15472TIP3    H267908   3.141   1.403   0.527 -0.5006  0.8017  0.3008
15473TIP3   OH267909   1.769   6.813   3.800  0.3300 -0.8226  0.2050
15473TIP3    H167910   1.677   6.810   3.825  0.3718  2.0134  1.0132
15473TIP3    H267911   1.769   6.854   3.713  0.8380 -0.9954  0.1200
15474TIP3   OH267912   4.004   0.264  11.225 -0.5255  0.1348 -0.2041
15474TIP3    H167913   3.914   0.232  11.220 -0.0271 -1.8314  1.8954
15474TIP3    H267914   4.000   0.337  11.286 -0.3071 -1.9941  2.5264
15475TIP3   OH267915   4.353   5.805   3.793  0.5912 -0.1953 -0.0258
15475TIP3    H167916   4.447   5.790   3.801  0.5014 -0.6531  0.2137
15475TIP3    H267917   4.325   5.743   3.726  0.6311  0.6879 -0.8884
15476TIP3   OH267918   0.786   4.243  13.614  0.1013 -0.0521 -0.3045
15476TIP3    H167919   0.806   4.201  13.531  0.9872 -1.3488  0.5337
15476TIP3    H267920   0.806   4.177  13.680 -2.0545  0.3923  0.8837
15477TIP3   OH267921   1.018   3.054  15.217 -0.2395  0.2527 -0.8281
15477TIP3    H167922   1.110   3.049  15.241 -0.5567 -1.3843  0.1610
15477TIP3    H267923   1.015   3.023  15.126  0.3711  2.0472 -1.5109
15478TIP3   OH267924   2.075   6.613   4.995  0.0978  0.9570 -0.1533
15478TIP3    H167925   2.125   6.670   4.936 -0.0351  1.8347  0.5554
15478TIP3    H267926   2.009   6.670   5.034  1.1410  0.8263  2.0109
15479TIP3   OH267927   2.369   4.728  14.151 -0.4253  0.0843  0.1553
15479TIP3    H167928   2.385   4.786  14.076 -0.6720  0.1364  0.1417
15479TIP3    H267929   2.303   4.666  14.119 -0.0532 -0.2972  0.1238
15480TIP3   OH267930   2.128   1.156   1.881  0.3241  0.1531  0.7595
15480TIP3    H167931   2.118   1.137   1.788  0.9320  0.2572  0.6639
15480TIP3    H267932   2.115   1.251   1.887  0.4230  0.1669  0.7581
15481TIP3   OH267933   2.900   2.279  17.138  0.0609 -0.5293 -0.2665
15481TIP3    H167934   2.904   2.300  17.045  2.5006 -1.7061 -0.5170
15481TIP3    H267935   2.992   2.272  17.165 -0.5091  1.9112  2.7917
15482TIP3   OH267936   5.266   4.399  16.441  0.0629  0.8540 -0.1715
15482TIP3    H167937   5.320   4.465  16.484  0.1215 -0.2350  1.5491
15482TIP3    H267938   5.224   4.352  16.513 -0.0165 -0.9260 -1.3105
15483TIP3   OH267939   3.153   4.041   4.956 -0.7151  0.0569 -0.4303
15483TIP3    H167940   3.060   4.038   4.979 -0.6817  1.3704 -0.0548
15483TIP3    H267941   3.157   4.095   4.877 -0.2026  0.7164  0.0319
15484TIP3   OH267942   3.446   1.571  12.921  0.3512 -0.0931  0.0283
15484TIP3    H167943   3.426   1.480  12.898  2.3070 -0.9939  1.5402
15484TIP3    H267944   3.516   1.597  12.861  3.2494 -1.3842  2.5421
15485TIP3   OH267945   1.780   3.129   0.288 -0.1322  0.2021 -0.1717
15485TIP3    H167946   1.721   3.057   0.264  1.3664 -1.0017 -0.3919
15485TIP3    H267947   1.722   3.198   0.320 -1.5249 -1.9886  2.4578
15486TIP3   OH267948   6.469   6.139   5.524  0.0731  0.2578  0.2083
15486TIP3    H167949   6.410   6.206   5.488  2.2433  1.6558 -0.9603
15486TIP3    H267950   6.487   6.168   5.613 -0.6106  0.0727  0.4136
15487TIP3   OH267951   3.151   1.326   3.338 -0.2897  0.3809 -0.0180
15487TIP3    H167952   3.138   1.297   3.429 -0.2935  1.2311  0.2640
15487TIP3    H267953   3.093   1.270   3.287  1.4322 -1.7289  0.1868
15488TIP3   OH267954   4.475   5.644  15.939  0.3539  0.2170 -0.0443
15488TIP3    H167955   4.438   5.566  15.979 -1.3799  0.0311 -1.8502
15488TIP3    H267956   4.558   5.615  15.902  0.1091 -0.5661  0.0001
15489TIP3   OH267957   4.469   3.687   5.059 -0.1467  0.2967  0.4891
15489TIP3    H167958   4.473   3.594   5.083  2.5889  0.3244  0.4222
15489TIP3    H267959   4.453   3.686   4.965  1.6082 -0.2136  0.1587
15490TIP3   OH267960   5.634   5.882   5.012  0.0458  0.1512 -0.2516
15490TIP3    H167961   5.677   5.837   4.938 -1.2761 -1.1704 -0.2601
15490TIP3    H267962   5.674   5.969   5.013  0.3556  0.0834 -2.3108
15491TIP3   OH267963   4.288   2.412  12.687 -0.1763 -0.6911 -0.0666
15491TIP3    H167964   4.375   2.429  12.651 -0.6360 -0.1253 -0.9451
15491TIP3    H267965   4.242   2.495  12.677 -0.3914 -0.5718  1.6685
15492TIP3   OH267966   3.017   1.800   3.404 -0.1116 -0.1960  0.0575
15492TIP3    H167967   3.109   1.798   3.431 -0.2164 -0.8105  0.3874
15492TIP3    H267968   3.004   1.719   3.356 -0.5031 -0.1469  0.0762
15493TIP3   OH267969   5.142   4.914  14.729 -0.1078  0.4014  0.0042
15493TIP3    H167970   5.184   5.000  14.726 -0.7366  0.8337  2.1320
15493TIP3    H267971   5.209   4.855  14.764  0.5893 -0.2221 -2.1900
15494TIP3   OH267972   3.315   5.153  10.558  0.0091  0.2987  0.1841
15494TIP3    H167973   3.364   5.124  10.481 -1.7837 -0.3102 -0.7981
15494TIP3    H267974   3.377   5.148  10.630  2.0134  1.7212 -1.3341
15495TIP3   OH267975   6.211   5.267  13.621 -0.3255 -0.5529  0.0657
15495TIP3    H167976   6.256   5.208  13.560  0.3032  0.3659 -0.3748
15495TIP3    H267977   6.118   5.256  13.600 -0.1459 -0.6053 -0.7232
15496TIP3   OH267978   4.257   4.851   5.518 -0.3117 -0.8078  0.2386
15496TIP3    H167979   4.297   4.911   5.455 -1.7787 -0.3746 -0.3299
15496TIP3    H267980   4.258   4.899   5.601 -0.2769 -0.5222  0.0765
15497TIP3   OH267981   2.023   1.073   2.138 -0.0290  0.3451  0.0611
15497TIP3    H167982   2.085   1.145   2.131  0.0503  0.2138 -0.7605
15497TIP3    H267983   1.988   1.063   2.049 -0.7408 -0.0083  0.3677
15498TIP3   OH267984   4.613   0.642  14.308 -0.3194  0.0587  1.0967
15498TIP3    H167985   4.603   0.735  14.326 -2.1870  0.3959 -1.1036
15498TIP3    H267986   4.634   0.638  14.214  0.9952 -1.7081  1.4131
15499TIP3   OH267987   6.285   1.723  13.895 -0.1030  0.2327  0.2294
15499TIP3    H167988   6.376   1.693  13.886 -0.6419 -1.1121 -1.2312
15499TIP3    H267989   6.278   1.796  13.833 -0.1675 -0.0154 -0.0539
15500TIP3   OH267990   5.969   2.721   2.800 -0.0250 -0.0722  0.0030
15500TIP3    H167991   5.954   2.752   2.710 -1.7685 -0.0451  0.2610
15500TIP3    H267992   5.976   2.801   2.852  0.9151 -0.0884 -0.0903
15501TIP3   OH267993   2.908   5.440   0.859 -0.1912  0.1240 -0.1872
15501TIP3    H167994   2.895   5.535   0.850 -3.0095 -0.2384 -1.1419
15501TIP3    H267995   2.995   5.424   0.823 -0.8017  2.0345 -2.7942
15502TIP3   OH267996   1.716   3.191   4.546 -0.8185  0.2602 -0.1242
15502TIP3    H167997   1.801   3.148   4.551 -1.2632 -0.5147  1.7979
15502TIP3    H267998   1.711   3.244   4.625 -1.7816  0.9828 -0.6450
15503TIP3   OH267999   3.373   5.793   1.330 -0.8976 -0.2130  0.1527
15503TIP3    H168000   3.310   5.860   1.301  0.2147  1.2079  0.9117
15503TIP3    H268001   3.415   5.831   1.407  0.3030 -1.4810  0.1563
15504TIP3   OH268002   1.160   4.288  16.547  0.1389  0.1045  0.6074
15504TIP3    H168003   1.146   4.229  16.621  0.5889  1.0220  1.4552
15504TIP3    H268004   1.078   4.337  16.538  0.7647  1.4719  1.8925
15505TIP3   OH268005   4.355   3.652  14.282 -0.0681 -0.0602 -0.1702
15505TIP3    H168006   4.326   3.700  14.205  1.8151  3.1633  0.9459
15505TIP3    H268007   4.398   3.573  14.247 -1.9778 -0.2784 -2.1713
15506TIP3   OH268008   3.946   4.674  14.100  0.0291 -0.8390  0.4432
15506TIP3    H168009   3.890   4.659  14.024 -0.4741 -0.0687  0.6496
15506TIP3    H268010   3.907   4.621  14.170  1.3763 -2.7686 -0.2018
15507TIP3   OH268011   4.381   0.245  16.936 -0.3861 -0.2942  0.3756
15507TIP3    H168012   4.306   0.193  16.964 -1.1048 -0.1555 -1.1983
15507TIP3    H268013   4.454   0.183  16.935 -1.1237 -1.1698 -0.9864
15508TIP3   OH268014   1.442   5.411  16.351 -0.1118 -0.3218  0.0158
15508TIP3    H168015   1.511   5.376  16.295 -0.1436 -0.0869 -0.1715
15508TIP3    H268016   1.365   5.415  16.296  0.4129  2.1278 -0.6552
15509TIP3   OH268017   5.390   0.071   1.738  0.1781  0.2195 -0.0804
15509TIP3    H168018   5.403   0.063   1.832 -0.1911 -1.2958 -0.1312
15509TIP3    H268019   5.392   0.165   1.721 -1.1969  0.6089  1.6562
15510TIP3   OH268020   5.411   2.995  10.903  0.1048 -0.4049  0.1966
15510TIP3    H168021   5.421   3.047  10.823 -0.4378 -1.3818 -0.5227
15510TIP3    H268022   5.389   3.059  10.970 -1.2002  0.2416 -0.8069
15511TIP3   OH268023   1.140   0.190  13.657  0.3546  0.5536  0.5087
15511TIP3    H168024   1.197   0.208  13.732  2.0420  2.7688 -1.1914
15511TIP3    H268025   1.152   0.264  13.598 -3.0550  0.2972 -0.7680
15512TIP3   OH268026   3.515   2.539   1.995 -0.6937  0.6874 -0.5198
15512TIP3    H168027   3.492   2.568   2.083  0.3203  0.8737 -0.3070
15512TIP3    H268028   3.596   2.585   1.975  1.0513 -2.0340 -0.1151
15513TIP3   OH268029   4.672   5.284   0.655  0.2414  0.4964  0.2105
15513TIP3    H168030   4.595   5.264   0.600  0.9004  0.7357 -0.8309
15513TIP3    H268031   4.635   5.298   0.742 -0.7649 -0.5849 -0.0010
15514TIP3   OH268032   3.889   4.887  13.784 -0.1544  0.3612 -0.4492
15514TIP3    H168033   3.810   4.852  13.826 -0.1331  0.5298 -0.2671
15514TIP3    H268034   3.954   4.889  13.854  0.4464 -1.1193 -0.9156
15515TIP3   OH268035   4.097   3.345  12.291  0.1828  0.2788 -0.0094
15515TIP3    H168036   4.114   3.437  12.271  1.0689 -0.2385 -1.9554
15515TIP3    H268037   4.105   3.339  12.386 -1.7328  2.5341  0.3833
15516TIP3   OH268038   3.310   1.186   2.809 -0.1013 -0.0075 -0.0929
15516TIP3    H168039   3.223   1.165   2.775 -0.4875  0.6680  0.4509
15516TIP3    H268040   3.294   1.222   2.896  0.6965  0.5556 -0.1689
15517TIP3   OH268041   4.749   5.169   1.864  0.2872  0.2305 -0.2395
15517TIP3    H168042   4.742   5.249   1.812 -0.2991  0.1815 -0.2407
15517TIP3    H268043   4.768   5.200   1.952  0.2494  0.3661 -0.2781
15518TIP3   OH268044   0.299   5.427   4.809  0.4352 -0.5123  0.0269
15518TIP3    H168045   0.345   5.486   4.869 -1.4376 -0.7572  1.8200
15518TIP3    H268046   0.259   5.484   4.744  1.1260 -0.1024 -0.0583
15519TIP3   OH268047   1.040   0.136  11.516 -0.1731  0.0839 -0.1756
15519TIP3    H168048   1.007   0.225  11.513 -0.9228 -0.2074 -2.7358
15519TIP3    H268049   1.133   0.146  11.538  0.0327  1.6185 -1.5603
15520TIP3   OH268050   0.211   4.152   4.436  0.3796 -0.3724  0.3358
15520TIP3    H168051   0.302   4.161   4.408  0.8599  0.1512  1.9393
15520TIP3    H268052   0.216   4.106   4.520 -0.5214  2.3073  1.9969
15521TIP3   OH268053   3.621   2.651   5.325 -0.0150 -0.0872 -0.7994
15521TIP3    H168054   3.531   2.620   5.329  0.3124 -0.9514  1.6369
15521TIP3    H268055   3.665   2.591   5.266 -0.4702 -1.3636  0.1160
15522TIP3   OH268056   0.166   5.721   4.146  0.5433  0.2157 -0.6356
15522TIP3    H168057   0.189   5.764   4.228 -0.7002 -0.0297 -0.1297
15522TIP3    H268058   0.143   5.631   4.172 -2.9535  0.9628 -0.7056
15523TIP3   OH268059   3.846   0.986   0.938 -0.5788  0.0423 -0.0359
15523TIP3    H168060   3.873   0.941   0.858 -0.6089  0.4670 -0.2902
15523TIP3    H268061   3.757   1.017   0.919 -0.7475 -0.2187  0.3162
15524TIP3   OH268062   0.747   0.451   4.809 -0.4639 -0.5799  0.7793
15524TIP3    H168063   0.801   0.508   4.864 -0.4300  0.5085 -0.3338
15524TIP3    H268064   0.660   0.455   4.849 -1.1165  2.3106 -0.6000
15525TIP3   OH268065   0.044   0.417  11.932  0.0764 -0.2684  0.6393
15525TIP3    H168066  -0.007   0.394  12.009  0.4514  1.3995  1.4362
15525TIP3    H268067   0.043   0.338  11.877 -1.5037 -0.9654  1.6192
15526TIP3   OH268068   2.663   0.184  11.444 -0.2760  0.1366 -0.2161
15526TIP3    H168069   2.663   0.258  11.383  1.2356  0.2667 -0.0851
15526TIP3    H268070   2.644   0.108  11.388  0.7389  0.3004 -0.8067
15527TIP3   OH268071   4.381   3.365   4.049 -0.3747 -0.2569 -0.2247
15527TIP3    H168072   4.434   3.444   4.037 -0.8360 -0.3477 -5.1624
15527TIP3    H268073   4.444   3.295   4.065  0.5940  0.3675 -1.1958
15528TIP3   OH268074   4.860   1.642  16.323 -0.0012 -0.0835 -0.1589
15528TIP3    H168075   4.789   1.689  16.367  0.3051  0.3678 -0.1322
15528TIP3    H268076   4.864   1.682  16.235 -0.8071 -1.1822 -0.7133
15529TIP3   OH268077   5.306   5.343   1.916 -0.0418  0.0717 -0.1213
15529TIP3    H168078   5.237   5.385   1.864 -0.5745 -1.4399 -0.6980
15529TIP3    H268079   5.334   5.268   1.863 -1.5151 -2.3436  2.2390
15530TIP3   OH268080   0.933   5.037   5.496 -0.0429  0.0961  0.3054
15530TIP3    H168081   0.877   5.111   5.521  0.1902  1.6671 -3.1918
15530TIP3    H268082   0.873   4.976   5.453  0.2789 -0.2905  0.4003
15531TIP3   OH268083   1.995   5.245   2.080 -0.5644  0.3010 -0.0462
15531TIP3    H168084   2.035   5.260   1.995  0.2015  0.3548  0.3187
15531TIP3    H268085   1.986   5.332   2.119  1.0095  0.1195  0.7790
15532TIP3   OH268086   3.760   5.253  15.679 -0.4281 -0.3473  0.2535
15532TIP3    H168087   3.850   5.249  15.646 -0.7654 -0.0724 -0.7502
15532TIP3    H268088   3.753   5.339  15.720 -0.8726  0.6267 -1.7234
15533TIP3   OH268089   1.198   1.131   2.670  0.0343 -0.5391  0.0080
15533TIP3    H168090   1.208   1.162   2.580 -0.9368 -0.9936 -0.2644
15533TIP3    H268091   1.283   1.091   2.691 -0.1637 -1.6254 -1.1771
15534TIP3   OH268092   2.087   4.180  14.063  0.1716 -0.3094 -0.2867
15534TIP3    H168093   2.133   4.109  14.108  0.9644  0.7502  0.6306
15534TIP3    H268094   2.072   4.246  14.130  3.7184  2.4929 -1.8748
15535TIP3   OH268095   3.346   6.277  11.739 -0.1549 -0.1906  0.0481
15535TIP3    H168096   3.421   6.248  11.687  1.4928  1.6177  1.2599
15535TIP3    H268097   3.384   6.314  11.818 -2.3982  0.1399  1.0657
15536TIP3   OH268098   4.456   5.731  13.988  0.0617  0.1643  0.4506
15536TIP3    H168099   4.483   5.783  13.913 -0.4477  0.7078  0.6390
15536TIP3    H268100   4.380   5.777  14.024 -0.8614 -1.0866  0.1896
15537TIP3   OH268101   5.711   1.316  16.650 -0.5980 -0.0096 -0.3373
15537TIP3    H168102   5.800   1.309  16.684 -1.1270 -0.4773  1.0529
15537TIP3    H268103   5.679   1.226  16.648 -0.2035 -0.1857 -3.3627
15538TIP3   OH268104   1.877   6.577   2.777 -0.5594 -0.3932 -0.2710
15538TIP3    H168105   1.782   6.572   2.788 -0.7178  0.3099 -1.1358
15538TIP3    H268106   1.890   6.645   2.711  0.5734 -0.1818  0.1428
15539TIP3   OH268107   2.776   3.015   1.440  0.1495  0.0108 -0.3237
15539TIP3    H168108   2.802   2.948   1.378  0.3984 -0.3788  0.1986
15539TIP3    H268109   2.792   3.098   1.394 -0.9819 -0.2849 -1.3051
15540TIP3   OH268110   1.749   6.065   5.050  0.3274  0.0301 -0.3709
15540TIP3    H168111   1.661   6.027   5.052  0.6112 -0.7870 -1.8105
15540TIP3    H268112   1.756   6.106   4.964 -0.7102  5.4089  1.7622
15541TIP3   OH268113   4.249   2.914   3.813  0.4511  0.0565 -0.6806
15541TIP3    H168114   4.211   2.968   3.744  0.1892 -0.1724 -0.7191
15541TIP3    H268115   4.327   2.875   3.773 -0.3914 -1.0784 -1.2724
15542TIP3   OH268116   2.598   4.224   1.697  0.4573  0.0506  0.7048
15542TIP3    H168117   2.570   4.172   1.622 -0.9722  0.1426  1.1335
15542TIP3    H268118   2.647   4.297   1.659  0.1095 -0.1246 -0.1063
15543TIP3   OH268119   2.114   3.489   0.728  0.0627 -0.4465  0.0995
15543TIP3    H168120   2.180   3.502   0.796 -0.6911  0.2319  0.7157
15543TIP3    H268121   2.155   3.428   0.667  0.4188 -1.8332  1.6359
15544TIP3   OH268122   3.727   6.487   1.144 -0.2210  0.1368 -0.1967
15544TIP3    H168123   3.739   6.393   1.158 -1.4935 -0.2544 -1.3540
15544TIP3    H268124   3.675   6.516   1.219 -0.5556 -0.2819 -0.2582
15545TIP3   OH268125   3.665   0.725  12.891 -0.0380  0.2671 -0.1877
15545TIP3    H168126   3.679   0.816  12.917 -0.3413 -0.0729  1.2670
15545TIP3    H268127   3.738   0.706  12.831  1.3213  0.8291  1.2023
15546TIP3   OH268128   1.666   0.398   4.985 -0.5564  0.2770  0.2710
15546TIP3    H168129   1.672   0.303   4.984  1.1942  0.3645 -0.6000
15546TIP3    H268130   1.738   0.427   5.041 -0.0457  1.1147 -0.7773
15547TIP3   OH268131   6.676   6.276   3.660  0.1850  0.0980  0.2277
15547TIP3    H168132   6.707   6.232   3.739  0.2381 -1.5670 -0.6989
15547TIP3    H268133   6.729   6.356   3.656  0.3577  0.0977  1.7240
15548TIP3   OH268134   1.706   4.580  15.672 -0.3915  0.4606 -0.4011
15548TIP3    H168135   1.628   4.539  15.635  0.1279 -0.9867  0.0334
15548TIP3    H268136   1.773   4.573  15.604 -0.5861  1.6306 -0.7459
15549TIP3   OH268137   4.861   6.387  10.238  0.5449  0.0568 -0.2790
15549TIP3    H168138   4.860   6.483  10.236 -0.1985  0.1467  1.7285
15549TIP3    H268139   4.781   6.362  10.190 -0.3462  0.5487  0.8937
15550TIP3   OH268140   5.166   6.348   1.363  0.2233  0.1196 -0.0614
15550TIP3    H168141   5.170   6.442   1.345  2.2815  0.1548  0.3843
15550TIP3    H268142   5.219   6.336   1.441  0.4446 -1.4892 -0.4211
15551TIP3   OH268143   3.883   1.975   4.177  0.4014 -0.1992 -0.2528
15551TIP3    H168144   3.806   1.934   4.219  0.1110  2.4563  2.1387
15551TIP3    H268145   3.932   2.012   4.250  2.2119  1.0550 -2.0151
15552TIP3   OH268146   1.339   6.270  17.263 -0.4075  0.4813 -0.2811
15552TIP3    H168147   1.433   6.271  17.248 -0.0699  0.5729  1.6246
15552TIP3    H268148   1.313   6.179  17.248 -0.1570  0.5969 -1.5003
15553TIP3   OH268149   0.438   2.757  11.696 -0.0195 -0.2083 -0.1478
15553TIP3    H168150   0.436   2.693  11.767 -1.1069 -0.0049  0.0176
15553TIP3    H268151   0.470   2.838  11.737  1.2626 -0.6030 -0.3365
15554TIP3   OH268152   6.318   1.072   6.373  0.8788  0.1833  0.0620
15554TIP3    H168153   6.396   1.124   6.353  1.7758 -0.8110  0.8409
15554TIP3    H268154   6.327   1.050   6.466 -0.1517 -0.2667  0.0752
15555TIP3   OH268155   0.928   5.276   0.400 -0.6098 -0.2763  0.1579
15555TIP3    H168156   0.943   5.362   0.360  0.7751 -0.5446  0.0483
15555TIP3    H268157   0.907   5.219   0.326 -1.1360 -0.1339  0.1884
15556TIP3   OH268158   2.886   0.738   5.405 -0.0479  0.4945 -0.0718
15556TIP3    H168159   2.971   0.709   5.372  0.3779  1.5182  0.0713
15556TIP3    H268160   2.886   0.715   5.498 -0.4442 -0.6179 -0.3344
15557TIP3   OH268161   0.842   0.412   0.518  0.3073  0.0361 -0.0043
15557TIP3    H168162   0.832   0.507   0.511  0.8912  0.2282  1.5187
15557TIP3    H268163   0.777   0.377   0.456 -0.2674  1.4100 -0.2169
15558TIP3   OH268164   2.466   4.206   4.619 -0.0882 -0.2498 -0.6172
15558TIP3    H168165   2.399   4.273   4.630 -1.3120 -1.5526  0.1875
15558TIP3    H268166   2.548   4.255   4.609 -0.8779  1.3404  0.3865
15559TIP3   OH268167   6.498   1.381  13.556  0.8929 -0.1298 -0.2079
15559TIP3    H168168   6.567   1.411  13.615  1.3394  1.4464 -1.4523
15559TIP3    H268169   6.443   1.324  13.610  1.7442  0.5735  1.4860
15560TIP3   OH268170   2.383   3.841  12.607 -0.6703 -0.2379  0.5143
15560TIP3    H168171   2.295   3.804  12.614 -1.7922  2.1462  0.0401
15560TIP3    H268172   2.440   3.773  12.641 -2.7372 -1.6358  1.4104
15561TIP3   OH268173   1.326   1.463   0.229 -0.4529 -0.2086  0.7831
15561TIP3    H168174   1.373   1.546   0.244  0.8913 -0.8316  0.1691
15561TIP3    H268175   1.241   1.490   0.196 -0.1146  0.9445  0.8009
15562TIP3   OH268176   1.795   5.011   6.525 -0.1946 -0.3604 -0.4464
15562TIP3    H168177   1.867   4.950   6.539 -0.2401 -0.0840  1.1953
15562TIP3    H268178   1.814   5.051   6.440  1.4224 -0.5266 -0.1966
15563TIP3   OH268179   6.215   0.446   1.840  0.4232 -0.2872 -0.0239
15563TIP3    H168180   6.256   0.483   1.918  0.8982 -0.7154 -0.0699
15563TIP3    H268181   6.205   0.353   1.860  0.3867 -0.3668 -0.4074
15564TIP3   OH268182   4.256   5.872   5.367 -0.3498  0.2362  0.5183
15564TIP3    H168183   4.317   5.837   5.432  0.4809 -1.0693 -0.9012
15564TIP3    H268184   4.294   5.848   5.283 -1.8294  1.1277 -0.4478
15565TIP3   OH268185   6.207   1.029  12.096 -0.0940  0.0602 -0.1376
15565TIP3    H168186   6.155   1.094  12.143  1.5071  1.7011 -0.5585
15565TIP3    H268187   6.167   1.024  12.009 -2.3438 -2.1427  0.8667
15566TIP3   OH268188   1.628   6.108   5.479  0.1671  0.3503 -0.8337
15566TIP3    H168189   1.533   6.110   5.467  0.2350  1.2949 -1.3387
15566TIP3    H268190   1.657   6.035   5.424 -0.3377 -0.5038 -0.0004
15567TIP3   OH268191   6.067   6.188   3.085 -0.0519  0.0689 -0.1439
15567TIP3    H168192   6.148   6.139   3.069  1.3087  2.1542  0.0024
15567TIP3    H268193   6.021   6.187   3.001  0.4332 -0.5594 -0.4089
15568TIP3   OH268194   2.546   0.627  13.173 -0.7310  0.7259 -0.7305
15568TIP3    H168195   2.557   0.558  13.239  0.7172  0.7508 -0.9240
15568TIP3    H268196   2.517   0.580  13.095 -3.9888  0.8479  0.2277
15569TIP3   OH268197   0.743   6.515  17.020  0.0916 -0.3191  0.2489
15569TIP3    H168198   0.689   6.435  17.021 -0.6388  0.1655  0.9806
15569TIP3    H268199   0.727   6.555  17.105 -1.6138  1.9557 -1.0457
15570TIP3   OH268200   0.973   1.848  14.954  0.3106  0.6573 -0.0077
15570TIP3    H168201   0.932   1.794  14.886  0.4900  0.9998 -0.3959
15570TIP3    H268202   0.926   1.931  14.950  1.7816  1.4852 -1.2827
15571TIP3   OH268203   4.434   6.245  11.350 -0.8285 -0.0257 -0.3960
15571TIP3    H168204   4.519   6.200  11.351  1.0592  3.2469 -0.5732
15571TIP3    H268205   4.433   6.296  11.431 -2.0108  1.0631 -1.0727
15572TIP3   OH268206   0.435   5.592  13.142 -0.3080  0.1958 -0.0698
15572TIP3    H168207   0.365   5.656  13.159  1.0348  1.3812  1.3514
15572TIP3    H268208   0.419   5.523  13.206 -0.2097  0.4514  0.2364
15573TIP3   OH268209   6.414   1.367  10.380 -0.6153  0.0871  0.3305
15573TIP3    H168210   6.393   1.381  10.472  1.0324 -1.6292  1.0523
15573TIP3    H268211   6.426   1.454  10.344  0.0017  0.7767  2.0903
15574TIP3   OH268212   6.792   2.939  16.576 -0.1513 -0.6054 -0.5155
15574TIP3    H168213   6.875   2.966  16.537  0.8976 -1.2544  1.1824
15574TIP3    H268214   6.770   3.008  16.638  0.4286 -1.5873  0.8356
15575TIP3   OH268215   3.629   6.016   3.785  0.1988  0.5939  0.5969
15575TIP3    H168216   3.557   6.040   3.844 -0.4856  2.3156 -0.8399
15575TIP3    H268217   3.596   6.036   3.697  1.9746  0.2326 -0.2036
15576TIP3   OH268218   5.266   4.715  16.182 -0.0685 -0.3246  0.5214
15576TIP3    H168219   5.275   4.809  16.165 -0.5100 -0.4004 -0.1691
15576TIP3    H268220   5.353   4.687  16.208  0.8034 -0.2785 -2.0980
15577TIP3   OH268221   2.949   0.331  12.197 -0.2273 -0.0266 -0.2745
15577TIP3    H168222   2.875   0.270  12.201  0.7862 -1.2847  0.2129
15577TIP3    H268223   2.999   0.303  12.120 -0.0596  0.5899 -0.3977
15578TIP3   OH268224   3.626   1.882  16.752  0.3612 -0.0318 -0.0996
15578TIP3    H168225   3.603   1.829  16.676  0.3812  0.4768 -0.4583
15578TIP3    H268226   3.643   1.818  16.821 -1.4769 -0.4611  0.0032
15579TIP3   OH268227   3.689   0.658  11.328 -0.1618  0.0003  0.3247
15579TIP3    H168228   3.772   0.610  11.338 -0.2811 -0.6371 -1.3523
15579TIP3    H268229   3.708   0.746  11.361  0.1405 -1.0562  3.2402
15580TIP3   OH268230   3.624   1.455  15.454  0.1683 -0.5113 -0.2538
15580TIP3    H168231   3.622   1.484  15.545 -2.0198  0.7374 -0.6231
15580TIP3    H268232   3.603   1.533  15.404 -0.5874 -1.5899 -1.6890
15581TIP3   OH268233   6.459   2.466  12.316  0.4508  0.2184 -0.1890
15581TIP3    H168234   6.548   2.460  12.283  0.1341 -0.0066 -1.0182
15581TIP3    H268235   6.437   2.559  12.311  0.3215  0.1566 -0.8455
15582TIP3   OH268236   6.434   4.271   1.461  0.5784  0.1361 -0.0367
15582TIP3    H168237   6.461   4.186   1.495 -0.9875 -0.1784  0.4909
15582TIP3    H268238   6.516   4.312   1.432  1.2159 -2.1256 -1.7265
15583TIP3   OH268239   1.405   3.448  12.694  0.3611 -0.2857  0.0091
15583TIP3    H168240   1.434   3.371  12.741 -1.5822 -0.9420  0.2077
15583TIP3    H268241   1.385   3.512  12.762  0.2994 -0.2220 -0.0678
15584TIP3   OH268242   2.708   3.588  14.850 -0.2966 -0.1616 -0.4646
15584TIP3    H168243   2.728   3.525  14.919 -0.4655 -0.7596 -0.9455
15584TIP3    H268244   2.641   3.545  14.797  0.3372 -0.0188 -1.4156
15585TIP3   OH268245   3.410   6.077   1.062  0.5491  0.2000  0.2944
15585TIP3    H168246   3.445   6.104   0.977 -2.5042  1.4533 -0.6830
15585TIP3    H268247   3.464   6.125   1.125  2.5711 -0.3738 -0.8848
15586TIP3   OH268248   3.166   0.301  16.517 -0.4245 -0.2920 -0.5758
15586TIP3    H168249   3.078   0.294  16.480 -0.5825  1.0061 -0.4890
15586TIP3    H268250   3.167   0.386  16.561  0.6063 -0.6655  0.1595
15587TIP3   OH268251   2.584   2.877   3.839  0.2783  0.2524  0.2422
15587TIP3    H168252   2.625   2.815   3.778 -1.2343  0.4343 -1.0178
15587TIP3    H268253   2.593   2.834   3.925 -0.7149 -1.7446 -0.5810
15588TIP3   OH268254   1.734   1.077   2.705 -0.0456  0.2789  0.0447
15588TIP3    H168255   1.782   1.084   2.788  3.8299 -1.3899 -1.7833
15588TIP3    H268256   1.729   0.983   2.688 -2.8981  0.4575 -0.6214
15589TIP3   OH268257   5.149   3.220  16.318  0.7291 -0.0731  0.1183
15589TIP3    H168258   5.161   3.226  16.413 -1.3101  0.8600  0.3574
15589TIP3    H268259   5.086   3.288  16.297 -1.6805 -2.5765 -1.3719
15590TIP3   OH268260   4.588   0.912   5.394  0.4585 -0.2224  0.1410
15590TIP3    H168261   4.580   0.999   5.432  0.7589  0.0114 -0.3246
15590TIP3    H268262   4.544   0.919   5.309  0.5415 -0.5074  0.0750
15591TIP3   OH268263   6.171   0.936   4.505 -0.1886 -0.0654 -0.3000
15591TIP3    H168264   6.187   0.927   4.411  1.0763 -2.4900  0.0932
15591TIP3    H268265   6.095   0.881   4.522 -0.1825  0.0623  0.1583
15592TIP3   OH268266   6.189   0.929  13.570  0.0328  0.2728 -0.1449
15592TIP3    H168267   6.151   1.000  13.621  2.0948  0.9966  0.4807
15592TIP3    H268268   6.223   0.868  13.636  0.2285 -0.1989 -0.6739
15593TIP3   OH268269   1.308   4.484   5.335 -0.8775 -0.0234  0.0563
15593TIP3    H168270   1.227   4.510   5.290 -0.8047 -0.5545 -0.3914
15593TIP3    H268271   1.287   4.400   5.376  0.2493 -1.6578 -2.4543
15594TIP3   OH268272   1.938   6.520  11.625  0.1101  0.0533 -0.0560
15594TIP3    H168273   2.002   6.474  11.572  1.0863  2.7123 -1.4038
15594TIP3    H268274   1.855   6.506  11.580  0.5022  0.1332 -0.8248
15595TIP3   OH268275   2.540   0.169   5.733 -0.1338 -0.2684  0.1815
15595TIP3    H168276   2.536   0.076   5.713  0.2309 -0.2160 -0.1496
15595TIP3    H268277   2.631   0.193   5.717 -0.3350  0.2498 -0.2309
15596TIP3   OH268278   3.774   0.746  14.666 -0.1597 -0.2845  0.3466
15596TIP3    H168279   3.769   0.840  14.682 -0.9198 -0.5209  1.6538
15596TIP3    H268280   3.784   0.738  14.571 -0.1537  1.1088  0.2173
15597TIP3   OH268281   2.017   1.557   2.423  0.5536  0.5372  0.1564
15597TIP3    H168282   1.952   1.598   2.480  0.8523 -2.4120  2.9564
15597TIP3    H268283   2.093   1.543   2.480  1.2752 -1.6577 -1.2106
15598TIP3   OH268284   0.765   0.287   0.152  0.4134  0.2033  0.3572
15598TIP3    H168285   0.754   0.372   0.110 -1.4642 -0.2395 -0.1767
15598TIP3    H268286   0.682   0.272   0.197  0.6946 -1.3360  0.4217
15599TIP3   OH268287   0.323   4.993   5.970 -0.3584 -0.6445  0.0285
15599TIP3    H168288   0.366   5.008   6.054  2.6423  0.1356 -1.5189
15599TIP3    H268289   0.351   4.905   5.944  0.1152 -0.2389 -0.8848
15600TIP3   OH268290   2.952   3.528  13.036  0.1748 -0.5532 -0.3072
15600TIP3    H168291   2.918   3.612  13.067  2.4570  0.4991 -0.4218
15600TIP3    H268292   2.935   3.529  12.941  0.9913  0.2316 -0.4621
15601TIP3   OH268293   1.856   1.298  15.785 -0.1233 -0.5257 -0.0984
15601TIP3    H168294   1.869   1.209  15.755 -0.1427 -0.7277  0.4711
15601TIP3    H268295   1.853   1.351  15.705 -3.9748 -1.4879 -0.7873
15602TIP3   OH268296   4.435   2.911   3.094 -0.4343 -0.0859  0.5212
15602TIP3    H168297   4.467   2.822   3.081  1.8887  0.7502 -0.1419
15602TIP3    H268298   4.367   2.923   3.028 -1.0620 -1.4812  0.8952
15603TIP3   OH268299   2.153   5.006   5.938  0.2310  0.1530  0.0244
15603TIP3    H168300   2.211   4.935   5.910 -1.3493 -1.3412  0.3853
15603TIP3    H268301   2.177   5.023   6.029  0.2252 -0.3500  0.1230
15604TIP3   OH268302   3.553   6.345  12.219 -0.2642  0.2353  0.8593
15604TIP3    H168303   3.545   6.292  12.298 -0.9683 -0.3844  0.3865
15604TIP3    H268304   3.615   6.415  12.243  2.7138 -2.1584  0.7668
15605TIP3   OH268305   5.600   2.005  13.881  0.1635 -0.1989  0.5287
15605TIP3    H168306   5.674   2.054  13.844 -0.3232 -0.0319 -0.2509
15605TIP3    H268307   5.637   1.919  13.903  0.6187 -0.0769  0.2613
15606TIP3   OH268308   3.971   6.532   5.249 -0.3924 -0.0061 -0.9726
15606TIP3    H168309   3.945   6.589   5.321 -1.3444  0.6905 -1.8415
15606TIP3    H268310   4.024   6.463   5.290  0.8165  1.4975  0.1078
15607TIP3   OH268311   5.506   5.863   0.591 -0.0024 -0.2164  0.5411
15607TIP3    H168312   5.502   5.843   0.684 -3.3463 -0.6008  0.4395
15607TIP3    H268313   5.448   5.798   0.550 -1.5559  2.1584 -1.3152
15608TIP3   OH268314   3.336   3.570   4.505  0.4168 -0.1381 -0.7605
15608TIP3    H168315   3.346   3.547   4.597 -1.3057 -2.5235 -1.0968
15608TIP3    H268316   3.290   3.654   4.507 -0.2985 -0.5292  0.5712
15609TIP3   OH268317   2.506   4.186   3.602 -0.2759  0.1122  0.1317
15609TIP3    H168318   2.464   4.204   3.686  0.7347  0.5006  0.5704
15609TIP3    H268319   2.556   4.106   3.616  2.0085  1.5310  0.7492
15610TIP3   OH268320   4.741   2.880   0.626  0.4874 -0.3298 -0.3608
15610TIP3    H168321   4.808   2.848   0.687  0.2561 -0.7577 -0.3231
15610TIP3    H268322   4.671   2.815   0.633  0.9483 -1.0385 -1.9509
15611TIP3   OH268323   6.813   1.487   0.391  0.4711 -0.2682  0.5686
15611TIP3    H168324   6.802   1.432   0.313  1.9318  0.7757 -0.4326
15611TIP3    H268325   6.907   1.486   0.408  0.9367  3.4797 -0.7789
15612TIP3   OH268326   1.736   4.498   5.963 -0.3810 -0.0773 -0.0539
15612TIP3    H168327   1.656   4.481   5.914  0.4423 -0.2070 -1.3998
15612TIP3    H268328   1.710   4.488   6.055 -1.8749 -0.2039 -0.4600
15613TIP3   OH268329   0.978   6.381   0.874  0.0813 -0.0045  0.2639
15613TIP3    H168330   1.016   6.324   0.942 -0.3469  0.4098  0.8601
15613TIP3    H268331   1.013   6.346   0.792 -0.5320 -1.4322  0.5685
15614TIP3   OH268332   0.969   4.961  12.171 -0.5467  0.1149 -0.4223
15614TIP3    H168333   0.959   5.036  12.230  2.8564  0.4085 -0.0037
15614TIP3    H268334   0.989   4.888  12.229 -0.3765 -0.3187 -1.0225
15615TIP3   OH268335   2.091   6.646  12.453  0.3585  0.4158 -0.2380
15615TIP3    H168336   2.116   6.729  12.412 -1.5404  1.1718  0.0572
15615TIP3    H268337   2.113   6.657  12.545 -2.2530  1.6968  0.3357
15616TIP3   OH268338   5.965   4.545   5.303 -0.1352 -0.3547 -0.9443
15616TIP3    H168339   5.965   4.468   5.246 -0.6893 -0.5716 -0.6549
15616TIP3    H268340   5.875   4.578   5.300  0.2531  0.6913 -1.6074
15617TIP3   OH268341   6.527   4.275  15.584 -0.2050 -0.2928 -0.3318
15617TIP3    H168342   6.517   4.230  15.667 -0.3551  1.6192  0.7510
15617TIP3    H268343   6.438   4.289  15.552 -0.2665  0.7689  0.2457
15618TIP3   OH268344   3.792   5.013  16.825  0.6127  0.1308 -0.3967
15618TIP3    H168345   3.787   5.059  16.909  1.3994 -2.4811  1.1990
15618TIP3    H268346   3.848   5.069  16.771 -0.8463  2.4695  0.3105
15619TIP3   OH268347   5.122   6.211   4.667 -0.1527  0.2537 -0.4644
15619TIP3    H168348   5.180   6.168   4.605 -0.3011  1.2030 -1.2902
15619TIP3    H268349   5.096   6.142   4.728  0.8481 -0.4543 -0.8214
15620TIP3   OH268350   2.007   4.313   2.055 -0.3324  0.0012 -0.3166
15620TIP3    H168351   2.038   4.223   2.051  2.3209  0.8406 -0.5547
15620TIP3    H268352   1.945   4.314   2.129 -1.5162 -2.2531 -1.2022
15621TIP3   OH268353   5.511   3.990   5.669  0.0307 -0.7002 -0.1336
15621TIP3    H168354   5.472   4.012   5.753  0.7181 -2.1068  0.5863
15621TIP3    H268355   5.445   3.937   5.625 -0.4799  0.3447 -0.6664
15622TIP3   OH268356   1.676   5.516   0.828 -0.1015 -0.5888  0.3870
15622TIP3    H168357   1.771   5.502   0.830  0.3042  1.3757 -1.1113
15622TIP3    H268358   1.645   5.455   0.761  0.3164 -0.3489 -0.0372
15623TIP3   OH268359   2.815   3.070  14.503  0.1020  0.3458 -0.1987
15623TIP3    H168360   2.814   3.048  14.410 -2.4757  0.7407 -0.3496
15623TIP3    H268361   2.726   3.051  14.533  0.9277 -0.0106  2.2698
15624TIP3   OH268362   5.517   2.399  13.442 -0.7343 -0.3961  0.4233
15624TIP3    H168363   5.527   2.464  13.372  2.9265 -1.5520 -0.3172
15624TIP3    H268364   5.475   2.324  13.399  0.7977 -0.8124 -0.4298
15625TIP3   OH268365   0.967   0.880   0.762 -0.4977 -0.1335 -0.1018
15625TIP3    H168366   1.060   0.884   0.783 -0.5244 -0.3855  0.0698
15625TIP3    H268367   0.926   0.846   0.842 -0.5932 -1.1618 -0.5748
15626TIP3   OH268368   5.044   5.178   2.638  0.1081  0.0664 -0.1263
15626TIP3    H168369   4.976   5.240   2.612  0.5516  0.2676 -0.8324
15626TIP3    H268370   5.006   5.092   2.618  1.0993  0.2310 -3.3218
15627TIP3   OH268371   2.609   2.564  12.978  0.4889  0.3112 -0.7960
15627TIP3    H168372   2.652   2.497  13.031  0.8240  0.5781 -0.7245
15627TIP3    H268373   2.585   2.633  13.039 -2.5187 -0.9817 -0.3611
15628TIP3   OH268374   5.430   0.632  14.088  0.5065 -0.0175  0.1943
15628TIP3    H168375   5.395   0.661  14.004  0.7152 -1.4493 -0.4236
15628TIP3    H268376   5.398   0.696  14.152 -0.4899  0.5301 -0.8287
15629TIP3   OH268377   5.312   4.182  14.126  0.5741  0.5763  0.4136
15629TIP3    H168378   5.282   4.224  14.046 -1.0681  1.9852  1.6752
15629TIP3    H268379   5.407   4.195  14.126  0.3938  2.1303 -0.4572
15630TIP3   OH268380   5.169   5.370  13.029  0.0520 -0.3145  0.5410
15630TIP3    H168381   5.212   5.413  12.955 -0.5202 -1.6567 -0.6158
15630TIP3    H268382   5.228   5.385  13.103  0.2415  1.7665  0.0414
15631TIP3   OH268383   4.868   1.237   5.877  0.3790  0.0624 -0.3655
15631TIP3    H168384   4.830   1.319   5.909  0.1630 -0.7044  1.4629
15631TIP3    H268385   4.792   1.180   5.861  0.5091  0.2822 -1.9235
15632TIP3   OH268386   4.736   2.299   1.147  0.5349  0.1005  0.0836
15632TIP3    H168387   4.823   2.260   1.159  1.3709  1.8682  0.1035
15632TIP3    H268388   4.683   2.228   1.111  1.8490 -1.1644  0.5476
15633TIP3   OH268389   0.612   3.113  16.268  0.1754 -0.1900  0.2690
15633TIP3    H168390   0.537   3.149  16.220 -0.9304 -0.0626  2.0033
15633TIP3    H268391   0.577   3.037  16.313  1.8089 -1.8146 -1.0600
15634TIP3   OH268392   1.626   5.451  12.449 -0.0452 -0.1575 -0.2968
15634TIP3    H168393   1.586   5.477  12.532  0.6453  1.0654 -0.3168
15634TIP3    H268394   1.616   5.356  12.446 -1.3950 -0.0650  0.4839
15635TIP3   OH268395   2.467   0.917  13.251  0.0421  0.4889  0.5740
15635TIP3    H168396   2.421   0.833  13.257  0.9116  0.0080  0.5954
15635TIP3    H268397   2.502   0.919  13.163  0.9255  0.3459  0.9161
15636TIP3   OH268398   2.698   2.123   5.330  0.1473 -0.0143  0.4575
15636TIP3    H168399   2.656   2.178   5.264  1.8504  1.2297  0.3496
15636TIP3    H268400   2.661   2.153   5.414  0.4538  0.7463  0.3282
15637TIP3   OH268401   2.469   1.924  12.828  0.2445  0.2063  0.6983
15637TIP3    H168402   2.488   1.984  12.757  1.0594 -0.0991  0.6519
15637TIP3    H268403   2.524   1.848  12.811  0.7340  0.2789  1.8512
15638TIP3   OH268404   1.970   3.888  16.738  0.6970 -0.4722  0.5065
15638TIP3    H168405   1.985   3.890  16.833  0.1867  2.6301  0.6186
15638TIP3    H268406   2.051   3.853  16.702  1.7328  0.2859  1.9901
15639TIP3   OH268407   0.372   2.631   5.370  0.2459 -0.1567 -0.1667
15639TIP3    H168408   0.327   2.585   5.440  0.3252  0.5801  0.3772
15639TIP3    H268409   0.464   2.606   5.381  0.1012 -1.0110 -0.7746
15640TIP3   OH268410   6.740   6.392   0.660 -0.1702  0.3701 -0.2068
15640TIP3    H168411   6.764   6.402   0.752  1.9599 -0.6948 -0.5659
15640TIP3    H268412   6.789   6.315   0.631 -1.3434  0.2558 -2.0673
15641TIP3   OH268413   3.802   5.717  11.782 -0.6129  0.2080 -0.3877
15641TIP3    H168414   3.738   5.672  11.726  0.1628 -0.8817 -0.4456
15641TIP3    H268415   3.778   5.691  11.871 -0.4400  0.0434 -0.3883
15642TIP3   OH268416   0.350   5.588  14.433  0.0438 -1.1100 -0.2713
15642TIP3    H168417   0.439   5.554  14.421  0.0370 -1.8109  1.3389
15642TIP3    H268418   0.336   5.585  14.528 -1.9286 -1.6000 -0.5286
15643TIP3   OH268419   3.553   0.554   6.065  0.3582  0.0306 -0.5664
15643TIP3    H168420   3.533   0.503   5.987  0.9123 -0.8838 -0.1262
15643TIP3    H268421   3.644   0.533   6.085  0.2401  0.2976  0.2932
15644TIP3   OH268422   3.651   3.191  12.796 -0.3765 -0.3548  0.2343
15644TIP3    H168423   3.661   3.259  12.730  0.7236  1.6036  2.2833
15644TIP3    H268424   3.573   3.217  12.845  0.4570 -0.1342  1.4749
15645TIP3   OH268425   4.121   1.091   1.709 -0.3008 -0.2215 -0.2540
15645TIP3    H168426   4.213   1.099   1.733 -0.6745 -1.2297  1.7011
15645TIP3    H268427   4.093   1.181   1.691  1.1576  0.0477 -1.4019
15646TIP3   OH268428   5.721   1.910  16.614  0.0440 -0.3460  0.6646
15646TIP3    H168429   5.648   1.867  16.659 -1.0721 -0.0546 -0.8068
15646TIP3    H268430   5.699   1.904  16.521  0.9123  1.5264  0.2991
15647TIP3   OH268431   6.575   2.550  10.461 -0.2403 -0.2424 -0.4965
15647TIP3    H168432   6.547   2.515  10.546 -0.5551  0.9504 -0.0882
15647TIP3    H268433   6.645   2.491  10.433 -0.3593 -0.8514  0.4352
15648TIP3   OH268434   4.024   6.578   0.259  0.0948  0.3510  0.3016
15648TIP3    H168435   4.116   6.574   0.233 -0.1247  1.4877 -0.7771
15648TIP3    H268436   4.003   6.671   0.257 -1.3899  0.0336 -0.7019
15649TIP3   OH268437   0.217   1.795   3.626  0.2159  0.0282  0.3360
15649TIP3    H168438   0.134   1.786   3.671 -0.3302  0.0902 -0.6392
15649TIP3    H268439   0.208   1.874   3.573  1.0579  0.2903  0.5667
15650TIP3   OH268440   3.279   0.264  12.632 -0.1331  0.4408  0.0155
15650TIP3    H168441   3.328   0.185  12.613  1.2556  1.7351 -2.2404
15650TIP3    H268442   3.188   0.235  12.640  0.4086 -1.4153 -0.1653
15651TIP3   OH268443   4.907   4.342   5.202  0.1198 -0.1413  0.6483
15651TIP3    H168444   4.860   4.404   5.258  0.8640  1.2166 -0.1780
15651TIP3    H268445   4.872   4.358   5.114  0.6445 -0.5795  0.3514
15652TIP3   OH268446   1.007   0.893   5.833  0.3864 -0.3021 -0.2096
15652TIP3    H168447   0.992   0.898   5.927  3.3846  1.3083  0.3035
15652TIP3    H268448   0.990   0.801   5.811  0.4166 -0.9055  2.0704
15653TIP3   OH268449   3.213   3.882   3.452 -0.1031  0.3359  0.5327
15653TIP3    H168450   3.202   3.973   3.477  1.2755  0.2830  1.4356
15653TIP3    H268451   3.140   3.837   3.496 -1.5089  1.1046 -0.8858
15654TIP3   OH268452   3.282   3.729  13.502 -0.6547  0.0686  0.3226
15654TIP3    H168453   3.335   3.691  13.572 -0.6852 -0.4888  0.0550
15654TIP3    H268454   3.344   3.745  13.431 -0.3672  1.9366  0.9535
15655TIP3   OH268455   3.178   3.487   4.273 -0.1936 -0.0539 -0.3300
15655TIP3    H168456   3.160   3.393   4.267  0.3605 -0.1130 -1.2415
15655TIP3    H268457   3.220   3.497   4.359  0.0764 -0.7034 -0.3762
15656TIP3   OH268458   2.533   1.254  11.239 -0.6196 -0.6149 -0.0241
15656TIP3    H168459   2.512   1.332  11.187 -0.8464  0.9534  2.3023
15656TIP3    H268460   2.628   1.258  11.251 -0.4162 -1.5366 -1.0666
15657TIP3   OH268461   1.210   2.691  15.120  0.6337 -0.7163  0.1146
15657TIP3    H168462   1.127   2.645  15.113  1.3120 -2.2626  1.3650
15657TIP3    H268463   1.236   2.679  15.212  1.6580  0.7792  0.0607
15658TIP3   OH268464   6.098   2.510   3.080  0.1962  0.7369 -0.4805
15658TIP3    H168465   6.048   2.456   3.019  0.7740 -0.8748  0.4091
15658TIP3    H268466   6.036   2.577   3.109 -1.3259 -0.8657  0.1565
15659TIP3   OH268467   5.980   4.710   0.565 -0.0381 -0.0303  0.4177
15659TIP3    H168468   5.939   4.655   0.498 -1.4860  0.1122  1.1391
15659TIP3    H268469   5.908   4.763   0.600  0.7537  0.1780  1.8106
15660TIP3   OH268470   6.198   2.029   3.282 -0.7751 -0.0751 -0.2481
15660TIP3    H168471   6.154   1.946   3.302 -1.2213  0.1323 -0.3665
15660TIP3    H268472   6.236   2.056   3.365  1.7607 -1.7797 -0.7433
15661TIP3   OH268473   5.382   1.598  12.792  0.3343 -0.1363  0.0111
15661TIP3    H168474   5.420   1.605  12.880 -1.1460 -0.1841  0.6980
15661TIP3    H268475   5.453   1.623  12.733  1.1200  0.7476  1.2686
15662TIP3   OH268476   3.980   5.424  16.239  0.1999 -0.0385  0.3092
15662TIP3    H168477   4.014   5.510  16.263 -0.3039  0.4399 -0.6149
15662TIP3    H268478   3.888   5.427  16.264  0.4444 -0.7490  1.3461
15663TIP3   OH268479   1.852   4.530  14.961  0.1517  0.1152 -0.3677
15663TIP3    H168480   1.918   4.517  15.029 -1.1088 -4.0673  0.3087
15663TIP3    H268481   1.769   4.519  15.006 -0.7732 -1.4188 -2.3199
15664TIP3   OH268482   0.132   3.025   3.911  0.3284 -0.1960  0.1028
15664TIP3    H168483   0.181   3.085   3.967 -0.0883  0.8329 -0.6062
15664TIP3    H268484   0.110   2.951   3.968  1.6553 -0.1264  0.7453
15665TIP3   OH268485   2.955   4.048   2.319 -0.4590  0.5441 -0.3553
15665TIP3    H168486   2.887   4.081   2.378 -0.8306  0.9173 -0.9814
15665TIP3    H268487   2.906   4.014   2.243 -0.0611 -0.9123  0.0004
15666TIP3   OH268488   6.298   3.197  17.020 -0.2541  0.1021  0.2842
15666TIP3    H168489   6.207   3.227  17.027 -0.6881 -0.8136 -1.1107
15666TIP3    H268490   6.295   3.104  17.042  0.2943  0.0031 -0.0373
15667TIP3   OH268491   1.907   3.254   1.818  0.0571 -0.5753  0.2952
15667TIP3    H168492   1.929   3.341   1.786 -0.8486 -1.1153 -1.9927
15667TIP3    H268493   1.991   3.209   1.824  0.4102  0.0622  0.2520
15668TIP3   OH268494   1.113   2.802  16.171  0.1813  0.7910  0.6851
15668TIP3    H168495   1.157   2.776  16.090  0.3046 -1.8151  1.4838
15668TIP3    H268496   1.045   2.863  16.143  0.8364  0.7077 -1.2483
15669TIP3   OH268497   2.263   2.412   0.967  0.3748 -0.2123 -0.0858
15669TIP3    H168498   2.309   2.398   1.050 -1.5526 -0.6316  0.9685
15669TIP3    H268499   2.220   2.497   0.978 -0.2524 -0.4738 -0.4749
15670TIP3   OH268500   0.512   0.328  12.183  0.8962 -0.3392  0.1905
15670TIP3    H168501   0.495   0.333  12.089  3.3797  0.6753 -0.2718
15670TIP3    H268502   0.447   0.265  12.216 -0.0800 -0.6547 -2.1580
15671TIP3   OH268503   5.877   6.267  13.878 -0.5010 -0.1652  0.1997
15671TIP3    H168504   5.950   6.253  13.938 -1.7343  0.6750  1.9765
15671TIP3    H268505   5.812   6.202  13.903 -1.5922  1.0945  0.7599
15672TIP3   OH268506   3.149   3.024   0.695  0.6129  0.5758 -0.0482
15672TIP3    H168507   3.141   2.932   0.720  2.7091  0.6842  1.2677
15672TIP3    H268508   3.103   3.030   0.611  0.8616 -1.7910 -0.4219
15673TIP3   OH268509   4.372   6.428  12.527  0.1324 -0.7416  0.0299
15673TIP3    H168510   4.293   6.446  12.577 -0.6193 -1.4012 -0.8883
15673TIP3    H268511   4.438   6.407  12.594  0.7069  3.5905  1.1205
15674TIP3   OH268512   3.138   6.480   5.103  0.0524  0.6313 -0.8266
15674TIP3    H168513   3.067   6.422   5.130  0.8383  0.2734  0.5624
15674TIP3    H268514   3.101   6.531   5.031 -1.3194 -0.1614 -0.7162
15675TIP3   OH268515   1.541   3.208  15.330  0.2128  0.2484 -0.5584
15675TIP3    H168516   1.465   3.151  15.338 -0.6692  1.4139 -0.3097
15675TIP3    H268517   1.520   3.266  15.257  0.3700  1.2916  0.2052
15676TIP3   OH268518   2.520   2.009  13.087 -0.5339 -0.3645  0.2527
15676TIP3    H168519   2.612   2.021  13.064 -0.4656  1.8100  1.4078
15676TIP3    H268520   2.477   1.991  13.004  0.7951 -0.4183 -0.4519
15677TIP3   OH268521   3.178   4.620   3.925  0.2995  0.3454 -0.5095
15677TIP3    H168522   3.266   4.651   3.949  0.8021 -0.3066 -1.4597
15677TIP3    H268523   3.142   4.690   3.871  0.1047  0.7493  0.1305
15678TIP3   OH268524   0.626   5.844  13.232 -0.5610 -0.2455  0.6659
15678TIP3    H168525   0.611   5.767  13.178  1.8189 -1.1611  1.1766
15678TIP3    H268526   0.627   5.811  13.322 -0.6955  0.6086  0.9970
15679TIP3   OH268527   1.351   1.057  17.199  0.4892 -0.9172  0.8348
15679TIP3    H168528   1.402   1.007  17.263  0.9421 -0.5359  0.7856
15679TIP3    H268529   1.366   1.149  17.223  2.2435 -0.6452 -0.9212
15680TIP3   OH268530   0.506   6.802   5.054  0.0153 -0.2788 -0.2701
15680TIP3    H168531   0.570   6.763   5.114 -0.3523 -1.4260 -0.6021
15680TIP3    H268532   0.474   6.728   5.001 -2.1411  0.1029  0.3869
15681TIP3   OH268533   0.839   6.602  11.300 -0.6131  0.4470 -0.7001
15681TIP3    H168534   0.866   6.693  11.317  0.8417  0.1159 -1.0819
15681TIP3    H268535   0.759   6.610  11.249 -0.0591  1.5362 -1.4508
15682TIP3   OH268536   3.601   4.904  10.864 -0.0002 -0.0195 -0.4403
15682TIP3    H168537   3.641   4.885  10.949 -1.1757  0.0130  0.1530
15682TIP3    H268538   3.626   4.830  10.809  1.2123  0.2225 -0.2280
15683TIP3   OH268539   1.378   0.557  11.103  0.7394  0.0204 -0.2099
15683TIP3    H168540   1.398   0.649  11.121  0.9886 -0.3453  1.6427
15683TIP3    H268541   1.319   0.531  11.174  2.8106 -1.9429  0.9282
15684TIP3   OH268542   3.908   3.384  16.875 -0.4180  0.1748  0.3075
15684TIP3    H168543   3.859   3.346  16.948  0.6264 -1.7371  0.0747
15684TIP3    H268544   3.967   3.314  16.847  2.0655  2.1727  0.1944
15685TIP3   OH268545   2.279   2.601  11.860  0.0039 -0.5139  0.2381
15685TIP3    H168546   2.201   2.607  11.915 -0.4592  0.1275 -0.4726
15685TIP3    H268547   2.272   2.676  11.801 -0.4023 -2.1213 -1.8591
15686TIP3   OH268548   0.127   3.949  13.489 -0.0809  0.1112  0.3151
15686TIP3    H168549   0.117   3.940  13.394  1.1653  0.3347  0.1467
15686TIP3    H268550   0.080   3.875  13.526  0.6021 -0.7657 -0.5450
15687TIP3   OH268551   0.834   0.267  13.484 -0.2960 -0.3663  0.0518
15687TIP3    H168552   0.775   0.201  13.521  0.2028 -1.2322 -0.6409
15687TIP3    H268553   0.871   0.225  13.406  2.4585 -0.4980  1.3052
15688TIP3   OH268554   4.374   1.011   2.971 -0.0258 -0.6907  0.5743
15688TIP3    H168555   4.413   1.081   2.919 -2.5463  1.9067  1.8464
15688TIP3    H268556   4.389   1.037   3.062 -1.7582 -1.2947  1.0797
15689TIP3   OH268557   5.034   5.487   0.390 -0.1218 -0.6117 -0.1800
15689TIP3    H168558   5.098   5.455   0.454  0.3272 -0.0047 -0.3213
15689TIP3    H268559   4.954   5.438   0.410 -0.0343 -0.3169  0.9451
15690TIP3   OH268560   1.589   2.098  10.976 -0.2759 -1.2535  0.1515
15690TIP3    H168561   1.650   2.079  10.905  0.2303  0.5012  0.0692
15690TIP3    H268562   1.602   2.191  10.996 -3.1246 -0.6875 -0.0794
15691TIP3   OH268563   6.270   1.791   5.904  0.1929 -0.0194  0.1647
15691TIP3    H168564   6.272   1.829   5.992  1.1263 -1.3720  0.7597
15691TIP3    H268565   6.361   1.789   5.877 -0.1730  1.3227 -1.2889
15692TIP3   OH268566   3.878   1.772  14.179  0.5526 -0.2250 -0.1361
15692TIP3    H168567   3.912   1.861  14.171  0.5734 -0.2571 -0.4130
15692TIP3    H268568   3.783   1.782  14.171  0.3238  0.0578  2.1882
15693TIP3   OH268569   4.475   5.320  13.270  0.2041  0.6564  0.5094
15693TIP3    H168570   4.446   5.409  13.289  1.7072  1.2733  0.0853
15693TIP3    H268571   4.464   5.311  13.175 -2.8550 -0.7498  0.8919
15694TIP3   OH268572   0.543   0.081   3.818 -0.3992 -0.5947 -0.1344
15694TIP3    H168573   0.635   0.084   3.790  0.0957  1.1783  1.5016
15694TIP3    H268574   0.536  -0.001   3.866  0.1871 -0.9808 -0.6766
15695TIP3   OH268575   2.532   1.616   4.575  0.2491 -0.2169 -0.6559
15695TIP3    H168576   2.566   1.647   4.659 -1.2058  0.0885 -0.1658
15695TIP3    H268577   2.469   1.682   4.548 -0.6921 -1.2447 -1.0560
15696TIP3   OH268578   2.513   3.796  13.268 -0.4704 -0.1317 -0.2917
15696TIP3    H168579   2.438   3.851  13.293 -1.1995 -1.2561  0.0693
15696TIP3    H268580   2.583   3.824  13.327 -0.7068  0.6741 -0.3753
15697TIP3   OH268581   2.117   4.361   0.947  0.2235  0.6025 -0.0803
15697TIP3    H168582   2.077   4.317   1.022 -0.9322 -1.5575 -1.8554
15697TIP3    H268583   2.064   4.440   0.934 -1.3061 -0.4092 -0.2324
15698TIP3   OH268584   1.131   2.736   1.361 -0.1205 -0.7520 -0.1694
15698TIP3    H168585   1.095   2.825   1.367  0.1374 -0.3328 -3.2393
15698TIP3    H268586   1.063   2.680   1.399 -0.0955  0.7241  2.2707
15699TIP3   OH268587   0.058   0.156  11.455 -0.4760  0.0464  0.4741
15699TIP3    H168588   0.048   0.095  11.382  1.2938 -0.4469  0.6081
15699TIP3    H268589   0.018   0.238  11.423  0.2470 -0.1569 -1.0616
15700TIP3   OH268590   3.083   4.659  15.272 -0.2913  0.7461 -0.1968
15700TIP3    H168591   3.009   4.697  15.225  0.2696  0.4603 -1.3574
15700TIP3    H268592   3.136   4.618  15.203  0.5769  0.3401  0.6939
15701TIP3   OH268593   6.294   1.767  10.441 -0.2252 -0.1103 -0.4221
15701TIP3    H168594   6.370   1.785  10.496 -0.7052 -0.1502  0.2632
15701TIP3    H268595   6.270   1.852  10.404  1.2063 -0.3540 -2.0708
15702TIP3   OH268596   0.479   2.224   2.641 -0.2431 -0.0530  0.4207
15702TIP3    H168597   0.558   2.179   2.611 -0.7498 -0.7108  0.0521
15702TIP3    H268598   0.427   2.235   2.562  0.1474  1.7879  0.3733
15703TIP3   OH268599   5.932   6.110  13.621  0.0064  0.3163  0.0527
15703TIP3    H168600   6.023   6.131  13.602  0.2288 -0.7166 -0.1346
15703TIP3    H268601   5.904   6.174  13.687  0.6937  0.9768 -0.2898
15704TIP3   OH268602   3.842   5.968  14.444  0.7191 -0.4706 -0.3134
15704TIP3    H168603   3.927   5.927  14.460  0.2478 -0.7768  1.8041
15704TIP3    H268604   3.852   6.057  14.479  0.8553  0.2988 -2.2232
15705TIP3   OH268605   2.934   6.345  16.522  0.4986 -0.0726 -0.2461
15705TIP3    H168606   2.892   6.334  16.608  1.2404  0.5802  0.2199
15705TIP3    H268607   2.927   6.260  16.480 -0.5859 -0.1829  0.1375
15706TIP3   OH268608   4.582   0.522  15.882  0.0956 -0.3549  0.4383
15706TIP3    H168609   4.508   0.494  15.935 -0.6912 -0.2407 -0.5665
15706TIP3    H268610   4.591   0.616  15.900 -1.4033  0.1294 -1.0088
15707TIP3   OH268611   1.073   5.435  13.426  0.4738  0.7733 -0.1667
15707TIP3    H168612   1.155   5.469  13.463  1.4609 -1.8605  0.2443
15707TIP3    H268613   1.100   5.381  13.352 -0.6114 -1.7853  1.1675
15708TIP3   OH268614   3.485   2.876   0.931 -0.3119 -0.3485 -0.9092
15708TIP3    H168615   3.538   2.923   0.995 -2.0594  0.4454  0.0328
15708TIP3    H268616   3.465   2.941   0.863  0.6406 -0.8928 -1.7386
15709TIP3   OH268617   2.885   5.730  14.182 -0.3342  0.0370  0.6562
15709TIP3    H168618   2.971   5.710  14.218  0.6994  0.7322 -1.2635
15709TIP3    H268619   2.842   5.781  14.250  0.8518 -0.1218  1.5640
15710TIP3   OH268620   3.372   3.337  11.324 -0.6866 -0.1080  0.1530
15710TIP3    H168621   3.431   3.400  11.283 -0.1504  0.3610  1.5566
15710TIP3    H268622   3.401   3.252  11.292  1.7447 -0.0329  1.8199
15711TIP3   OH268623   5.998   2.143   4.409 -0.5622  0.8458 -0.8324
15711TIP3    H168624   5.962   2.212   4.353 -1.2654  0.1008 -1.3213
15711TIP3    H268625   5.948   2.065   4.386 -0.3062  0.3354  0.2631
15712TIP3   OH268626   5.630   5.391  14.814  0.0922  0.4831 -0.0111
15712TIP3    H168627   5.632   5.295  14.815 -3.2471  0.2707  1.5763
15712TIP3    H268628   5.678   5.417  14.893  0.0714  0.0291  0.1555
15713TIP3   OH268629   3.136   6.038  11.012  0.1048 -0.1546 -0.2439
15713TIP3    H168630   3.067   6.089  11.053  0.4471  0.8078 -0.8322
15713TIP3    H268631   3.180   5.995  11.085  1.1217  2.0507  0.5380
15714TIP3   OH268632   3.123   5.134   5.852 -0.0597 -0.4633  0.2417
15714TIP3    H168633   3.150   5.068   5.915 -1.0557  0.9937  2.2930
15714TIP3    H268634   3.138   5.217   5.896  0.5357  0.7024 -2.0172
15715TIP3   OH268635   2.902   6.470  13.925 -0.1756  0.4929  0.4472
15715TIP3    H168636   2.930   6.561  13.937 -0.7999  0.5538  1.5316
15715TIP3    H268637   2.843   6.453  13.998  2.0446 -1.6623  1.8808
15716TIP3   OH268638   2.894   5.546   1.500  0.3206  0.0659  0.1664
15716TIP3    H168639   2.967   5.608   1.503  0.7313 -0.4090  0.0372
15716TIP3    H268640   2.935   5.460   1.495 -0.2510 -0.1875 -0.3036
15717TIP3   OH268641   6.812   2.752  16.982 -0.2539 -0.2017  0.3049
15717TIP3    H168642   6.869   2.696  17.033  0.8341  1.2521  0.7478
15717TIP3    H268643   6.864   2.831  16.965 -0.6720 -0.4652 -2.7766
15718TIP3   OH268644   4.185   2.898   6.450  0.5665 -0.3889 -0.1074
15718TIP3    H168645   4.179   2.937   6.537 -0.5067 -0.8436  0.0398
15718TIP3    H268646   4.230   2.964   6.397 -0.0991  0.5260  0.4373
15719TIP3   OH268647   6.547   5.114   0.417 -0.2560 -0.1793 -0.7331
15719TIP3    H168648   6.502   5.052   0.358  0.0305 -1.3505  0.2355
15719TIP3    H268649   6.592   5.174   0.358 -0.5460 -0.8973 -1.7216
15720TIP3   OH268650   4.615   5.759   3.737 -0.3835 -0.0457  0.0869
15720TIP3    H168651   4.692   5.794   3.692 -0.2802  0.8084  0.9065
15720TIP3    H268652   4.646   5.679   3.779  0.4921  1.0859  1.7001
15721TIP3   OH268653   1.371   1.675   5.804  0.4362 -0.4365  0.0656
15721TIP3    H168654   1.365   1.687   5.709 -0.2187 -0.5702  0.0901
15721TIP3    H268655   1.407   1.757   5.836  0.3833 -0.2815 -0.2653
15722TIP3   OH268656   1.072   1.893  11.444 -0.0217  0.2314  0.3494
15722TIP3    H168657   1.145   1.934  11.491  0.7161 -2.0406  1.3078
15722TIP3    H268658   1.023   1.847  11.511  0.6454 -2.5114 -0.9104
15723TIP3   OH268659   5.057   6.077  12.290  0.5941  0.2229 -0.2166
15723TIP3    H168660   5.149   6.096  12.274  0.8781 -0.0278  1.0202
15723TIP3    H268661   5.049   6.075  12.385 -0.7966  0.7527 -0.2936
15724TIP3   OH268662   6.559   2.884  16.935 -0.0424 -0.4382  0.1347
15724TIP3    H168663   6.513   2.873  16.851  2.0085 -0.8353 -1.0191
15724TIP3    H268664   6.624   2.813  16.935  0.7663  0.2702  1.5443
15725TIP3   OH268665   4.583   1.305  12.385 -0.3099  0.0548  0.2188
15725TIP3    H168666   4.564   1.389  12.343 -1.2153 -0.6173 -0.7706
15725TIP3    H268667   4.678   1.293  12.374 -0.2049  0.8618  0.2123
15726TIP3   OH268668   4.731   2.682  12.616 -0.1177  0.3532 -0.4783
15726TIP3    H168669   4.758   2.770  12.591 -1.4671  2.8078  5.1429
15726TIP3    H268670   4.802   2.650  12.673 -1.9460  0.2486  1.8766
15727TIP3   OH268671   4.166   5.993   5.743  0.6167  0.1530 -0.3053
15727TIP3    H168672   4.091   5.943   5.775  1.4740 -0.3727  0.9811
15727TIP3    H268673   4.154   6.081   5.781  0.1900  0.3293 -0.8442
15728TIP3   OH268674   4.642   3.505  16.173 -0.2322  0.0191  0.1671
15728TIP3    H168675   4.659   3.583  16.122  1.4589 -1.2697 -1.3521
15728TIP3    H268676   4.662   3.432  16.114 -1.7650 -1.5936  1.5049
15729TIP3   OH268677   2.886   3.961  12.538 -0.1801 -0.6770 -0.5641
15729TIP3    H168678   2.907   3.927  12.625  2.7056  0.5996 -0.6277
15729TIP3    H268679   2.872   3.883  12.484 -1.6064 -1.4937  0.9169
15730TIP3   OH268680   5.478   1.956  12.577  0.1034 -0.6071 -0.1006
15730TIP3    H168681   5.419   1.927  12.507  1.2603 -1.8608 -0.5884
15730TIP3    H268682   5.425   1.949  12.656 -1.2215  0.8209 -0.8133
15731TIP3   OH268683   5.269   2.942  16.987  0.3245 -0.2192 -0.5537
15731TIP3    H168684   5.222   3.015  16.947 -0.8507 -0.4620  0.3212
15731TIP3    H268685   5.311   2.981  17.064  0.7200 -0.2159 -0.7703
15732TIP3   OH268686   3.053   4.683   2.040  0.3347 -0.2670 -0.2719
15732TIP3    H168687   3.042   4.594   2.075 -0.2992  0.4092  1.3363
15732TIP3    H268688   2.983   4.691   1.975  0.3429 -0.9127 -0.3686
15733TIP3   OH268689   4.648   5.388   4.405  0.3500  0.0419  0.5560
15733TIP3    H168690   4.733   5.412   4.368  0.3280  0.3695  0.7180
15733TIP3    H268691   4.636   5.447   4.479  0.6849 -1.0202  1.5003
15734TIP3   OH268692   6.652   6.307  11.742  0.1635 -0.2284 -0.1260
15734TIP3    H168693   6.664   6.298  11.648  0.9922 -1.9727  0.1007
15734TIP3    H268694   6.558   6.296  11.756  0.1094 -0.5019 -0.6972
15735TIP3   OH268695   6.536   2.005  16.815  0.1005  0.2558 -0.4329
15735TIP3    H168696   6.561   2.017  16.723  3.1274  0.7962  0.3402
15735TIP3    H268697   6.588   1.930  16.844  0.3899  1.0431  1.2013
15736TIP3   OH268698   3.631   2.075  15.967 -0.1838  0.2762  0.0963
15736TIP3    H168699   3.716   2.105  15.936  0.2998 -1.5850 -0.4474
15736TIP3    H268700   3.586   2.044  15.889 -0.0775 -1.7533  0.7772
15737TIP3   OH268701   4.958   5.781  15.132  0.3532  0.2469  0.5410
15737TIP3    H168702   4.886   5.821  15.083 -0.6701 -0.8124  1.1187
15737TIP3    H268703   4.985   5.848  15.194 -0.3130  0.5846  0.4802
15738TIP3   OH268704   2.965   5.534  15.928 -0.3225 -0.0557  0.5681
15738TIP3    H168705   2.880   5.565  15.897 -0.4277  0.6985  1.5390
15738TIP3    H268706   3.028   5.573  15.868 -0.6436 -0.3010  0.0733
15739TIP3   OH268707   4.044   2.013   4.526 -0.6939  0.1133 -0.2789
15739TIP3    H168708   4.094   2.066   4.589  1.2001  0.4208 -1.9312
15739TIP3    H268709   3.969   1.981   4.575  0.0939  1.2898  1.7994
15740TIP3   OH268710   3.095   6.192   5.284  0.4900  0.1077  0.5506
15740TIP3    H168711   3.136   6.117   5.327 -0.9665 -0.7461  0.5427
15740TIP3    H268712   3.152   6.266   5.304  2.8755 -1.2504 -0.7866
15741TIP3   OH268713   4.224   5.004  13.676 -0.1349 -0.2822  0.0412
15741TIP3    H168714   4.224   5.038  13.587  0.3666 -1.1689 -0.3044
15741TIP3    H268715   4.293   5.054  13.721  2.8460 -2.8541 -1.2990
15742TIP3   OH268716   2.796   2.040   1.570 -0.1670 -0.6356  0.5836
15742TIP3    H168717   2.792   2.114   1.630 -1.2989  0.1546 -0.4319
15742TIP3    H268718   2.885   2.042   1.536  0.0495 -0.2302  1.1463
15743TIP3   OH268719   0.332   1.509   4.922 -0.5554 -0.1202 -0.3698
15743TIP3    H168720   0.324   1.544   4.833  0.6303  0.6239 -0.2127
15743TIP3    H268721   0.246   1.523   4.962 -0.6411  0.9818 -0.9065
15744TIP3   OH268722   5.303   0.421  13.763 -0.2507  0.1346  0.2201
15744TIP3    H168723   5.266   0.508  13.775  0.7390  0.6875 -0.5398
15744TIP3    H268724   5.235   0.361  13.792 -1.2320  1.1432  0.0537
15745TIP3   OH268725   0.707   3.591  12.500  0.2947  0.3065 -0.0958
15745TIP3    H168726   0.781   3.547  12.541 -0.8318 -0.1074  1.6135
15745TIP3    H268727   0.720   3.684  12.519  1.9803  0.6869 -2.5730
15746TIP3   OH268728   6.206   5.465  13.295  1.0189 -0.0285 -0.1363
15746TIP3    H168729   6.179   5.463  13.387 -0.3815  0.4412 -0.5107
15746TIP3    H268730   6.299   5.446  13.297  0.9293 -0.4374  1.3516
15747TIP3   OH268731   5.614   0.875   2.000  0.8862  0.0078 -0.0046
15747TIP3    H168732   5.682   0.811   1.978  0.9133 -0.0045  0.1151
15747TIP3    H268733   5.600   0.924   1.918  0.8402 -0.1723 -0.1050
15748TIP3   OH268734   1.838   5.897  12.092  0.1301 -0.1251 -0.0695
15748TIP3    H168735   1.840   5.928  12.001 -1.5214  1.1549  0.2826
15748TIP3    H268736   1.808   5.806  12.086  2.8727 -1.0804 -0.9611
15749TIP3   OH268737   5.569   1.910   5.423  0.7498  0.1753  0.4611
15749TIP3    H168738   5.621   1.940   5.497  1.7143 -1.5483  0.5402
15749TIP3    H268739   5.579   1.978   5.357  3.7643 -0.4124  0.1969
15750TIP3   OH268740   0.520   5.351   2.411 -0.5137 -0.4171  0.0309
15750TIP3    H168741   0.533   5.284   2.478 -0.2480 -0.9884 -0.5771
15750TIP3    H268742   0.519   5.433   2.459  1.3540 -0.6658  0.5670
15751TIP3   OH268743   2.215   6.527   3.109 -0.0718 -0.3313 -0.0415
15751TIP3    H168744   2.151   6.597   3.100 -0.5513 -0.7896 -0.2641
15751TIP3    H268745   2.163   6.447   3.108  0.3769 -0.6557  1.1873
15752TIP3   OH268746   4.744   4.872  14.128  0.0004 -0.5270 -0.7614
15752TIP3    H168747   4.747   4.857  14.222 -2.6509 -0.7038 -0.6396
15752TIP3    H268748   4.753   4.785  14.089 -0.5165 -0.6536 -0.6015
15753TIP3   OH268749   2.242   3.081  16.659 -0.0388 -0.3451 -0.7742
15753TIP3    H168750   2.172   3.112  16.717 -1.2833 -3.3364 -0.4941
15753TIP3    H268751   2.315   3.064  16.718 -0.0376  0.1213 -0.6371
15754TIP3   OH268752   4.923   2.013   2.503 -0.2615 -0.2380 -0.5368
15754TIP3    H168753   4.979   1.976   2.571 -1.4801  1.0546  1.2790
15754TIP3    H268754   4.983   2.036   2.432  1.1935 -0.7961  0.4608
15755TIP3   OH268755   1.961   2.422   3.502 -0.3683  0.9113 -0.2749
15755TIP3    H168756   1.979   2.330   3.518  2.6143  0.8922 -2.9284
15755TIP3    H268757   1.919   2.424   3.416 -0.3101  2.0203 -0.2902
15756TIP3   OH268758   0.376   5.898   0.793 -0.1992  0.3224 -0.2827
15756TIP3    H168759   0.287   5.893   0.757 -1.8586 -2.6591  3.4707
15756TIP3    H268760   0.432   5.868   0.722 -2.6804 -1.6060 -1.6072
15757TIP3   OH268761   4.070   4.771   3.916  0.4473 -0.1106  0.2436
15757TIP3    H168762   3.986   4.799   3.880  0.1093 -0.6081  0.6434
15757TIP3    H268763   4.048   4.714   3.989  1.0924  2.3851  2.5224
15758TIP3   OH268764   5.789   6.051   2.735 -0.0495 -0.5962  0.2361
15758TIP3    H168765   5.770   6.006   2.652  0.0258 -0.9354  0.4022
15758TIP3    H268766   5.717   6.113   2.746  1.8681  2.3468 -2.0892
15759TIP3   OH268767   6.213   4.805   0.883 -0.0424 -0.2599  0.6263
15759TIP3    H168768   6.169   4.770   0.961 -1.5104 -2.1099 -0.9229
15759TIP3    H268769   6.154   4.873   0.851 -0.0309 -0.3094  0.4982
15760TIP3   OH268770   5.295   1.165  13.079 -0.4114 -0.4574  0.4096
15760TIP3    H168771   5.368   1.202  13.030  1.1281 -1.9156  1.4909
15760TIP3    H268772   5.253   1.105  13.017 -1.0715  0.7788 -0.3841
15761TIP3   OH268773   3.415   3.069   0.758 -0.0150  0.0494 -0.6349
15761TIP3    H168774   3.426   3.155   0.718  0.5916 -0.3021 -1.2540
15761TIP3    H268775   3.324   3.047   0.742 -0.4311  0.9589  0.3404
15762TIP3   OH268776   5.681   0.011  16.449  1.2257 -0.1294 -0.2632
15762TIP3    H168777   5.735  -0.064  16.423  2.0592  0.2577  0.2990
15762TIP3    H268778   5.671   0.062  16.369  2.5771  0.3168 -0.1877
15763TIP3   OH268779   0.463   4.006   0.239 -0.0214 -0.3502 -0.2560
15763TIP3    H168780   0.557   3.988   0.232 -0.1497 -1.5986  0.8570
15763TIP3    H268781   0.457   4.078   0.301  0.2700  0.9983 -1.7202
15764TIP3   OH268782   2.320   3.836   3.015  0.5310  0.1982  0.2774
15764TIP3    H168783   2.327   3.821   2.921 -1.1520  0.5507  0.0776
15764TIP3    H268784   2.331   3.749   3.054 -1.2652 -0.3626 -0.4076
15765TIP3   OH268785   0.029   0.405   5.097  0.7491  0.2490  0.4991
15765TIP3    H168786   0.050   0.478   5.154  0.9864 -0.4841  1.3665
15765TIP3    H268787   0.110   0.390   5.047  0.6520  0.6643  0.2113
15766TIP3   OH268788   1.582   2.907  17.123 -0.5601  0.3989  0.3653
15766TIP3    H168789   1.674   2.933  17.126 -0.6077  0.4757  1.4379
15766TIP3    H268790   1.575   2.856  17.042  1.1617 -2.3298  1.7936
15767TIP3   OH268791   2.097   4.122  15.120 -0.7997  0.0174 -0.3634
15767TIP3    H168792   2.183   4.155  15.092  0.3598 -1.3900  1.2640
15767TIP3    H268793   2.083   4.043  15.067 -1.5164  0.7199 -1.2341
15768TIP3   OH268794   5.661   5.013   0.044  0.3304 -0.0080 -0.4014
15768TIP3    H168795   5.692   4.991   0.132  0.0526  1.9919  0.2547
15768TIP3    H268796   5.595   4.947   0.025  2.1498 -1.9885 -0.1905
15769TIP3   OH268797   0.078   0.049   4.124  0.1664 -0.7230  0.4714
15769TIP3    H168798   0.165   0.016   4.147  0.1292 -0.9279  0.3282
15769TIP3    H268799   0.036  -0.025   4.080  0.1612 -0.4159 -0.0564
15770TIP3   OH268800   5.170   2.574   3.362  0.1365 -0.0711 -0.2861
15770TIP3    H168801   5.239   2.625   3.405 -0.3233  0.0101  0.3585
15770TIP3    H268802   5.136   2.516   3.429  0.5627 -1.1616 -0.9844
15771TIP3   OH268803   1.086   4.280   5.436 -0.3523 -0.6794 -0.1201
15771TIP3    H168804   1.106   4.224   5.512 -1.5248 -1.2530 -0.2135
15771TIP3    H268805   0.993   4.264   5.419 -0.7837  1.4421 -0.0411
15772TIP3   OH268806   3.529   1.468   2.575  0.2744  0.0795 -0.3856
15772TIP3    H168807   3.486   1.432   2.498  0.6370  0.2451 -0.6677
15772TIP3    H268808   3.474   1.440   2.649  0.1040 -0.3498 -0.6733
15773TIP3   OH268809   1.222   4.963  14.247  0.2496  0.4897 -0.2973
15773TIP3    H168810   1.274   4.996  14.320  0.4114  0.8580 -0.5777
15773TIP3    H268811   1.280   4.901  14.203 -0.2989 -0.7366  0.6458
15774TIP3   OH268812   6.817   3.474   3.553  0.7005  0.1299  0.3300
15774TIP3    H168813   6.751   3.430   3.606  0.5000  0.7941  0.6434
15774TIP3    H268814   6.856   3.405   3.500 -0.7641 -0.1698 -0.4109
15775TIP3   OH268815   4.987   0.976  16.788 -0.1376  0.0264  0.1916
15775TIP3    H168816   4.910   0.987  16.843 -0.3818  0.5161 -0.2312
15775TIP3    H268817   4.956   0.926  16.713  0.6799 -2.6217  1.4854
15776TIP3   OH268818   4.388   4.895  12.755  0.2218  0.4464 -0.0909
15776TIP3    H168819   4.460   4.956  12.773  1.0571 -0.6639  0.4625
15776TIP3    H268820   4.426   4.808  12.769 -1.2664 -0.1683  0.3441
15777TIP3   OH268821   5.401   4.370   2.733 -0.6218  0.2701 -0.2795
15777TIP3    H168822   5.340   4.301   2.709 -1.0663  1.1292 -1.7052
15777TIP3    H268823   5.480   4.352   2.682 -0.7878  0.8828 -0.7621
15778TIP3   OH268824   0.087   2.248  14.267  0.1459 -0.4655  0.2213
15778TIP3    H168825   0.100   2.272  14.358 -1.0682  0.4641  0.1744
15778TIP3    H268826   0.125   2.320  14.217 -0.8587 -0.0418  0.0392
15779TIP3   OH268827   6.495   0.533   5.606 -0.1950  0.6353 -0.2524
15779TIP3    H168828   6.438   0.550   5.681 -0.8988  0.3896 -0.7137
15779TIP3    H268829   6.501   0.617   5.561  2.0454  1.3725  1.2479
15780TIP3   OH268830   4.822   3.059  13.646  0.5556  0.1991 -0.6287
15780TIP3    H168831   4.787   3.114  13.716 -2.1038 -2.1913  0.0582
15780TIP3    H268832   4.848   3.121  13.577 -1.6092  2.3520  0.3830
15781TIP3   OH268833   6.434   0.338   2.144 -0.2987 -0.5948  0.3680
15781TIP3    H168834   6.494   0.347   2.218 -0.3076 -0.5266  0.3671
15781TIP3    H268835   6.444   0.420   2.095  0.4282 -1.0344 -0.2434
15782TIP3   OH268836   0.063   1.141   1.872  0.6172 -0.5572 -0.4103
15782TIP3    H168837   0.137   1.144   1.933 -0.6035 -1.2598  1.1580
15782TIP3    H268838   0.060   1.230   1.835  1.0555  0.0682  0.9690
15783TIP3   OH268839   3.749   0.446  16.286  0.3332  0.3399 -0.1146
15783TIP3    H168840   3.754   0.502  16.209  0.2966  0.6533  0.1119
15783TIP3    H268841   3.710   0.501  16.354  1.5665  0.4851  0.5101
15784TIP3   OH268842   2.850   5.345   4.876  0.6104  0.1971  0.2620
15784TIP3    H168843   2.816   5.282   4.941  1.2797 -1.8392 -1.2387
15784TIP3    H268844   2.945   5.331   4.877  0.7830  1.2965 -0.0259
15785TIP3   OH268845   5.726   6.048  10.271  0.2337 -0.0122 -0.4411
15785TIP3    H168846   5.730   6.084  10.183 -0.0596  0.9856 -0.0542
15785TIP3    H268847   5.699   6.121  10.327 -0.1202 -0.7592  0.4033
15786TIP3   OH268848   1.528   1.734   3.482 -0.4150  0.4877  0.1247
15786TIP3    H168849   1.575   1.654   3.460  0.3111  1.3242 -1.5855
15786TIP3    H268850   1.572   1.767   3.560  0.7843  0.3631 -0.4663
15787TIP3   OH268851   2.114   1.971   1.690  0.2702  0.3108  0.3731
15787TIP3    H168852   2.039   1.968   1.750  0.4637 -0.8976  0.5983
15787TIP3    H268853   2.081   2.013   1.611 -0.5232  0.2110  0.6428
15788TIP3   OH268854   3.201   4.738   4.515  0.1397  0.4164  0.4045
15788TIP3    H168855   3.240   4.770   4.596  2.5476  1.2437 -0.9787
15788TIP3    H268856   3.243   4.653   4.501 -0.6947  0.0109  0.2883
15789TIP3   OH268857   3.774   0.657   2.176  0.7829 -0.3727  0.1646
15789TIP3    H168858   3.833   0.610   2.234  0.9108 -1.0149 -0.4625
15789TIP3    H268859   3.691   0.661   2.223  0.1156 -3.1490 -0.5883
15790TIP3   OH268860   1.606   4.464  12.168 -0.4641  0.1069  0.2750
15790TIP3    H168861   1.694   4.460  12.130 -0.1283 -0.4307  1.0640
15790TIP3    H268862   1.619   4.441  12.260 -0.8570  3.8095  1.4204
15791TIP3   OH268863   3.737   3.461  12.710  0.0360 -0.2384 -0.6415
15791TIP3    H168864   3.731   3.507  12.794  1.8022  0.6000 -0.9431
15791TIP3    H268865   3.830   3.457  12.691 -0.3460  0.0433 -2.8331
15792TIP3   OH268866   5.568   2.955  13.627 -0.6240 -0.2066  0.0138
15792TIP3    H168867   5.529   3.024  13.573 -0.4863 -2.1951 -2.8496
15792TIP3    H268868   5.493   2.916  13.673 -0.9094  0.7412  0.3884
15793TIP3   OH268869   1.066   2.975   3.218  0.3891 -0.3479 -0.5168
15793TIP3    H168870   1.139   3.010   3.167  1.1074  0.1336  0.7950
15793TIP3    H268871   1.104   2.955   3.304 -1.0472  0.0597  0.2463
15794TIP3   OH268872   3.039   3.612   3.735  0.7983  0.8737 -0.2190
15794TIP3    H168873   3.107   3.673   3.705  1.7557 -0.0212  0.0593
15794TIP3    H268874   2.988   3.663   3.798  0.8798  1.7231 -0.8137
15795TIP3   OH268875   6.348   3.750   4.683  0.3367 -0.5678 -0.0422
15795TIP3    H168876   6.434   3.774   4.648  0.2469 -0.4355 -0.1735
15795TIP3    H268877   6.367   3.699   4.761  0.5299  0.9125  0.9178
15796TIP3   OH268878   2.386   5.713   6.465  0.0335 -0.1576  0.4491
15796TIP3    H168879   2.351   5.626   6.445 -2.1330  0.9333 -0.8674
15796TIP3    H268880   2.337   5.772   6.408  0.3559  2.1079  2.3805
15797TIP3   OH268881   0.857   4.135   5.339  0.0131 -0.1418 -0.1172
15797TIP3    H168882   0.890   4.071   5.276  0.7366  0.4478 -0.3597
15797TIP3    H268883   0.768   4.153   5.310 -1.0904 -2.7352  1.3061
15798TIP3   OH268884   1.187   5.481   1.858 -0.3403 -0.1063 -0.0409
15798TIP3    H168885   1.188   5.407   1.918 -2.1273 -0.4966 -0.4466
15798TIP3    H268886   1.097   5.513   1.861 -0.2389  0.4222 -1.8351
15799TIP3   OH268887   3.371   1.147  14.094 -0.0061 -0.0110 -0.1412
15799TIP3    H168888   3.314   1.147  14.016  0.3558 -1.0704 -0.4249
15799TIP3    H268889   3.333   1.213  14.151 -0.5717  0.4445 -1.0136
15800TIP3   OH268890   4.162   2.899   0.787 -0.1351  0.8555  0.4968
15800TIP3    H168891   4.128   2.885   0.876 -1.9494  1.1135 -0.1172
15800TIP3    H268892   4.146   2.817   0.741 -1.2019  1.4260 -0.1827
15801TIP3   OH268893   2.540   3.292  13.069 -0.3648  0.1539 -0.1768
15801TIP3    H168894   2.522   3.370  13.122  1.2762  0.0148  0.6363
15801TIP3    H268895   2.535   3.219  13.131 -0.0886 -0.1908 -0.5564
15802TIP3   OH268896   5.451   4.054  11.825  0.2496 -0.0232 -0.0477
15802TIP3    H168897   5.429   4.002  11.748 -0.8166 -0.9477  0.8430
15802TIP3    H268898   5.547   4.059  11.824  0.2138  1.6759 -2.4863
15803TIP3   OH268899   6.391   5.389  16.119 -0.5232 -0.1832 -0.1567
15803TIP3    H168900   6.394   5.293  16.108 -1.3026 -0.2108 -0.2011
15803TIP3    H268901   6.314   5.416  16.070 -1.1314  0.3035  1.0276
15804TIP3   OH268902   0.918   2.818  13.264 -0.4473  0.7187 -0.0720
15804TIP3    H168903   0.992   2.835  13.205  2.0885 -2.7507  1.7703
15804TIP3    H268904   0.929   2.882  13.335  1.4935 -0.3362  0.6597
15805TIP3   OH268905   1.112   6.256   2.160 -0.1479 -0.4608 -0.0240
15805TIP3    H168906   1.132   6.163   2.169  1.0509 -0.6893 -3.3905
15805TIP3    H268907   1.197   6.299   2.164  0.1261 -0.2544 -3.7934
15806TIP3   OH268908   0.471   1.973  14.272 -0.2823  0.0793 -0.0325
15806TIP3    H168909   0.408   1.934  14.333 -0.3705 -1.3355 -0.9680
15806TIP3    H268910   0.418   2.001  14.198 -0.1464  1.5739  0.4149
15807TIP3   OH268911   4.206   3.642  16.011 -0.1592 -0.2153 -0.0843
15807TIP3    H168912   4.114   3.653  15.985 -0.2141 -0.1987  0.1138
15807TIP3    H268913   4.202   3.589  16.090 -0.0484  0.3699  0.3237
15808TIP3   OH268914   2.908   1.490   2.547  0.4842 -0.5484 -0.4318
15808TIP3    H168915   2.952   1.440   2.478 -0.1537  1.0166 -2.0597
15808TIP3    H268916   2.912   1.580   2.516  1.1207  0.3820  2.1375
15809TIP3   OH268917   1.298   3.592  12.918 -0.2434  0.6160 -0.2779
15809TIP3    H168918   1.285   3.628  13.006 -1.3977  1.0272 -0.6116
15809TIP3    H268919   1.283   3.498  12.928  0.5542  0.5232  0.1417
15810TIP3   OH268920   3.537   4.041  14.155 -0.0850 -0.1466  0.2908
15810TIP3    H168921   3.445   4.050  14.177 -0.4260  1.8760 -1.6455
15810TIP3    H268922   3.582   4.100  14.215 -0.2636  0.2601  0.0269
15811TIP3   OH268923   6.122   5.546  13.535 -0.2496  0.0004 -0.1707
15811TIP3    H168924   6.068   5.615  13.496 -0.8693 -0.5643 -0.3259
15811TIP3    H268925   6.061   5.493  13.586  0.1698 -0.5911 -0.2636
15812TIP3   OH268926   1.481   6.047  16.671 -0.4711 -0.2646 -0.0720
15812TIP3    H168927   1.575   6.033  16.681 -0.3222  0.0419 -0.9230
15812TIP3    H268928   1.474   6.106  16.596 -1.2257  1.4829  1.2782
15813TIP3   OH268929   6.622   3.587   1.702  0.1828 -0.6740  0.1505
15813TIP3    H168930   6.661   3.601   1.616 -1.8450 -1.4825 -0.9688
15813TIP3    H268931   6.673   3.515   1.740  0.8376 -0.5821 -0.5353
15814TIP3   OH268932   2.589   2.558  13.926 -0.1343  0.0082  0.0679
15814TIP3    H168933   2.603   2.651  13.944 -0.1744  0.2814 -1.2127
15814TIP3    H268934   2.610   2.549  13.833 -0.7091 -1.1490  0.0444
15815TIP3   OH268935   3.227   3.326  15.188 -0.8736  0.2773  0.5859
15815TIP3    H168936   3.186   3.412  15.179 -0.6598  0.2499 -0.7663
15815TIP3    H268937   3.316   3.345  15.220 -1.1389  0.4819  1.2249
15816TIP3   OH268938   4.243   5.115  16.450 -0.1650  0.0624  0.7554
15816TIP3    H168939   4.286   5.042  16.405 -0.0725 -0.6338  1.9318
15816TIP3    H268940   4.158   5.123  16.407 -0.0691 -0.5792  0.4347
15817TIP3   OH268941   4.869   5.895   2.436 -0.0498 -0.3923  1.0866
15817TIP3    H168942   4.915   5.844   2.503  1.7462  0.6451  0.7002
15817TIP3    H268943   4.806   5.946   2.486 -2.4607 -3.3832  1.4299
15818TIP3   OH268944   0.682   5.552   3.607  0.5352  0.3698 -0.5566
15818TIP3    H168945   0.639   5.468   3.621 -3.2157  2.2857  0.8413
15818TIP3    H268946   0.775   5.533   3.618 -0.1470 -3.4587  0.2074
15819TIP3   OH268947   5.836   6.136  11.650 -0.2810  0.2611 -0.3526
15819TIP3    H168948   5.875   6.214  11.610  1.2799 -0.2580  0.1084
15819TIP3    H268949   5.761   6.170  11.700 -0.9651  1.1759 -1.9331
15820TIP3   OH268950   3.875   4.804  11.623 -0.2307 -0.1999 -0.5045
15820TIP3    H168951   3.877   4.867  11.550  0.4324 -0.3675 -0.6452
15820TIP3    H268952   3.881   4.859  11.702 -1.5424  0.0202 -0.5339
15821TIP3   OH268953   1.751   2.330   4.518 -0.2560 -0.1606 -0.0688
15821TIP3    H168954   1.842   2.307   4.536  0.7118  0.9407 -2.9631
15821TIP3    H268955   1.708   2.246   4.501  0.6568 -0.5886 -0.3293
15822TIP3   OH268956   3.761   1.586  17.112 -0.6742 -0.0652  0.3938
15822TIP3    H168957   3.722   1.523  17.172  1.3787 -1.7203  0.0936
15822TIP3    H268958   3.853   1.591  17.139 -0.1450  0.6024 -1.4064
15823TIP3   OH268959   2.681   3.065   4.484  0.9536 -0.4282 -0.1299
15823TIP3    H168960   2.688   3.005   4.410 -0.1940  0.2232 -0.7950
15823TIP3    H268961   2.692   3.151   4.446  1.1647 -0.1322  0.5905
15824TIP3   OH268962   2.733   1.739   4.426  0.5213 -0.2806  0.0824
15824TIP3    H168963   2.787   1.715   4.501  2.3179 -0.7543 -1.2838
15824TIP3    H268964   2.650   1.694   4.440  0.4786  0.3688  2.1959
15825TIP3   OH268965   3.725   0.179  16.232 -0.0072 -0.3965 -0.3869
15825TIP3    H168966   3.677   0.168  16.314 -2.3178 -0.8180 -1.7055
15825TIP3    H268967   3.759   0.268  16.237  0.4409 -0.6138  1.2626
15826TIP3   OH268968   1.786   2.853   4.667 -0.0573  0.0066 -0.2381
15826TIP3    H168969   1.847   2.781   4.678 -0.1766 -0.4683 -2.2591
15826TIP3    H268970   1.834   2.918   4.616 -0.7871  0.2112 -0.6825
15827TIP3   OH268971   5.023   1.246   3.600  0.6114 -0.2436 -0.1245
15827TIP3    H168972   5.077   1.169   3.617  0.8864  0.1339  0.7683
15827TIP3    H268973   5.005   1.282   3.687 -0.7737 -0.1511 -0.4229
15828TIP3   OH268974   1.373   2.624   1.873 -0.4356  0.6211 -0.0611
15828TIP3    H168975   1.347   2.584   1.790  2.9919  1.6028 -1.8276
15828TIP3    H268976   1.389   2.716   1.850  0.4833  0.9413  1.6988
15829TIP3   OH268977   2.313   4.810  13.663 -0.3060  0.2812 -0.0475
15829TIP3    H168978   2.303   4.727  13.709  1.6453  0.3414  0.5576
15829TIP3    H268979   2.366   4.789  13.586 -1.7426  0.5769 -1.1515
15830TIP3   OH268980   5.339   2.501   2.113 -0.2910 -0.2874  0.1626
15830TIP3    H168981   5.249   2.517   2.086 -0.9863 -1.1295  1.7732
15830TIP3    H268982   5.387   2.487   2.032 -1.1877  2.0466 -0.8496
15831TIP3   OH268983   2.955   2.538   6.724 -0.1062  0.2949 -0.1452
15831TIP3    H168984   3.020   2.608   6.729  0.6696 -0.5063  1.9440
15831TIP3    H268985   3.005   2.459   6.705 -0.8111  0.0524 -1.0941
15832TIP3   OH268986   4.255   2.828   2.761  0.0159  0.4027 -0.3134
15832TIP3    H168987   4.338   2.799   2.799 -0.0106 -0.2913 -0.7800
15832TIP3    H268988   4.193   2.826   2.834  0.6352  2.0151  0.3234
15833TIP3   OH268989   1.418   5.172   1.903  0.0806  0.4632  0.4722
15833TIP3    H168990   1.330   5.184   1.938  0.1779  0.3522  0.7528
15833TIP3    H268991   1.475   5.214   1.967  0.0435  3.2065 -1.0924
15834TIP3   OH268992   2.619   2.342  10.656  0.2229  0.0112  0.2396
15834TIP3    H168993   2.686   2.387  10.604 -0.0329  0.1499  0.0239
15834TIP3    H268994   2.654   2.254  10.669 -0.1268 -0.3354 -0.9920
15835TIP3   OH268995   1.702   3.519   4.154  0.5447 -0.3870  0.0152
15835TIP3    H168996   1.740   3.504   4.068 -0.6927 -0.0089 -0.6126
15835TIP3    H268997   1.650   3.599   4.144 -0.2359 -0.7688  0.9035
15836TIP3   OH268998   0.214   0.353  15.062  0.2403 -0.6418 -0.1179
15836TIP3    H168999   0.235   0.439  15.025  3.0524 -1.3047 -0.2889
15836TIP3    H269000   0.120   0.345  15.052 -0.0150  2.1266 -0.7243
15837TIP3   OH269001   1.270   3.589  15.789 -0.0350 -0.4101 -0.2857
15837TIP3    H169002   1.198   3.650  15.800  1.0563  0.8691  0.1077
15837TIP3    H269003   1.342   3.643  15.755  1.1499 -1.3357  0.6574
15838TIP3   OH269004   3.520   5.066   4.849  0.0138  0.4641  0.0246
15838TIP3    H169005   3.457   5.008   4.807  2.2355 -1.1813 -1.2341
15838TIP3    H269006   3.506   5.053   4.943  0.4790 -2.2464 -0.2131
15839TIP3   OH269007   1.047   0.646   0.212  0.3964 -0.0025  0.3531
15839TIP3    H169008   1.067   0.738   0.193 -0.0405  0.2992  1.2889
15839TIP3    H269009   1.123   0.598   0.179  0.8714  0.7416  0.3365
15840TIP3   OH269010   2.133   3.783   4.536  0.3294  0.5417  0.0812
15840TIP3    H169011   2.101   3.797   4.625 -1.3946  2.5730 -0.7705
15840TIP3    H269012   2.222   3.816   4.537  0.2703  0.7009  1.0287
15841TIP3   OH269013   1.160   1.386   3.106  0.2286 -0.1596 -0.2052
15841TIP3    H169014   1.180   1.477   3.129  2.4298 -0.2888 -1.3557
15841TIP3    H269015   1.076   1.390   3.060 -1.1527  0.8671  2.1942
15842TIP3   OH269016   4.428   5.430  16.107 -0.4900 -0.5385 -0.3982
15842TIP3    H169017   4.490   5.453  16.176 -0.0257  2.1975 -1.5698
15842TIP3    H269018   4.362   5.377  16.150 -0.2292  1.0674  2.1951
15843TIP3   OH269019   0.253   0.468  13.063 -0.0260  0.0202  0.4531
15843TIP3    H169020   0.193   0.470  13.138 -0.8969 -0.2678 -0.2211
15843TIP3    H269021   0.273   0.376  13.051  1.0262  0.1591  1.0243
15844TIP3   OH269022   4.722   0.413  14.417 -0.0585 -0.4048 -0.3705
15844TIP3    H169023   4.684   0.484  14.365 -0.1047 -0.3828 -0.3062
15844TIP3    H269024   4.815   0.436  14.424  0.0008 -0.5491 -0.6725
15845TIP3   OH269025   3.630   5.324   1.617  0.1407  0.4974  0.1839
15845TIP3    H169026   3.691   5.377   1.566  0.4402  1.5654  1.6035
15845TIP3    H269027   3.549   5.374   1.618  0.1623  0.5267  0.8168
15846TIP3   OH269028   0.444   5.818  14.689  0.0631 -0.3043  0.2804
15846TIP3    H169029   0.534   5.799  14.663  0.3545  0.3487  0.7844
15846TIP3    H269030   0.412   5.736  14.727  0.2376 -0.7188 -0.4523
15847TIP3   OH269031   1.292   2.742   6.089 -0.0725  0.7765 -0.1398
15847TIP3    H169032   1.232   2.718   6.160 -1.1757  2.2345 -0.5252
15847TIP3    H269033   1.300   2.663   6.035 -1.6054  0.5378 -0.0459
15848TIP3   OH269034   3.786   2.705   1.812 -0.3726 -0.5003  0.6263
15848TIP3    H169035   3.835   2.644   1.866  1.1210  0.4462  0.3869
15848TIP3    H269036   3.757   2.653   1.737 -0.0603 -1.1570  0.9562
15849TIP3   OH269037   1.895   0.146   6.422  1.0092  0.5530 -0.0845
15849TIP3    H169038   1.886   0.053   6.439  1.4831  0.4420 -0.4182
15849TIP3    H269039   1.825   0.187   6.474  1.1159  0.0578  0.4606
15850TIP3   OH269040   3.255   6.189  16.109 -0.0553  0.5028  0.0281
15850TIP3    H169041   3.160   6.198  16.102 -0.1707 -0.6538 -0.1300
15850TIP3    H269042   3.268   6.101  16.144  0.9921 -0.1971 -1.9482
15851TIP3   OH269043   4.286   1.734  14.271 -0.0123 -0.4584 -0.4529
15851TIP3    H169044   4.325   1.822  14.276  0.8685 -0.9085  1.3311
15851TIP3    H269045   4.202   1.748  14.228  0.0845  1.2928 -0.1493
15852TIP3   OH269046   0.175   5.688   0.792  0.3386 -0.6569 -0.0077
15852TIP3    H169047   0.228   5.698   0.713 -1.6444  0.5069 -1.2866
15852TIP3    H269048   0.188   5.597   0.819  2.3964 -0.5889 -0.6381
15853TIP3   OH269049   2.989   4.219   1.141 -0.2771 -0.3797 -0.1826
15853TIP3    H169050   3.032   4.292   1.186 -1.5193 -0.3638  1.0315
15853TIP3    H269051   2.985   4.247   1.050 -1.9116  1.7152  0.4562
15854TIP3   OH269052   4.978   0.276  12.585 -0.0396 -0.3993  0.6774
15854TIP3    H169053   4.922   0.351  12.568 -0.7018 -0.9569  0.3498
15854TIP3    H269054   4.918   0.205  12.607  0.6705 -0.1378  3.9478
15855TIP3   OH269055   1.831   0.130   2.785  0.0291 -0.5131 -0.1916
15855TIP3    H169056   1.806   0.102   2.873 -0.5292  0.6011  0.0186
15855TIP3    H269057   1.923   0.155   2.793 -0.0442 -0.3341  0.1011
15856TIP3   OH269058   4.221   6.076  15.797 -0.1113 -0.6144  0.2184
15856TIP3    H169059   4.291   6.019  15.830 -0.1083 -1.0560 -0.5211
15856TIP3    H269060   4.185   6.118  15.875  1.4738  0.2114  0.5677
15857TIP3   OH269061   6.041   5.153   4.524  0.1080 -0.3127  0.2715
15857TIP3    H169062   6.069   5.067   4.556  1.4356  0.1230  0.3409
15857TIP3    H269063   6.009   5.136   4.435  1.5706 -0.7153 -0.2119
15858TIP3   OH269064   3.474   3.563  11.532  0.0174  0.2949  0.1410
15858TIP3    H169065   3.507   3.496  11.591  0.6082 -0.9220 -1.4946
15858TIP3    H269066   3.513   3.541  11.447  0.9793  3.2331 -0.3006
15859TIP3   OH269067   3.610   4.391  16.531 -0.3038 -0.5988  0.7447
15859TIP3    H169068   3.672   4.367  16.600 -0.6715 -1.0882  0.9114
15859TIP3    H269069   3.643   4.346  16.453 -0.9737 -1.6494  1.0496
15860TIP3   OH269070   0.194   1.486  10.972 -0.1500  0.0358 -0.1617
15860TIP3    H169071   0.185   1.398  11.007  0.0836  0.2834  0.5451
15860TIP3    H269072   0.222   1.539  11.047 -2.8277  1.2587  0.0941
15861TIP3   OH269073   5.950   6.014   1.627  0.1346 -0.4231 -0.5612
15861TIP3    H169074   5.948   5.993   1.720  1.8299 -2.0360 -0.8271
15861TIP3    H269075   6.041   6.038   1.610 -0.1219 -0.2728 -1.8204
15862TIP3   OH269076   5.673   6.803   4.074  0.5891 -0.1271  0.3065
15862TIP3    H169077   5.649   6.719   4.114 -1.7434  0.7992  0.9762
15862TIP3    H269078   5.697   6.779   3.984  0.3716 -1.5596  0.5959
15863TIP3   OH269079   3.988   4.206  12.552 -0.4652 -0.2543 -0.0434
15863TIP3    H169080   3.916   4.239  12.605 -0.4123 -0.5294  0.1980
15863TIP3    H269081   4.054   4.179  12.615 -1.2529 -2.6169 -0.1387
15864TIP3   OH269082   3.387   6.147   5.173  0.2578  0.2668 -0.3275
15864TIP3    H169083   3.392   6.210   5.245  2.4950  2.0882 -1.9150
15864TIP3    H269084   3.471   6.100   5.177 -0.2093 -0.6406 -0.8573
15865TIP3   OH269085   6.325   5.414   2.549 -0.6508 -0.0652  0.1758
15865TIP3    H169086   6.244   5.453   2.518 -1.4463 -3.1285 -2.0307
15865TIP3    H269087   6.371   5.387   2.469  0.8536 -1.5437  1.4572
15866TIP3   OH269088   4.765   4.491   0.537  0.5206 -0.2693 -0.1080
15866TIP3    H169089   4.778   4.492   0.442  0.1252  1.6116 -0.1710
15866TIP3    H269090   4.849   4.462   0.571  0.7669 -0.6762 -1.0142
15867TIP3   OH269091   6.521   0.711  15.965 -0.3967 -0.6420 -0.9612
15867TIP3    H169092   6.615   0.726  15.957 -0.1266 -1.6403  0.1555
15867TIP3    H269093   6.481   0.779  15.910  0.9033  0.8958 -0.0735
15868TIP3   OH269094   5.055   6.407  14.620 -0.0495 -0.2413  0.1084
15868TIP3    H169095   5.086   6.324  14.584 -0.5666 -0.9882  1.3019
15868TIP3    H269096   4.977   6.428  14.569  0.3245 -0.2533 -0.4796
15869TIP3   OH269097   0.709   6.123   4.225 -0.1704 -0.3254 -0.9184
15869TIP3    H169098   0.677   6.060   4.160  0.4489 -1.1471 -0.4452
15869TIP3    H269099   0.804   6.109   4.227 -0.2181 -0.5670  0.4048
15870TIP3   OH269100   2.978   6.157   0.004  0.2014  0.0172  0.4861
15870TIP3    H169101   3.036   6.191  -0.064  0.8249 -1.5961  0.1621
15870TIP3    H269102   2.931   6.085  -0.038  0.9644 -1.3432  1.8520
15871TIP3   OH269103   4.485   5.657  12.194 -0.3473 -0.8307  0.6083
15871TIP3    H169104   4.456   5.741  12.227  0.6336 -0.2504  0.0414
15871TIP3    H269105   4.439   5.592  12.248 -1.6617  0.0461  0.5700
15872TIP3   OH269106   5.928   1.134  16.935 -0.1446 -0.7361  0.2904
15872TIP3    H169107   5.927   1.139  16.839 -0.0003 -0.2406  0.3090
15872TIP3    H269108   5.881   1.053  16.956 -3.2307  0.8330 -0.0786
15873TIP3   OH269109   6.377   2.526   0.239 -0.2378  0.6071 -0.2557
15873TIP3    H169110   6.288   2.509   0.208  0.1635  0.3575 -1.2910
15873TIP3    H269111   6.419   2.440   0.241 -0.6970  0.3711  2.4925
15874TIP3   OH269112   3.504   1.284  14.946 -0.0358 -0.0660 -0.0435
15874TIP3    H169113   3.593   1.271  14.977 -0.2224  0.3507  0.6799
15874TIP3    H269114   3.449   1.248  15.016 -0.4442 -0.0843 -0.3699
15875TIP3   OH269115   2.122   3.502  15.776 -0.2506  0.3554  0.0222
15875TIP3    H169116   2.075   3.584  15.797 -0.4056  0.4479 -0.6555
15875TIP3    H269117   2.123   3.454  15.859 -2.6106 -0.1824 -0.1722
15876TIP3   OH269118   6.262   0.941  11.284  0.2060 -0.2404 -0.1870
15876TIP3    H169119   6.183   0.996  11.278  1.2907  1.5202  0.7177
15876TIP3    H269120   6.334   1.004  11.293  1.5109 -1.8304  1.1665
15877TIP3   OH269121   5.480   2.883  11.334 -0.0756  0.1551  0.2383
15877TIP3    H169122   5.537   2.951  11.298 -0.0954 -0.3785 -0.8364
15877TIP3    H269123   5.397   2.893  11.287 -0.0779 -0.6150  0.0630
15878TIP3   OH269124   4.719   3.320  16.974 -0.4991  0.1793  0.4151
15878TIP3    H169125   4.748   3.340  16.885 -0.4408 -1.1853  0.1048
15878TIP3    H269126   4.625   3.336  16.972 -0.7236 -1.1001 -0.2864
15879TIP3   OH269127   3.033   2.466  13.213  0.2259  0.1060 -0.2709
15879TIP3    H169128   3.079   2.538  13.169 -2.7725  1.8566 -0.8723
15879TIP3    H269129   2.999   2.506  13.293 -0.3335 -1.0270  0.0667
15880TIP3   OH269130   4.670   0.968  15.649 -0.3172  0.3310 -0.6328
15880TIP3    H169131   4.632   0.883  15.669 -2.7544  1.5078  0.0455
15880TIP3    H269132   4.645   1.024  15.722 -0.3100  2.0938 -1.9142
15881TIP3   OH269133   0.262   2.336  15.803 -0.6773  0.1569  0.4768
15881TIP3    H169134   0.191   2.272  15.808  0.8583 -1.6516  0.0080
15881TIP3    H269135   0.335   2.295  15.849  0.3456  1.6023  0.2032
15882TIP3   OH269136   1.432   2.578  14.677  0.0931  0.0543 -0.0984
15882TIP3    H169137   1.415   2.646  14.611  0.2022  0.7932  0.6093
15882TIP3    H269138   1.463   2.503  14.627 -0.2976  0.4328 -0.9329
15883TIP3   OH269139   6.714   5.388  16.339  0.0526  0.5814 -0.4935
15883TIP3    H169140   6.789   5.339  16.372 -1.1152 -1.2496 -0.4086
15883TIP3    H269141   6.753   5.462  16.291  2.0038 -1.5054 -2.3901
15884TIP3   OH269142   2.813   1.601   5.538 -0.2561  0.5858  0.1312
15884TIP3    H169143   2.859   1.526   5.498 -0.0290  0.3305  0.8612
15884TIP3    H269144   2.728   1.601   5.495  0.1600  0.6251 -0.7220
15885TIP3   OH269145   0.704   2.089  16.079  0.3287 -0.0684  0.5627
15885TIP3    H169146   0.732   2.015  16.024 -1.4725 -0.4008  0.0206
15885TIP3    H269147   0.727   2.063  16.168  1.5609 -0.3740  0.1666
15886TIP3   OH269148   4.669   1.625   2.965  0.7045  0.2062 -0.1272
15886TIP3    H169149   4.743   1.651   3.021  0.6649 -1.4656  0.7401
15886TIP3    H269150   4.593   1.669   3.004  0.4629 -1.8749  1.9430
15887TIP3   OH269151   2.215   6.052   0.458  0.0655 -0.0514  0.1493
15887TIP3    H169152   2.276   6.016   0.522 -0.2640 -0.0876  0.4447
15887TIP3    H269153   2.201   6.142   0.486  1.2344  0.4607 -0.8431
15888TIP3   OH269154   4.067   3.231   5.555 -0.0843  0.6962  0.3480
15888TIP3    H169155   4.025   3.286   5.621  0.8432 -0.1012  1.6684
15888TIP3    H269156   4.160   3.232   5.578  0.0872 -0.6258 -0.1659
15889TIP3   OH269157   2.495   2.352  16.972 -0.1408 -0.0882  0.3765
15889TIP3    H169158   2.491   2.388  17.060 -1.9925 -1.1032  0.7421
15889TIP3    H269159   2.442   2.273  16.975 -1.1049  0.4035 -1.8958
15890TIP3   OH269160   3.381   3.986  11.552 -0.1460  0.2255  0.4842
15890TIP3    H169161   3.331   3.994  11.471  1.1185  1.9220 -0.1989
15890TIP3    H269162   3.446   3.918  11.533 -0.2396  0.1936  0.2758
15891TIP3   OH269163   5.261   1.766  12.960 -0.0529 -0.0427  0.1875
15891TIP3    H169164   5.261   1.710  12.883 -0.0573  1.7336 -1.1664
15891TIP3    H269165   5.198   1.835  12.939  1.2571  1.4582  1.0381
15892TIP3   OH269166   4.885   6.016   2.817  0.5223  0.3466 -0.0197
15892TIP3    H169167   4.930   5.964   2.751 -0.1615 -1.1732  0.6772
15892TIP3    H269168   4.843   5.952   2.874 -0.6613  1.6730  0.6598
15893TIP3   OH269169   1.097   4.112  11.177 -0.4196 -0.2076 -0.1353
15893TIP3    H169170   1.077   4.204  11.161 -0.3027  0.1414  1.5129
15893TIP3    H269171   1.140   4.083  11.097  1.2731  1.7042 -0.0201
15894TIP3   OH269172   6.299   2.287  11.556  0.5141  0.1660  0.2052
15894TIP3    H169173   6.362   2.296  11.627  1.1187  1.1068 -0.4354
15894TIP3    H269174   6.349   2.302  11.476 -0.2818 -0.2678 -0.3970
15895TIP3   OH269175   6.422   1.059   2.937 -0.2118  0.2902 -0.3627
15895TIP3    H169176   6.407   1.109   2.856  2.7786 -0.0231 -1.2142
15895TIP3    H269177   6.386   0.972   2.917 -1.3709  0.7858 -0.5406
15896TIP3   OH269178   6.374   5.118   5.172 -0.0798  0.0198  0.6916
15896TIP3    H169179   6.461   5.147   5.146 -0.5658  1.5150  0.6569
15896TIP3    H269180   6.376   5.023   5.160  1.0360  0.2012 -0.8749
15897TIP3   OH269181   1.206   4.450  14.297 -0.1553  0.1694  0.5244
15897TIP3    H169182   1.238   4.503  14.223 -1.6146 -0.6785 -0.7612
15897TIP3    H269183   1.284   4.438  14.352  0.4195  2.9270  0.4751
15898TIP3   OH269184   6.580   5.212  16.860  0.3876 -0.0436 -0.2726
15898TIP3    H169185   6.578   5.257  16.776 -0.0672  1.6054  0.5874
15898TIP3    H269186   6.504   5.154  16.858  0.6461 -0.3705 -1.1659
15899TIP3   OH269187   6.204   0.070   0.567 -0.1271  0.3652  0.1157
15899TIP3    H169188   6.180   0.117   0.488  1.5621  3.2276  1.1401
15899TIP3    H269189   6.192   0.133   0.638  0.3694 -1.4096  1.9160
15900TIP3   OH269190   3.871   5.545  14.796 -0.4461  0.6209  0.5006
15900TIP3    H169191   3.964   5.563  14.783 -0.0166 -0.5109  1.8436
15900TIP3    H269192   3.861   5.452  14.776 -0.9252  0.3096  2.0322
15901TIP3   OH269193   6.474   3.225  16.813  0.3350 -0.2844  0.1302
15901TIP3    H169194   6.394   3.209  16.864  0.2103 -0.1882 -0.0349
15901TIP3    H269195   6.530   3.277  16.871 -0.2769  0.8293 -0.2479
15902TIP3   OH269196   6.054   2.442  12.452  0.1150  0.1672 -0.6385
15902TIP3    H169197   6.061   2.355  12.414 -0.0827  0.1113 -0.5438
15902TIP3    H269198   6.021   2.428  12.541 -1.6663  0.4663 -1.2245
15903TIP3   OH269199   2.346   2.704   1.669 -0.2930 -0.2330 -0.0331
15903TIP3    H169200   2.256   2.674   1.668 -0.0395 -1.0511  0.8232
15903TIP3    H269201   2.346   2.781   1.612 -1.6640  0.1739  0.4814
15904TIP3   OH269202   3.303   4.546   0.986  0.6633 -0.5584  0.0968
15904TIP3    H169203   3.332   4.509   0.902 -0.6057  0.1905 -0.7212
15904TIP3    H269204   3.245   4.618   0.961  0.3560 -0.2354  1.6372
15905TIP3   OH269205   5.891   0.839  15.255  0.4799  0.3116 -0.0180
15905TIP3    H169206   5.982   0.852  15.281  0.8125  2.2980 -1.8985
15905TIP3    H269207   5.889   0.862  15.162 -1.7168 -0.9273 -0.3491
15906TIP3   OH269208   3.459   3.793   2.499  0.1317  0.2099 -0.0376
15906TIP3    H169209   3.513   3.869   2.476 -2.4852  2.0799 -0.3950
15906TIP3    H269210   3.464   3.736   2.423  0.6865  0.8857 -0.5253
15907TIP3   OH269211   3.018   2.515   1.397  0.1192  0.2322 -0.5707
15907TIP3    H169212   3.050   2.541   1.483 -1.4775 -1.8623  0.7452
15907TIP3    H269213   3.097   2.496   1.346  1.1281 -1.9121  1.5955
15908TIP3   OH269214   1.762   4.297   1.844  0.2946 -0.0107 -0.3025
15908TIP3    H169215   1.828   4.288   1.775  1.0393  0.5742  0.3251
15908TIP3    H269216   1.800   4.358   1.906 -0.3176 -0.6322  0.7069
15909TIP3   OH269217   4.350   5.832   1.976  0.1628  0.0958 -0.0033
15909TIP3    H169218   4.281   5.895   1.992  1.2077  0.5820  3.2292
15909TIP3    H269219   4.322   5.753   2.022 -0.5633 -1.5426 -3.0014
15910TIP3   OH269220   4.536   3.540   0.934  0.2229 -0.4317 -0.0655
15910TIP3    H169221   4.516   3.599   0.862  2.0046  0.4528  0.1090
15910TIP3    H269222   4.520   3.593   1.013 -1.2053 -1.2235  0.2153
15911TIP3   OH269223   6.214   6.201  14.629  0.3415  0.3988 -0.3155
15911TIP3    H169224   6.148   6.224  14.563  1.7492  1.4786 -1.4013
15911TIP3    H269225   6.170   6.136  14.684 -2.4364  2.6845  0.4043
15912TIP3   OH269226   5.851   1.653  16.491 -0.0607 -0.0595  0.1725
15912TIP3    H169227   5.938   1.634  16.525  1.2931  3.0542 -1.1722
15912TIP3    H269228   5.829   1.738  16.527 -3.0701 -1.1487  1.2352
15913TIP3   OH269229   1.572   3.232  16.379  0.0563  0.2172  0.1916
15913TIP3    H169230   1.505   3.280  16.330  1.0453 -0.6389 -2.1931
15913TIP3    H269231   1.635   3.300  16.405  0.7107  0.5089 -1.9030
15914TIP3   OH269232   6.652   6.667  12.708 -0.0611 -0.2170  0.4965
15914TIP3    H169233   6.743   6.689  12.730  0.7876 -1.8340 -1.0972
15914TIP3    H269234   6.613   6.642  12.791  0.1699  2.8602  1.6351
15915TIP3   OH269235   1.214   0.448  10.883 -0.1517  0.4455 -0.2179
15915TIP3    H169236   1.278   0.494  10.937 -0.0549 -1.2270  1.1719
15915TIP3    H269237   1.192   0.370  10.933 -2.6329  0.5083 -1.0597
15916TIP3   OH269238   5.115   6.107  14.850 -0.0766  0.6061 -0.1272
15916TIP3    H169239   5.180   6.169  14.818  0.3967  1.0506  1.5964
15916TIP3    H269240   5.071   6.075  14.771  0.9900  1.6639 -1.1845
15917TIP3   OH269241   6.511   1.783   0.193  0.1846 -0.5884  1.0084
15917TIP3    H169242   6.602   1.814   0.198 -0.1750  0.6076  0.6234
15917TIP3    H269243   6.509   1.705   0.248  1.1512  0.0887  2.0564
15918TIP3   OH269244   5.300   2.396   0.294  0.0286 -0.3501 -0.0574
15918TIP3    H169245   5.334   2.306   0.286 -0.1005 -0.3187 -1.0631
15918TIP3    H269246   5.206   2.387   0.281 -0.3194 -0.3621  2.1725
15919TIP3   OH269247   4.629   0.458  14.819 -0.0739  0.2026 -0.0333
15919TIP3    H169248   4.644   0.387  14.757 -1.4004  0.6795 -0.9515
15919TIP3    H269249   4.594   0.416  14.897  1.2344 -0.3599  0.2878
15920TIP3   OH269250   6.221   0.520  16.270 -0.4323  0.0655  0.2453
15920TIP3    H169251   6.299   0.481  16.233 -1.7272 -2.0196 -0.4650
15920TIP3    H269252   6.239   0.614  16.271  1.8693 -0.3212 -0.3064
15921TIP3   OH269253   4.976   2.958   3.587 -0.1346  0.2407  0.3154
15921TIP3    H169254   4.882   2.972   3.571 -0.7527  0.1849  3.3306
15921TIP3    H269255   5.015   3.045   3.575 -0.5656  0.3019 -0.7927
15922TIP3   OH269256   2.837   0.955   5.221 -0.6638  0.3205 -0.2634
15922TIP3    H169257   2.858   0.879   5.276 -3.4526 -0.5654 -0.2593
15922TIP3    H269258   2.872   0.933   5.135 -1.6613 -1.1826 -0.3319
15923TIP3   OH269259   3.566   1.763  15.694  0.0084 -0.3702  0.4370
15923TIP3    H169260   3.604   1.799  15.774 -0.7029  0.9106  0.2290
15923TIP3    H269261   3.562   1.669  15.709  2.3955 -0.4694  0.8157
15924TIP3   OH269262   0.877   1.026  11.498  0.0065 -0.2465  0.1362
15924TIP3    H169263   0.919   1.107  11.527 -0.8945  0.1611  0.3066
15924TIP3    H269264   0.858   1.041  11.406 -0.1847 -0.2483  0.1750
15925TIP3   OH269265   5.940   2.916  14.509  0.6698  0.0234 -0.3337
15925TIP3    H169266   5.864   2.940  14.456 -0.1998 -1.9266 -0.0521
15925TIP3    H269267   6.006   2.982  14.487 -1.0432  1.7443 -0.6434
15926TIP3   OH269268   3.764   5.887   2.274 -0.1806 -0.4014  0.2391
15926TIP3    H169269   3.773   5.954   2.206 -0.1011  0.0945  0.7352
15926TIP3    H269270   3.676   5.851   2.261 -0.1309 -0.3717 -0.1791
15927TIP3   OH269271   1.584   0.142  17.026  0.7133  0.4310 -0.2444
15927TIP3    H169272   1.587   0.085  16.949  0.6611  0.8476 -0.5555
15927TIP3    H269273   1.620   0.088  17.097  0.3211 -0.1148 -0.4542
15928TIP3   OH269274   4.180   5.447  17.100 -0.3830  0.2842 -0.5825
15928TIP3    H169275   4.193   5.533  17.061  0.1497 -0.2837 -1.6868
15928TIP3    H269276   4.136   5.396  17.032  0.1885 -0.5974 -0.3073
15929TIP3   OH269277   5.760   6.056   1.213  0.3841 -0.9484 -0.2239
15929TIP3    H169278   5.792   6.067   1.124  0.3058  0.5250 -0.0927
15929TIP3    H269279   5.709   5.975   1.211  0.5806 -1.0557 -1.4542
15930TIP3   OH269280   6.058   6.660   0.700  0.6210  0.0401 -0.0306
15930TIP3    H169281   6.014   6.734   0.741 -0.9190  0.7792 -2.7525
15930TIP3    H269282   6.137   6.697   0.661 -0.1533  0.3159 -1.4002
15931TIP3   OH269283   6.240   3.973   3.573 -0.1811 -0.1928  0.2880
15931TIP3    H169284   6.301   4.042   3.545 -1.1375  0.4539 -0.2888
15931TIP3    H269285   6.160   3.992   3.524 -1.7856  0.6759  3.0181
15932TIP3   OH269286   5.902   1.001   0.348 -0.2845 -0.5878  0.1954
15932TIP3    H169287   5.928   0.921   0.303  1.2517 -0.4797  0.8446
15932TIP3    H269288   5.972   1.017   0.411  0.4304  2.2359 -1.1537
15933TIP3   OH269289   6.184   4.805   4.011  0.2121  0.3240 -0.3250
15933TIP3    H169290   6.136   4.887   4.002 -0.8798 -0.3627 -1.0145
15933TIP3    H269291   6.182   4.787   4.105  0.9809  1.3645 -0.0897
15934TIP3   OH269292   0.870   0.698   2.628  0.0975 -0.4820  0.4379
15934TIP3    H169293   0.784   0.735   2.645 -0.0359  0.2919 -1.6142
15934TIP3    H269294   0.929   0.749   2.684 -0.5603  0.1997  0.5258
15935TIP3   OH269295   2.800   1.005  11.522  0.0485 -0.1268  0.4056
15935TIP3    H169296   2.716   1.044  11.496  0.8439  0.7442 -0.9241
15935TIP3    H269297   2.787   0.911  11.510 -0.8939 -0.0428  0.6784
15936TIP3   OH269298   0.117   0.395   5.879 -0.5609  0.0840 -0.1836
15936TIP3    H169299   0.091   0.390   5.971  0.5028  2.1251  0.2864
15936TIP3    H269300   0.044   0.440   5.836 -0.5598  0.1551 -0.1109
15937TIP3   OH269301   1.723   2.407  14.086 -0.8357 -0.1765  0.2285
15937TIP3    H169302   1.702   2.500  14.088 -0.3324 -0.0463 -0.2393
15937TIP3    H269303   1.771   2.395  14.004 -0.2904 -0.7087  0.6125
15938TIP3   OH269304   4.350   6.307   3.078 -0.4395  0.3810 -0.5183
15938TIP3    H169305   4.393   6.224   3.059 -0.8999  0.0210 -0.0314
15938TIP3    H269306   4.265   6.301   3.034 -1.1061 -0.0548  0.7789
15939TIP3   OH269307   2.605   2.298  12.318  0.1986 -0.1945 -0.0731
15939TIP3    H169308   2.663   2.296  12.395  2.4570  1.6054 -1.6102
15939TIP3    H269309   2.664   2.285  12.244 -2.1522 -4.1109 -1.5653
15940TIP3   OH269310   5.690   5.421  11.507  0.2522  0.2240 -0.1275
15940TIP3    H169311   5.758   5.478  11.472 -0.9200  1.6198 -0.2205
15940TIP3    H269312   5.608   5.464  11.482 -0.6759 -1.5414 -0.2465
15941TIP3   OH269313   3.796   1.767   1.206  0.2520 -0.2872 -0.7872
15941TIP3    H169314   3.819   1.699   1.143 -0.5529 -1.1117 -0.2134
15941TIP3    H269315   3.708   1.795   1.181  0.0270 -0.4426 -0.1934
15942TIP3   OH269316   2.879   3.766  13.124 -0.4983  0.2064  0.3413
15942TIP3    H169317   2.810   3.815  13.079 -0.2244 -0.1025 -0.4512
15942TIP3    H269318   2.949   3.830  13.138  0.0086 -0.0134 -1.0211
15943TIP3   OH269319   2.409   4.099  14.134 -0.3689 -0.2048 -0.2723
15943TIP3    H169320   2.434   4.097  14.041 -0.2130 -1.6383 -0.2237
15943TIP3    H269321   2.390   4.191  14.152  0.5374  0.2408 -1.4747
15944TIP3   OH269322   4.722   2.360   5.268  0.4844 -0.3351  0.1669
15944TIP3    H169323   4.715   2.451   5.239 -3.2409 -1.2147 -2.4477
15944TIP3    H269324   4.661   2.353   5.341 -2.1715 -1.2917 -1.9455
15945TIP3   OH269325   2.496   4.380  13.683  0.1613 -0.1208 -0.1970
15945TIP3    H169326   2.426   4.324  13.651 -1.0649  1.1847  0.1377
15945TIP3    H269327   2.563   4.319  13.714 -0.5182 -1.3860 -1.1501
15946TIP3   OH269328   1.566   2.661   6.097 -0.2071  0.0695  0.4418
15946TIP3    H169329   1.645   2.699   6.135  1.0914 -0.0366 -1.9309
15946TIP3    H269330   1.501   2.731   6.102  0.0052  0.1692  2.4152
15947TIP3   OH269331   0.150   5.610  14.223  0.0689 -0.4483 -0.0661
15947TIP3    H169332   0.197   5.655  14.153  0.9582 -0.7964  0.2993
15947TIP3    H269333   0.213   5.605  14.294 -0.5301 -0.9234  0.4346
15948TIP3   OH269334   4.119   0.667  17.046  0.4660  0.3010 -0.1580
15948TIP3    H169335   4.200   0.712  17.025  0.1987 -0.2495 -2.6158
15948TIP3    H269336   4.147   0.584  17.086  1.1034  0.3240 -0.5588
15949TIP3   OH269337   1.637   4.994   1.712 -0.5075 -0.2041 -0.0026
15949TIP3    H169338   1.704   4.951   1.765  1.1530  3.0910  0.9130
15949TIP3    H269339   1.668   4.987   1.622  2.6853  3.2516  0.5505
15950TIP3   OH269340   6.581   6.639  13.222 -0.3151 -0.0258  0.1330
15950TIP3    H169341   6.617   6.723  13.249 -0.5638 -0.1140  0.7613
15950TIP3    H269342   6.540   6.604  13.302  0.8976 -1.3363  0.2261
15951TIP3   OH269343   5.791   5.923  12.134  0.6202  0.3967  0.7947
15951TIP3    H169344   5.769   5.897  12.045  1.5945 -0.1892  0.7030
15951TIP3    H269345   5.818   5.841  12.177 -2.0854  0.2093  2.3665
15952TIP3   OH269346   0.060   3.463  12.888 -0.1511  0.1863  0.3713
15952TIP3    H169347   0.106   3.496  12.965 -0.9716  1.4924  0.3179
15952TIP3    H269348  -0.026   3.503  12.891 -1.9950 -3.4280  1.3500
15953TIP3   OH269349   6.198   3.279  11.491  0.2223 -0.1684 -0.1700
15953TIP3    H169350   6.204   3.275  11.587  0.7245  1.0258 -0.1266
15953TIP3    H269351   6.253   3.354  11.467 -1.1515  0.5387 -1.2655
15954TIP3   OH269352   0.561   1.316  13.625 -0.0062  0.3603  0.1113
15954TIP3    H169353   0.520   1.263  13.693  2.0189  0.3739  1.4205
15954TIP3    H269354   0.615   1.255  13.575  0.7046  0.8352  0.2946
15955TIP3   OH269355   4.758   6.685   3.758 -0.2238  0.0860 -0.0500
15955TIP3    H169356   4.678   6.646   3.723 -0.0888 -0.6514  0.4520
15955TIP3    H269357   4.775   6.760   3.701 -1.7626  0.7839  0.3792
15956TIP3   OH269358   4.871   3.619   1.295  0.0749  0.5676 -0.0207
15956TIP3    H169359   4.892   3.656   1.209 -0.9165 -0.0991 -0.5808
15956TIP3    H269360   4.927   3.666   1.356  1.7913  0.1420 -1.1799
15957TIP3   OH269361   1.766   6.395  14.742  0.7234 -0.0447 -0.6057
15957TIP3    H169362   1.672   6.411  14.753  0.2015 -2.4297 -1.1033
15957TIP3    H269363   1.803   6.482  14.725 -1.2222  1.0842  0.5658
15958TIP3   OH269364   1.314   0.070  14.757 -0.3168 -0.1223  0.0551
15958TIP3    H169365   1.321   0.038  14.667  1.6298 -2.4347  0.9312
15958TIP3    H269366   1.228   0.040  14.786 -0.4066 -0.5382 -0.6126
15959TIP3   OH269367   6.196   1.730   3.938  0.2232  0.5053 -0.6369
15959TIP3    H169368   6.168   1.716   4.028  0.2467 -0.6560 -0.7897
15959TIP3    H269369   6.275   1.782   3.944  0.5387 -0.0428  0.0531
15960TIP3   OH269370   0.080   5.962  15.266  0.4653 -0.0979  0.1045
15960TIP3    H169371  -0.006   5.985  15.301  1.2324 -0.5732  2.4872
15960TIP3    H269372   0.107   6.039  15.216  0.0910  1.5105  2.2084
15961TIP3   OH269373   3.764   5.589   3.089 -0.4815  0.3792 -0.3355
15961TIP3    H169374   3.847   5.548   3.066 -0.3851  0.6802 -0.5442
15961TIP3    H269375   3.716   5.594   3.006 -1.6597 -1.8358  0.1238
15962TIP3   OH269376   4.074   4.895   1.732  0.0566 -0.8208 -0.1403
15962TIP3    H169377   4.025   4.977   1.729 -0.3906 -0.9816  1.4967
15962TIP3    H269378   4.166   4.922   1.732 -0.0453 -0.0812  2.7598
15963TIP3   OH269379   2.130   6.242   1.783  0.1860 -0.3461  0.4680
15963TIP3    H169380   2.065   6.311   1.797  1.7247  1.3202 -0.2155
15963TIP3    H269381   2.084   6.176   1.732 -1.5402 -0.2008  1.7436
15964TIP3   OH269382   0.567   4.558   1.471 -0.4754  0.3212 -0.0442
15964TIP3    H169383   0.528   4.481   1.428 -0.7542  0.0127  0.7550
15964TIP3    H269384   0.511   4.631   1.444  0.9327  0.6213 -2.4470
15965TIP3   OH269385   1.464   3.139  16.716  0.1820  0.3421 -0.2769
15965TIP3    H169386   1.545   3.109  16.675 -0.7915 -2.3254 -0.4008
15965TIP3    H269387   1.395   3.098  16.665 -1.3115  2.4587 -0.0898
15966TIP3   OH269388   4.430   3.004   0.867  0.0411 -0.2415  0.0320
15966TIP3    H169389   4.341   2.969   0.863 -0.2039  0.3852  0.0317
15966TIP3    H269390   4.485   2.927   0.884 -0.6038 -0.4890  1.0836
15967TIP3   OH269391   6.265   6.475  17.264  0.2765  0.0926  0.1465
15967TIP3    H169392   6.345   6.448  17.220  1.3812 -2.8420  3.5722
15967TIP3    H269393   6.198   6.414  17.232  0.6961 -0.9631  1.2438
15968TIP3   OH269394   1.595   5.876   6.681  0.0951 -0.0683  0.3138
15968TIP3    H169395   1.534   5.860   6.610 -0.9429 -0.1385  1.1976
15968TIP3    H269396   1.547   5.852   6.760  1.8933 -2.0340  0.9259
15969TIP3   OH269397   2.471   3.901  13.535  0.1165  0.2555 -0.4099
15969TIP3    H169398   2.409   3.830  13.553  1.5912 -0.8969  0.4409
15969TIP3    H269399   2.416   3.977  13.515 -1.5574 -0.6120  0.6420
15970TIP3   OH269400   0.941   0.709   0.472 -0.6052  0.3241 -0.9315
15970TIP3    H169401   0.979   0.695   0.385 -0.3930  0.4067 -0.8514
15970TIP3    H269402   0.993   0.654   0.530  1.7228  3.0446 -0.2348
15971TIP3   OH269403   1.583   5.483  15.528  0.3287 -0.4023 -0.4060
15971TIP3    H169404   1.565   5.495  15.621 -0.9404  1.1405 -0.8054
15971TIP3    H269405   1.620   5.566  15.500 -0.7848 -0.2815 -1.5965
15972TIP3   OH269406   0.519   4.254   3.775 -0.5025  0.7401 -0.6053
15972TIP3    H169407   0.606   4.260   3.736 -0.3635 -0.7196 -0.5857
15972TIP3    H269408   0.494   4.162   3.763 -1.1699  0.6492  1.2521
15973TIP3   OH269409   3.937   6.510  15.911  0.3719 -0.0206 -0.7444
15973TIP3    H169410   3.913   6.558  15.990  0.4502 -1.7418  0.3914
15973TIP3    H269411   3.853   6.480  15.876  0.4268 -0.6312 -0.3739
15974TIP3   OH269412   3.396   0.584   2.763  0.5648 -0.5781  0.1182
15974TIP3    H169413   3.394   0.661   2.820 -1.5155 -0.8116  0.4395
15974TIP3    H269414   3.311   0.584   2.720  2.1609 -0.1204 -3.4913
15975TIP3   OH269415   6.611   0.455  11.235  0.5215  0.1094 -0.0811
15975TIP3    H169416   6.579   0.443  11.146  0.4241  1.0313 -0.1843
15975TIP3    H269417   6.545   0.411  11.290  1.9568 -2.8804 -0.5567
15976TIP3   OH269418   5.759   5.823  11.871 -0.3892  0.6875 -0.1981
15976TIP3    H169419   5.697   5.830  11.798 -1.0106 -1.2326  0.0888
15976TIP3    H269420   5.742   5.737  11.908  1.8815  0.4758  0.4562
15977TIP3   OH269421   2.989   5.011   0.756 -0.4876  0.2479  0.2255
15977TIP3    H169422   3.059   4.953   0.725 -2.5454 -2.3162  0.0856
15977TIP3    H269423   2.964   5.062   0.679  1.0483  1.1162  0.2428
15978TIP3   OH269424   3.142   6.484  14.708  0.3196 -0.7278  0.0958
15978TIP3    H169425   3.055   6.497  14.745  0.1958  0.1748 -0.4668
15978TIP3    H269426   3.176   6.572  14.695  0.7586 -1.0339 -0.9751
15979TIP3   OH269427   6.576   0.728   4.975 -0.1433  0.0309 -0.2905
15979TIP3    H169428   6.528   0.653   5.009  0.5037 -0.5895 -0.7166
15979TIP3    H269429   6.658   0.728   5.024  0.7023 -0.7349 -1.6468
15980TIP3   OH269430   0.062   5.471  13.089  0.5740 -0.0524  0.3994
15980TIP3    H169431   0.012   5.395  13.060  1.8345 -0.5563 -0.5664
15980TIP3    H269432   0.139   5.434  13.133  0.4394  0.6869  1.2864
15981TIP3   OH269433   4.587   1.236   5.052  0.2748 -0.0544  0.9298
15981TIP3    H169434   4.513   1.178   5.070 -1.0077  0.4530 -2.0400
15981TIP3    H269435   4.665   1.184   5.074 -0.8389 -2.6188 -0.6922
15982TIP3   OH269436   0.831   5.533  15.518 -0.1150 -0.0901 -0.4909
15982TIP3    H169437   0.840   5.438  15.514  0.2204 -0.2532  2.1776
15982TIP3    H269438   0.771   5.555  15.447 -0.0919 -2.2684 -1.2395
15983TIP3   OH269439   0.096   3.678  16.663  0.7256  0.1909  0.1725
15983TIP3    H169440   0.154   3.626  16.607  1.0016  1.8980 -1.1719
15983TIP3    H269441   0.009   3.664  16.627  0.7028  0.1033  0.2612
15984TIP3   OH269442   3.549   2.788  11.626 -0.0445  0.8564 -0.0352
15984TIP3    H169443   3.512   2.809  11.540  1.0672 -0.7280 -0.9445
15984TIP3    H269444   3.553   2.692  11.628  1.4111  0.9062  1.1520
15985TIP3   OH269445   5.415   1.082   6.415  0.2170  0.3512  0.2337
15985TIP3    H169446   5.504   1.070   6.384 -0.7316 -2.9570 -1.6860
15985TIP3    H269447   5.402   1.013   6.480 -1.5357 -0.5875 -1.0496
15986TIP3   OH269448   1.630   2.709  13.144  0.1866 -0.1510  0.0415
15986TIP3    H169449   1.586   2.630  13.113  1.3444 -0.3814 -1.1141
15986TIP3    H269450   1.679   2.740  13.068  0.5720  1.1004  0.7775
15987TIP3   OH269451   0.941   1.182   1.670 -0.6236  0.2023 -0.3912
15987TIP3    H169452   0.859   1.173   1.720 -0.7932  1.4509 -0.4114
15987TIP3    H269453   1.005   1.212   1.735 -0.4845  0.4074 -0.6218
15988TIP3   OH269454   1.586   0.344  12.756 -0.3258 -0.1595  0.0447
15988TIP3    H169455   1.658   0.281  12.757 -0.4371 -0.2896 -0.0600
15988TIP3    H269456   1.560   0.349  12.664 -0.0583  0.3380 -0.0105
15989TIP3   OH269457   0.386   4.464  15.478  0.0174 -0.1618  0.6873
15989TIP3    H169458   0.391   4.431  15.568 -2.2033  2.5049  1.9226
15989TIP3    H269459   0.325   4.405  15.434 -0.6889 -0.1629  1.6336
15990TIP3   OH269460   2.413   5.623  12.079 -0.6423  0.0821  0.1112
15990TIP3    H169461   2.323   5.654  12.094 -0.6975 -0.1782  0.3157
15990TIP3    H269462   2.409   5.529  12.095 -0.3385  0.0646  0.0818
15991TIP3   OH269463   1.249   0.527   0.082 -0.4403 -0.3449 -0.3030
15991TIP3    H169464   1.253   0.562  -0.007  0.8307 -1.3736 -0.6847
15991TIP3    H269465   1.268   0.433   0.071 -2.7765 -1.0009  0.7761
15992TIP3   OH269466   4.699   4.609   2.282  0.0911  0.3390  0.4286
15992TIP3    H169467   4.692   4.598   2.187  0.2822  2.9715  0.0245
15992TIP3    H269468   4.708   4.520   2.316 -0.3308 -0.7082 -1.9742
15993TIP3   OH269469   4.535   5.218   3.084  0.0520  0.1745  0.2301
15993TIP3    H169470   4.600   5.202   3.152 -0.8079  0.4897  1.1450
15993TIP3    H269471   4.587   5.241   3.006  1.0211  1.0194  1.0965
15994TIP3   OH269472   5.800   6.555  13.405 -0.0577  0.2571  0.0868
15994TIP3    H169473   5.794   6.651  13.408 -0.4116  0.2409 -0.0002
15994TIP3    H269474   5.815   6.535  13.312 -1.9522  0.1429 -0.2478
15995TIP3   OH269475   4.567   2.337   5.493  0.2774  0.9748 -0.4606
15995TIP3    H169476   4.568   2.247   5.526 -0.1868  0.4107 -1.8844
15995TIP3    H269477   4.559   2.391   5.571 -2.8841 -0.3624  0.3263
15996TIP3   OH269478   6.626   4.862  13.199 -0.5038 -0.0366 -0.2292
15996TIP3    H169479   6.656   4.786  13.147  0.0957 -0.2863  0.4615
15996TIP3    H269480   6.594   4.824  13.280  0.1080  0.4654  0.2618
15997TIP3   OH269481   5.519   4.646  16.278 -0.2776 -0.6337 -0.1217
15997TIP3    H169482   5.539   4.615  16.367 -0.4417  3.5961  1.6133
15997TIP3    H269483   5.599   4.689  16.249  0.4029 -3.4278 -2.9790
15998TIP3   OH269484   1.522   4.863   4.718 -0.3498  0.7347  0.1378
15998TIP3    H169485   1.538   4.769   4.713 -1.7398  0.4771 -0.0781
15998TIP3    H269486   1.590   4.902   4.664 -0.8356 -0.2972 -1.2859
15999TIP3   OH269487   3.105   1.878   3.764  0.0746  0.0548 -0.2935
15999TIP3    H169488   3.180   1.897   3.821 -0.1273 -0.3205  0.1130
15999TIP3    H269489   3.121   1.789   3.734  0.3472  0.3739 -1.1016
16000TIP3   OH269490   2.420   0.191   1.222  0.3157  0.0518 -1.1915
16000TIP3    H169491   2.495   0.239   1.187  1.1818  0.2977  0.8330
16000TIP3    H269492   2.445   0.099   1.215  1.2889  0.1558  0.3285
16001TIP3   OH269493   5.946   4.490  14.045 -0.5717 -0.2564  0.0185
16001TIP3    H169494   5.975   4.576  14.077  1.5125 -0.5890 -0.7923
16001TIP3    H269495   6.016   4.463  13.985 -1.9532 -1.8323 -0.9491
16002TIP3   OH269496   4.050   2.657  16.668 -0.3323 -0.5586  0.4242
16002TIP3    H169497   3.972   2.705  16.641 -0.8941 -0.0558  2.7292
16002TIP3    H269498   4.018   2.571  16.693  0.1897 -1.0436 -0.4971
16003TIP3   OH269499   5.561   6.195  14.456  0.5229 -0.7971  0.2739
16003TIP3    H169500   5.564   6.155  14.369  2.0256  0.4701 -0.2984
16003TIP3    H269501   5.515   6.277  14.444  1.1327 -0.4018  0.5607
16004TIP3   OH269502   6.096   2.416   0.869 -0.2624  0.0055  0.0072
16004TIP3    H169503   6.075   2.395   0.778 -1.1230 -0.2429  0.2578
16004TIP3    H269504   6.043   2.494   0.887  0.0727  0.1802  0.2328
16005TIP3   OH269505   1.220   3.177   0.748  0.2736  0.4265 -0.3626
16005TIP3    H169506   1.128   3.175   0.722  0.9855  2.8174 -3.6183
16005TIP3    H269507   1.248   3.086   0.743 -2.2451 -0.7540  2.7934
16006TIP3   OH269508   1.855   4.319  10.999  0.4136 -0.3927 -0.7662
16006TIP3    H169509   1.937   4.297  11.043  0.2045  1.6304  0.7646
16006TIP3    H269510   1.882   4.378  10.928  0.2768  0.8539  0.1790
16007TIP3   OH269511   1.470   6.214   3.671 -0.2634 -0.8053 -0.6508
16007TIP3    H169512   1.546   6.208   3.613  0.4410 -1.3744  0.2919
16007TIP3    H269513   1.495   6.278   3.738 -0.1974 -1.6936  0.2151
16008TIP3   OH269514   2.189   1.242  11.308  0.0045 -0.0764 -0.1058
16008TIP3    H169515   2.121   1.206  11.252 -1.4675  0.6347  1.1515
16008TIP3    H269516   2.213   1.325  11.268  1.6562 -1.2299 -1.6670
16009TIP3   OH269517   4.711   0.823   1.458  1.1444  0.0158 -0.0652
16009TIP3    H169518   4.623   0.860   1.467  1.2200 -0.0770  1.2240
16009TIP3    H269519   4.770   0.890   1.493  1.6483  0.2498 -1.2950
16010TIP3   OH269520   3.237   6.582   4.508 -0.1634 -0.1769  0.1713
16010TIP3    H169521   3.269   6.535   4.585  0.5937  0.0879  0.0272
16010TIP3    H269522   3.174   6.522   4.468  1.1800 -1.3341 -0.3155
16011TIP3   OH269523   1.220   0.457  13.619 -0.3000 -0.1555  0.1802
16011TIP3    H169524   1.164   0.508  13.561 -1.2636 -1.6887 -0.2677
16011TIP3    H269525   1.309   0.481  13.592 -0.5856  3.1537  1.6379
16012TIP3   OH269526   3.547   3.264  15.467  0.5983 -0.6467  0.0785
16012TIP3    H169527   3.558   3.359  15.478 -0.3710 -0.5142  0.0349
16012TIP3    H269528   3.456   3.255  15.437 -0.1330 -1.7621  2.4352
16013TIP3   OH269529   3.875   3.684   3.791  0.1036 -0.4799  0.1450
16013TIP3    H169530   3.811   3.674   3.720  0.5535  0.4264 -0.3992
16013TIP3    H269531   3.959   3.691   3.747  0.2673  1.3849  0.6620
16014TIP3   OH269532   4.404   3.691  12.516 -0.1359  0.2147 -0.6618
16014TIP3    H169533   4.397   3.602  12.482  0.3085  0.7256 -2.1528
16014TIP3    H269534   4.319   3.731  12.498  0.1103  0.4952 -1.2501
16015TIP3   OH269535   6.044   1.195   0.716  0.3759 -0.1715  0.1721
16015TIP3    H169536   6.028   1.269   0.774  0.7338 -0.3723  0.5321
16015TIP3    H269537   6.138   1.200   0.696  0.4779 -0.7460  0.4995
16016TIP3   OH269538   6.577   3.234   4.452  0.2285  0.4511  0.4508
16016TIP3    H169539   6.557   3.315   4.406  0.9593  1.1276  1.2875
16016TIP3    H269540   6.653   3.198   4.406  1.1814  1.3075  1.2904
16017TIP3   OH269541   2.138   2.415   5.726 -0.0179  0.3473 -0.1083
16017TIP3    H169542   2.182   2.336   5.694 -1.2703  0.2110 -1.6100
16017TIP3    H269543   2.128   2.401   5.820  1.1601 -0.5732 -0.1001
16018TIP3   OH269544   4.802   1.779   5.764  0.2217  0.1084 -0.5912
16018TIP3    H169545   4.846   1.840   5.704  0.6753 -1.5573 -2.0320
16018TIP3    H269546   4.868   1.756   5.829 -0.2200  1.7866  0.5186
16019TIP3   OH269547   4.299   0.319  12.880  0.3077 -0.2412 -0.1983
16019TIP3    H169548   4.318   0.266  12.803  1.0265  0.5433 -0.5720
16019TIP3    H269549   4.307   0.258  12.954 -0.6614 -1.0607 -0.7424
16020TIP3   OH269550   0.630   4.607   0.700 -0.2748 -0.1233  0.3629
16020TIP3    H169551   0.650   4.516   0.676 -1.1701 -0.0306 -0.8223
16020TIP3    H269552   0.621   4.652   0.616  1.0529  1.2944  0.9427
16021TIP3   OH269553   5.566   5.412   1.127 -0.1108 -0.3324 -0.4323
16021TIP3    H169554   5.603   5.458   1.052 -0.4581 -0.5042 -0.7164
16021TIP3    H269555   5.501   5.472   1.162  0.5064  0.0139  0.1319
16022TIP3   OH269556   6.213   1.532  16.059 -0.5611 -0.1957 -0.1446
16022TIP3    H169557   6.235   1.542  15.967 -2.1128 -0.0156 -0.5233
16022TIP3    H269558   6.216   1.438  16.075  0.2972 -0.1826 -0.2201
16023TIP3   OH269559   3.481   1.474  16.541  0.3670 -0.1064 -0.0118
16023TIP3    H169560   3.555   1.418  16.567 -0.3045 -0.0370  2.2131
16023TIP3    H269561   3.409   1.412  16.525  0.1661 -0.0103  0.5114
16024TIP3   OH269562   0.235   2.447   5.516  0.4137 -0.3250 -0.2799
16024TIP3    H169563   0.160   2.388   5.511  0.8640 -0.9114 -0.2838
16024TIP3    H269564   0.304   2.394   5.555  1.1936 -0.1848 -1.4242
16025TIP3   OH269565   0.055   5.159  15.902 -0.6586  0.2035  0.5218
16025TIP3    H169566  -0.026   5.209  15.907  0.4403  2.1397 -0.2029
16025TIP3    H269567   0.075   5.136  15.993 -2.0891 -0.4908  0.6935
16026TIP3   OH269568   2.641   2.681   3.617  0.2769  0.1209  0.4037
16026TIP3    H169569   2.665   2.716   3.530  1.2053 -2.3173 -0.3969
16026TIP3    H269570   2.676   2.592   3.617 -1.2453 -0.5419  2.6500
16027TIP3   OH269571   0.624   2.623   5.493  0.3934  0.0531  0.3769
16027TIP3    H169572   0.680   2.572   5.551 -1.3876 -2.2516  0.2058
16027TIP3    H269573   0.565   2.670   5.552  0.0011 -0.5927  0.5138
16028TIP3   OH269574   4.540   2.239  13.481 -1.0072 -0.3543  0.0519
16028TIP3    H169575   4.567   2.324  13.445  2.1547 -0.1183  2.5756
16028TIP3    H269576   4.448   2.252  13.505 -0.6990  2.2801  0.1434
16029TIP3   OH269577   4.701   5.173   5.745 -0.0548  0.2395 -0.2298
16029TIP3    H169578   4.745   5.206   5.823 -3.5094  2.5054  0.9891
16029TIP3    H269579   4.751   5.208   5.671  0.6336  1.9994  1.0389
16030TIP3   OH269580   0.587   1.769  13.715  0.1087  0.3236  0.6241
16030TIP3    H169581   0.575   1.674  13.724  0.2308  0.4553  2.4858
16030TIP3    H269582   0.521   1.795  13.650  0.5669 -1.1144 -0.4783
16031TIP3   OH269583   1.617   5.754   2.771 -0.3676 -0.5232 -0.1652
16031TIP3    H169584   1.671   5.687   2.729 -0.7465 -0.4858 -0.7236
16031TIP3    H269585   1.665   5.778   2.850  0.3480 -0.6033 -0.5767
16032TIP3   OH269586   5.927   0.001   0.922  0.4137 -0.1897  0.0144
16032TIP3    H169587   5.959   0.077   0.970 -0.6077 -0.3483  0.9726
16032TIP3    H269588   5.833   0.002   0.934  0.3483 -1.4189 -0.2531
16033TIP3   OH269589   5.682   0.028  14.749 -0.3996 -0.4535  0.3279
16033TIP3    H169590   5.681   0.122  14.765  2.1143 -0.2063 -0.5221
16033TIP3    H269591   5.669   0.018  14.655  0.0045 -0.9102  0.3125
16034TIP3   OH269592   0.346   5.519   5.176  0.0359  0.0032  0.2588
16034TIP3    H169593   0.349   5.569   5.094 -3.3850 -1.8102 -1.1570
16034TIP3    H269594   0.294   5.572   5.235  2.4631  1.2877  1.4122
16035TIP3   OH269595   3.939   3.837  16.445 -0.0065  0.4926  0.6653
16035TIP3    H169596   3.881   3.909  16.471 -2.1763 -0.9608  0.1389
16035TIP3    H269597   3.934   3.835  16.350 -1.8984 -1.7588  0.7407
16036TIP3   OH269598   3.097   2.258  15.267 -0.1702  0.3560  0.2308
16036TIP3    H169599   3.138   2.333  15.225 -0.7271  1.6159  1.8289
16036TIP3    H269600   3.027   2.231  15.208 -0.9465  2.0698  0.3351
16037TIP3   OH269601   1.818   4.167   3.378 -0.3966  0.0665 -0.5327
16037TIP3    H169602   1.782   4.104   3.440 -0.0184  0.4518  0.0853
16037TIP3    H269603   1.907   4.182   3.409 -0.2236  0.3014 -1.1421
16038TIP3   OH269604   3.508   5.800   4.089  0.2088  0.3594 -0.1224
16038TIP3    H169605   3.505   5.729   4.154 -0.6049 -0.1151 -0.6640
16038TIP3    H269606   3.425   5.846   4.100 -0.5781 -0.5852 -1.7482
16039TIP3   OH269607   4.261   0.896   1.964  0.0650 -0.0436  0.1445
16039TIP3    H169608   4.260   0.827   1.898 -0.4701  1.2663 -1.2676
16039TIP3    H269609   4.201   0.865   2.032  0.4490 -1.3081 -0.0594
16040TIP3   OH269610   6.770   2.308  15.649  0.0026 -0.3381  0.6100
16040TIP3    H169611   6.719   2.276  15.723 -1.2606 -0.4599 -0.2836
16040TIP3    H269612   6.805   2.230  15.607 -0.3619 -0.3542  0.3313
16041TIP3   OH269613   5.287   0.790   4.998 -0.2301 -0.2497  0.8073
16041TIP3    H169614   5.267   0.881   4.977 -1.5498 -0.8679 -0.9633
16041TIP3    H269615   5.366   0.770   4.947 -0.9101 -0.5298 -0.1690
16042TIP3   OH269616   0.574   1.426   0.790 -0.6758  0.6005 -0.1006
16042TIP3    H169617   0.567   1.479   0.711  1.1496 -0.3671 -0.9659
16042TIP3    H269618   0.636   1.473   0.846 -0.6615  0.4214  0.0374
16043TIP3   OH269619   0.841   0.713   5.523  0.1673 -0.2247  0.2021
16043TIP3    H169620   0.883   0.717   5.437  0.8033 -2.6740  0.3208
16043TIP3    H269621   0.906   0.671   5.580 -0.7639  0.0674  1.5440
16044TIP3   OH269622   4.112   4.327  13.301 -0.0565  0.4393  0.1985
16044TIP3    H169623   4.110   4.327  13.205  0.7847  1.8773  0.1573
16044TIP3    H269624   4.048   4.260  13.326  0.8982 -1.1542 -1.3704
16045TIP3   OH269625   3.297   4.214  14.282  0.4370  0.0685  0.1009
16045TIP3    H169626   3.240   4.197  14.357 -1.3807 -0.1684 -1.2534
16045TIP3    H269627   3.258   4.164  14.211  2.2544  0.0892 -0.9639
16046TIP3   OH269628   2.235   2.094   1.151  0.0862 -0.3901  0.0292
16046TIP3    H169629   2.302   2.027   1.140 -0.7591 -1.1767 -0.4033
16046TIP3    H269630   2.272   2.172   1.109  1.6064 -0.1747  1.6360
16047TIP3   OH269631   3.556   3.899   5.859 -0.1421  0.0948 -0.5021
16047TIP3    H169632   3.514   3.947   5.787 -1.3488 -1.3673 -0.8099
16047TIP3    H269633   3.515   3.813   5.859  1.1395 -0.5741  0.7898
16048TIP3   OH269634   0.193   0.400   1.810  0.1896 -0.3593 -0.4340
16048TIP3    H169635   0.281   0.394   1.846  0.5853  3.2374 -0.4744
16048TIP3    H269636   0.137   0.361   1.878  1.4879  0.7133  1.3202
16049TIP3   OH269637   3.178   0.679   2.933  0.1571  0.0130 -0.2561
16049TIP3    H169638   3.149   0.668   3.024 -0.2838  0.0465 -0.3879
16049TIP3    H269639   3.222   0.764   2.932 -0.0413  0.1192 -0.1242
16050TIP3   OH269640   5.014   0.715  16.063 -0.0524  0.4492  0.2500
16050TIP3    H169641   4.937   0.770  16.080  0.0054  0.5972  0.0472
16050TIP3    H269642   5.036   0.733  15.971 -1.7178 -1.9808 -0.7429
16051TIP3   OH269643   2.983   2.488  12.826 -0.3372  0.1483  0.1160
16051TIP3    H169644   3.010   2.570  12.868  1.4275 -0.6452  0.6363
16051TIP3    H269645   2.911   2.455  12.881 -1.1543  1.3890 -0.1810
16052TIP3   OH269646   5.644   5.668  16.446  0.4837  0.1021  0.5709
16052TIP3    H169647   5.633   5.666  16.351 -0.6906  2.5954  0.5756
16052TIP3    H269648   5.561   5.635  16.481  1.1208 -1.3509  0.7660
16053TIP3   OH269649   4.982   0.084  13.941  0.3972  0.0459 -0.4556
16053TIP3    H169650   5.061   0.096  13.888 -0.3617 -1.0956 -1.9119
16053TIP3    H269651   4.951  -0.004  13.919 -1.6351  0.6979 -0.4452
16054TIP3   OH269652   3.236   6.196  11.469 -0.1609 -0.2830 -0.1933
16054TIP3    H169653   3.304   6.234  11.524  0.6970  1.5844 -2.3613
16054TIP3    H269654   3.175   6.268  11.454 -0.8657 -1.0109 -0.9361
16055TIP3   OH269655   0.497   6.781  14.595 -0.2704  0.6714 -0.2832
16055TIP3    H169656   0.504   6.709  14.533 -0.5135  1.4048 -1.1778
16055TIP3    H269657   0.463   6.741  14.675 -0.7454 -0.1331 -0.8782
16056TIP3   OH269658   4.021   4.055  14.866 -0.1818  0.2716 -0.4536
16056TIP3    H169659   4.098   4.047  14.809 -0.2711 -0.2630 -0.4998
16056TIP3    H269660   3.985   3.967  14.871 -0.6931  0.4847 -0.2867
16057TIP3   OH269661   2.340   0.429   5.045  0.0926  0.3795 -0.5603
16057TIP3    H169662   2.269   0.387   5.093  1.0893 -3.1103 -1.8473
16057TIP3    H269663   2.305   0.443   4.957  0.5748 -0.1203 -0.8347
16058TIP3   OH269664   5.641   3.627  14.713 -0.0549 -0.3469  0.8644
16058TIP3    H169665   5.557   3.582  14.709  0.1239 -0.6399  0.3744
16058TIP3    H269666   5.619   3.720  14.706 -0.2559 -0.4790 -0.4846
16059TIP3   OH269667   4.065   5.393  14.506 -0.5293 -0.0869  0.1322
16059TIP3    H169668   4.009   5.425  14.435  1.6659  1.1545 -1.1518
16059TIP3    H269669   4.122   5.329  14.463 -0.6104 -0.9672  1.2987
16060TIP3   OH269670   4.665   3.315   2.677  0.0499  0.2013 -0.8854
16060TIP3    H169671   4.640   3.354   2.594  0.0643 -0.2847 -1.1215
16060TIP3    H269672   4.598   3.248   2.693  0.8993 -0.7635 -1.2716
16061TIP3   OH269673   0.185   4.416  12.168  0.4820 -0.2166 -0.5773
16061TIP3    H169674   0.091   4.397  12.169  0.8154 -2.0355  0.3641
16061TIP3    H269675   0.214   4.398  12.257  1.9497 -0.8532 -1.1504
16062TIP3   OH269676   3.593   2.408  17.204 -0.2539  0.0771  0.0450
16062TIP3    H169677   3.515   2.416  17.258 -2.1244 -1.2604 -2.2406
16062TIP3    H269678   3.651   2.349  17.253 -1.4237 -0.3040  1.0010
16063TIP3   OH269679   3.917   5.233  16.723  0.0628 -0.0385  0.7225
16063TIP3    H169680   3.846   5.287  16.689 -0.0337 -1.0110 -0.6898
16063TIP3    H269681   3.970   5.211  16.647 -0.6088 -2.9722  0.9468
16064TIP3   OH269682   0.738   5.236   5.567 -0.3517  0.4919 -0.3447
16064TIP3    H169683   0.644   5.253   5.570 -0.2161  1.2052  0.0115
16064TIP3    H269684   0.772   5.301   5.506  0.0343  0.8418  0.2383
16065TIP3   OH269685   1.068   4.870   3.795  0.2495  0.5464 -0.4261
16065TIP3    H169686   0.988   4.918   3.816  0.3794  1.3697 -1.6560
16065TIP3    H269687   1.059   4.848   3.702  1.7672  1.3244 -0.7929
16066TIP3   OH269688   4.022   1.493   2.364  0.9614  0.2751 -0.2610
16066TIP3    H169689   4.080   1.492   2.288 -1.0885 -2.1087 -1.9339
16066TIP3    H269690   3.986   1.405   2.368 -0.4103  0.8599  2.4241
16067TIP3   OH269691   6.636   0.783   1.663  0.3690 -0.3067  0.1865
16067TIP3    H169692   6.685   0.760   1.742 -0.2959 -0.3973  0.5876
16067TIP3    H269693   6.685   0.743   1.592 -0.6904 -2.9792  0.8362
16068TIP3   OH269694   4.187   5.859   1.755 -0.0654  0.1149  0.2121
16068TIP3    H169695   4.165   5.889   1.844  0.4271  1.6000 -0.1336
16068TIP3    H269696   4.195   5.764   1.764 -1.2525  0.0908  1.4786
16069TIP3   OH269697   5.062   2.062   0.980 -0.1767 -0.0127  0.6630
16069TIP3    H169698   5.036   2.151   0.955 -1.6325 -0.7693 -0.7832
16069TIP3    H269699   5.005   2.040   1.053 -1.7083 -0.6156 -0.6323
16070TIP3   OH269700   3.930   4.685   6.485 -0.0524 -0.3518  0.2496
16070TIP3    H169701   4.010   4.729   6.514  0.4424 -1.0719 -0.0070
16070TIP3    H269702   3.863   4.753   6.491  1.0443  1.0440 -1.9988
16071TIP3   OH269703   6.754   0.151   5.034  0.7514 -0.0799 -0.1382
16071TIP3    H169704   6.785   0.241   5.038  1.3837 -0.2254 -1.4052
16071TIP3    H269705   6.756   0.128   4.941  0.1471 -1.2469  0.1086
16072TIP3   OH269706   5.935   0.249   1.671  0.0533  0.3924 -0.0382
16072TIP3    H169707   5.871   0.317   1.690 -1.0200 -0.5064 -0.2940
16072TIP3    H269708   5.972   0.273   1.586  0.7435  1.4090  0.5382
16073TIP3   OH269709   5.220   0.483   4.211  1.0860  0.2120 -0.6556
16073TIP3    H169710   5.229   0.572   4.244  2.0568 -0.1207  0.0360
16073TIP3    H269711   5.133   0.480   4.173  1.3550  1.6955 -1.4477
16074TIP3   OH269712   2.141   0.383   6.070 -0.0977  0.1193  0.3562
16074TIP3    H169713   2.154   0.306   6.125  0.5752  0.0222  0.0677
16074TIP3    H269714   2.187   0.453   6.116  0.9211 -0.0751 -0.3211
16075TIP3   OH269715   0.337   6.434  13.188  0.2880  0.4636  0.0586
16075TIP3    H169716   0.286   6.489  13.128 -2.7789  0.5026  2.4830
16075TIP3    H269717   0.361   6.358  13.135 -3.1376  0.0143 -1.1055
16076TIP3   OH269718   6.670   3.960  17.007  0.4142  0.3915  0.0550
16076TIP3    H169719   6.604   4.028  16.995 -0.4894 -0.2397  1.2036
16076TIP3    H269720   6.654   3.927  17.096  0.1484 -1.9996 -0.8040
16077TIP3   OH269721   4.139   1.973  12.921 -0.3151 -0.2084 -0.4998
16077TIP3    H169722   4.124   2.068  12.915  0.3671 -0.1515 -1.5666
16077TIP3    H269723   4.204   1.964  12.991 -0.0629  0.1565 -0.6808
16078TIP3   OH269724   5.371   2.076  15.542  0.5570  0.1773  0.3841
16078TIP3    H169725   5.367   2.089  15.447 -0.1487 -1.4076  0.1519
16078TIP3    H269726   5.445   2.129  15.571  0.2395  1.3839 -0.9160
16079TIP3   OH269727   6.146   2.086   0.790 -0.5244 -0.6359  0.1045
16079TIP3    H169728   6.077   2.111   0.728 -0.1396  0.8277  0.2450
16079TIP3    H269729   6.110   2.108   0.876 -0.2865 -0.8533  0.2631
16080TIP3   OH269730   3.770   0.869  16.618 -0.3540  0.1849 -0.4585
16080TIP3    H169731   3.801   0.778  16.614 -0.4558  0.1896 -1.5217
16080TIP3    H269732   3.832   0.918  16.564 -0.1176  0.8132  0.3642
16081TIP3   OH269733   4.011   5.603   2.723 -0.3911 -0.0201  0.3684
16081TIP3    H169734   3.991   5.670   2.789 -2.7724 -0.2557 -0.0375
16081TIP3    H269735   3.986   5.521   2.764 -4.8625  0.0407 -1.6809
16082TIP3   OH269736   5.156   2.644   5.148 -0.3621  0.1252 -0.7110
16082TIP3    H169737   5.085   2.651   5.084 -0.5074 -0.7864 -0.6610
16082TIP3    H269738   5.153   2.553   5.178 -0.8889  0.7458  1.2772
16083TIP3   OH269739   5.565   1.219  14.746 -0.4785  0.1864  0.5194
16083TIP3    H169740   5.615   1.294  14.712 -0.4056 -0.0569  0.0693
16083TIP3    H269741   5.555   1.161  14.670 -2.4667  0.7514  0.2961
16084TIP3   OH269742   0.839   6.041   6.702 -0.2751  0.2310  0.1007
16084TIP3    H169743   0.810   6.026   6.612  3.3360 -2.4002 -0.8608
16084TIP3    H269744   0.784   5.982   6.755 -1.0449  0.2550 -0.6522
16085TIP3   OH269745   1.740   4.390  12.429 -0.4669 -0.1402  0.2982
16085TIP3    H169746   1.777   4.317  12.380 -2.3965 -1.2149  0.3448
16085TIP3    H269747   1.816   4.439  12.461  0.8636 -1.8046 -0.1864
16086TIP3   OH269748   0.332   3.732  14.313 -0.1807  0.2960  0.2627
16086TIP3    H169749   0.304   3.738  14.404  0.8349  0.9231  0.5455
16086TIP3    H269750   0.251   3.719  14.264 -0.6760 -0.7977  1.3151
16087TIP3   OH269751   4.890   3.729   3.189  0.1687  0.1076 -0.3650
16087TIP3    H169752   4.918   3.759   3.276 -0.8388  0.9157 -0.3111
16087TIP3    H269753   4.849   3.805   3.149  2.4012  0.3765 -2.3881
16088TIP3   OH269754   5.668   2.826   3.964  0.1606 -0.2931 -0.3195
16088TIP3    H169755   5.592   2.825   3.907 -0.0585  0.7838 -0.0643
16088TIP3    H269756   5.730   2.884   3.920  0.1723  0.1698  0.2963
16089TIP3   OH269757   5.524   0.857   5.340  0.4457  0.7165  0.2878
16089TIP3    H169758   5.509   0.810   5.422 -1.1285 -0.3887 -0.5711
16089TIP3    H269759   5.436   0.870   5.303  1.1623  0.1352 -1.7773
16090TIP3   OH269760   1.455   1.208  15.647 -0.3744 -0.1931  1.0844
16090TIP3    H169761   1.416   1.149  15.583  1.7190 -0.3816 -0.0927
16090TIP3    H269762   1.380   1.248  15.691 -1.8821 -0.5507 -1.0121
16091TIP3   OH269763   2.103   1.277  12.766 -0.8215  0.4336  0.3621
16091TIP3    H169764   2.035   1.340  12.742  1.3896  2.6315 -0.6125
16091TIP3    H269765   2.166   1.327  12.817 -0.4346 -1.8010  2.2352
16092TIP3   OH269766   2.951   2.104   0.927 -0.7433 -0.4978 -0.4208
16092TIP3    H169767   2.969   2.142   1.013 -1.4262  0.2281 -0.5873
16092TIP3    H269768   3.003   2.024   0.925  3.6008  2.0181 -1.3773
16093TIP3   OH269769   3.773   1.301   4.551 -0.7130 -0.3987  0.3812
16093TIP3    H169770   3.850   1.326   4.602 -0.6581 -0.5045  0.3500
16093TIP3    H269771   3.780   1.206   4.542  0.2798 -0.2013 -1.4012
16094TIP3   OH269772   4.547   0.474  12.887  0.0843  0.2870 -0.4026
16094TIP3    H169773   4.596   0.462  12.805  0.3819 -0.3745 -0.1402
16094TIP3    H269774   4.463   0.431  12.871 -0.1741  0.8728 -0.6379
16095TIP3   OH269775   6.533   0.808  14.392  0.3570 -0.1520  0.1732
16095TIP3    H169776   6.524   0.800  14.487  0.6212 -1.1728  0.1256
16095TIP3    H269777   6.588   0.885  14.379  0.4737 -0.1184  0.8561
16096TIP3   OH269778   3.847   0.575  14.864 -0.2596  0.0170  0.1618
16096TIP3    H169779   3.826   0.643  14.800 -0.2417 -0.5671 -0.4705
16096TIP3    H269780   3.923   0.610  14.911 -0.0176  0.2766 -0.4079
16097TIP3   OH269781   3.236   0.862  12.157  0.0248 -0.1445 -0.6425
16097TIP3    H169782   3.245   0.800  12.229 -1.4504 -0.8995 -1.0727
16097TIP3    H269783   3.314   0.917  12.163  0.6945 -1.1737  0.5766
16098TIP3   OH269784   3.024   5.693   4.817  0.7008 -0.4274  0.5642
16098TIP3    H169785   3.070   5.613   4.840 -1.7785 -1.4607  2.3902
16098TIP3    H269786   2.944   5.663   4.774  1.0344  1.2279 -1.3518
16099TIP3   OH269787   4.447   6.794  13.665 -0.3488  0.2155 -0.7771
16099TIP3    H169788   4.533   6.787  13.706 -1.4074 -3.3849  1.2859
16099TIP3    H269789   4.454   6.741  13.586 -1.3162 -2.8506  1.0180
16100TIP3   OH269790   2.683   1.154  13.103  0.9305  0.9592  0.5334
16100TIP3    H169791   2.588   1.147  13.097  0.9933  0.3894  0.1448
16100TIP3    H269792   2.704   1.238  13.062  0.6356  0.8559  0.1740
16101TIP3   OH269793   1.988   3.215  14.067 -0.0167 -0.0156 -0.2161
16101TIP3    H169794   1.984   3.124  14.038  1.9606  0.0151 -0.7628
16101TIP3    H269795   2.042   3.259  14.001 -0.1118  1.3247  0.5559
16102TIP3   OH269796   5.156   2.716   3.708  0.1369 -0.4450 -0.0702
16102TIP3    H169797   5.108   2.799   3.700  0.5810 -0.0130  1.4189
16102TIP3    H269798   5.220   2.718   3.636  0.9476  1.0797  0.6558
16103TIP3   OH269799   4.913   1.502  15.536  0.6863  0.1354 -0.3326
16103TIP3    H169800   4.982   1.438  15.555  0.8534  0.6279  0.7828
16103TIP3    H269801   4.840   1.476  15.592  1.1777  1.6081  1.0657
16104TIP3   OH269802   3.117   3.687   1.363 -0.0728 -0.0119 -0.4919
16104TIP3    H169803   3.116   3.774   1.403 -1.2179  0.0280 -0.5774
16104TIP3    H269804   3.031   3.650   1.384  0.3096 -1.0223 -0.6706
16105TIP3   OH269805   3.698   4.925   3.297  0.1312 -0.0476 -0.2095
16105TIP3    H169806   3.653   4.930   3.213 -2.0321 -1.0477  0.8185
16105TIP3    H269807   3.679   4.836   3.329  1.9330 -0.1136  0.8098
16106TIP3   OH269808   4.418   1.502  12.213  0.0023  0.0784 -0.1436
16106TIP3    H169809   4.468   1.521  12.134  0.3666  0.5168  0.1916
16106TIP3    H269810   4.410   1.586  12.259 -0.2891 -0.1500  0.2416
16107TIP3   OH269811   6.278   5.595   4.817 -0.4836 -0.1399 -0.4095
16107TIP3    H169812   6.242   5.680   4.843  1.2214  0.5643 -0.1974
16107TIP3    H269813   6.292   5.549   4.900 -3.7975 -1.7835 -0.5717
16108TIP3   OH269814   2.908   5.260  15.187  0.1172 -0.3942  0.8762
16108TIP3    H169815   2.814   5.249  15.197  0.0777 -0.4547  0.4588
16108TIP3    H269816   2.945   5.178  15.220  0.0302 -0.3402  1.1109
16109TIP3   OH269817   3.011   4.798  17.154 -0.1560 -0.0912  0.4374
16109TIP3    H169818   3.078   4.826  17.217 -2.0483 -0.8829  2.9971
16109TIP3    H269819   3.028   4.851  17.076  2.7809  0.4388  1.3041
16110TIP3   OH269820   4.277   0.837  14.499  0.0636  0.0423  0.2060
16110TIP3    H169821   4.213   0.899  14.533  0.3874  0.6124 -0.2095
16110TIP3    H269822   4.236   0.801  14.420  0.4551  0.7861 -0.3468
16111TIP3   OH269823   1.762   3.130  14.980 -0.1929 -0.5392  0.1411
16111TIP3    H169824   1.705   3.103  15.052  0.0658 -0.4926  0.3627
16111TIP3    H269825   1.850   3.131  15.017 -0.2727  1.4531  0.4066
16112TIP3   OH269826   5.163   2.566  12.242  0.3646  0.1895  0.6142
16112TIP3    H169827   5.212   2.524  12.312  0.3766  0.7804  0.9601
16112TIP3    H269828   5.155   2.658  12.269  0.1790  0.3733 -0.0469
16113TIP3   OH269829   6.689   3.153   3.394  0.5078 -0.0800  0.5956
16113TIP3    H169830   6.647   3.111   3.469 -1.7410 -1.0304 -1.0701
16113TIP3    H269831   6.659   3.244   3.397 -2.2932 -0.8445 -0.8288
16114TIP3   OH269832   1.448   6.362   4.709 -0.0737  0.5678  0.2664
16114TIP3    H169833   1.365   6.396   4.676  0.8419  1.2103 -1.5452
16114TIP3    H269834   1.510   6.376   4.637  1.3522 -0.9737  1.1115
16115TIP3   OH269835   2.078   2.862  16.561 -0.1824 -0.4899 -0.3273
16115TIP3    H169836   2.145   2.929  16.575 -0.5442 -0.1029 -0.4093
16115TIP3    H269837   1.999   2.912  16.538 -0.6957 -0.8904  0.5173
16116TIP3   OH269838   1.398   3.818   1.307  0.2541  0.1138  0.5640
16116TIP3    H169839   1.328   3.778   1.357 -1.5532  0.6383 -1.4069
16116TIP3    H269840   1.370   3.908   1.294  0.6217 -0.0090 -1.3818
16117TIP3   OH269841   4.134   1.423  10.209 -0.8711  0.6458  0.2659
16117TIP3    H169842   4.043   1.416  10.181 -0.3034 -1.1883 -1.3839
16117TIP3    H269843   4.132   1.404  10.303 -2.2645  1.6249  0.4618
16118TIP3   OH269844   5.860   3.424  15.369 -0.1355  0.2905  0.0068
16118TIP3    H169845   5.787   3.481  15.395  0.0237  1.3650 -1.6802
16118TIP3    H269846   5.841   3.402  15.277  0.3377 -1.6018  0.3213
16119TIP3   OH269847   3.123   1.816  14.787  0.4278 -0.3108 -0.4851
16119TIP3    H169848   3.213   1.787  14.773  0.9265  0.6103  0.5804
16119TIP3    H269849   3.077   1.738  14.817  0.9342 -0.7287 -0.7681
16120TIP3   OH269850   2.346   3.192  14.505  0.2405 -0.1022 -0.2907
16120TIP3    H169851   2.314   3.193  14.415  0.3054 -0.9282 -0.3313
16120TIP3    H269852   2.267   3.193  14.559  0.1858 -0.2555 -0.3682
16121TIP3   OH269853   2.098   2.957  10.791  0.4374  0.1473 -0.1869
16121TIP3    H169854   2.082   2.865  10.772  2.9061 -0.2189 -0.8900
16121TIP3    H269855   2.149   2.956  10.872  0.8946  0.8397 -0.4565
16122TIP3   OH269856   0.354   5.281  15.893 -0.0034  0.0388  0.1285
16122TIP3    H169857   0.307   5.198  15.906  0.0995  0.0350  0.4828
16122TIP3    H269858   0.339   5.302  15.801 -0.9133  0.1641  0.2951
16123TIP3   OH269859   0.097   1.805  16.514 -0.0258  0.2893 -0.0296
16123TIP3    H169860   0.064   1.818  16.603 -0.4240  0.6898 -0.2324
16123TIP3    H269861   0.058   1.722  16.487 -1.0946  0.8826 -0.3584
16124TIP3   OH269862   3.133   2.129   4.602 -0.3559 -0.0409 -0.0333
16124TIP3    H169863   3.178   2.193   4.546  1.1769 -1.7423 -0.8683
16124TIP3    H269864   3.185   2.129   4.683  0.1059 -0.7442 -0.3229
16125TIP3   OH269865   3.166   2.749   6.729  0.5737  0.4741 -0.1393
16125TIP3    H169866   3.142   2.839   6.752 -1.9639 -0.3321  0.7737
16125TIP3    H269867   3.254   2.756   6.694  0.3569  3.3579 -0.3831
16126TIP3   OH269868   4.166   4.609   3.713  0.1480  0.3015  0.2128
16126TIP3    H169869   4.147   4.662   3.791  0.9369 -1.6368  1.8270
16126TIP3    H269870   4.242   4.651   3.674 -1.0745  2.0912 -0.3448
16127TIP3   OH269871   1.638   5.656  12.044 -0.2281  0.1635  0.2496
16127TIP3    H169872   1.692   5.592  12.090 -2.3703 -1.8284  0.1719
16127TIP3    H269873   1.559   5.664  12.098 -0.0544  2.8088  0.2515
16128TIP3   OH269874   6.068   1.881   3.018 -1.1736 -0.5913 -0.5181
16128TIP3    H169875   6.051   1.975   3.025  0.0615 -0.4587  2.0187
16128TIP3    H269876   6.163   1.874   3.026 -0.9758 -1.9583 -3.1496
16129TIP3   OH269877   1.959   6.452   1.887 -0.1392 -0.1046 -0.4887
16129TIP3    H169878   2.002   6.534   1.862  1.6331 -1.1415 -1.0341
16129TIP3    H269879   1.870   6.460   1.852  0.5163  0.9050 -2.0404
16130TIP3   OH269880   0.735   2.272  14.371 -0.0318  0.3652 -0.3007
16130TIP3    H169881   0.748   2.270  14.466 -1.7947 -2.1069 -0.0284
16130TIP3    H269882   0.824   2.273  14.335  0.6943 -0.0189  1.3744
16131TIP3   OH269883   5.540   1.271  11.952  0.1271 -0.1939  0.3715
16131TIP3    H169884   5.455   1.313  11.942 -0.1412 -1.0060 -1.1175
16131TIP3    H269885   5.520   1.186  11.992  0.1880 -0.5021 -0.2393
16132TIP3   OH269886   4.129   0.472  13.869 -0.0298 -0.1236 -0.0175
16132TIP3    H169887   4.178   0.546  13.905 -1.2813  0.5208  0.4350
16132TIP3    H269888   4.037   0.495  13.883 -0.4954 -2.9041  2.5580
16133TIP3   OH269889   2.334   1.485   0.889 -0.3494 -0.2523 -0.3849
16133TIP3    H169890   2.388   1.406   0.886 -1.3408 -0.9499 -3.9226
16133TIP3    H269891   2.294   1.483   0.977  2.7192 -1.4180  1.1324
16134TIP3   OH269892   5.761   0.727   4.950 -0.2346  0.1189  0.2684
16134TIP3    H169893   5.837   0.757   4.902  1.0484 -0.7113  1.6840
16134TIP3    H269894   5.764   0.775   5.033  0.2978 -1.7962  1.4240
16135TIP3   OH269895   6.145   3.686  13.683 -0.3827  0.1030 -0.1594
16135TIP3    H169896   6.099   3.608  13.713  2.7756 -1.9262 -0.2252
16135TIP3    H269897   6.192   3.718  13.759  0.0939  0.6621 -0.6738
16136TIP3   OH269898   5.122   2.599   1.452 -0.1595  0.4150 -0.2115
16136TIP3    H169899   5.034   2.619   1.420  0.0729  0.1895 -1.0148
16136TIP3    H269900   5.108   2.537   1.524 -0.5803 -1.2038 -1.6128
16137TIP3   OH269901   6.622   3.077   4.046 -0.5040 -0.1678  0.1736
16137TIP3    H169902   6.664   3.085   3.960 -0.1620 -2.6595  0.0234
16137TIP3    H269903   6.568   3.155   4.054  0.6678  0.8993 -1.6103
16138TIP3   OH269904   6.568   2.963   3.584 -0.1946  0.6287  0.4181
16138TIP3    H169905   6.510   2.888   3.591 -0.3662  0.5419 -1.3848
16138TIP3    H269906   6.509   3.039   3.584 -0.2125  0.6192 -0.0086
16139TIP3   OH269907   6.678   5.927  12.890  0.3734  0.0816 -0.7734
16139TIP3    H169908   6.624   5.848  12.883  0.9914 -0.5721  1.1109
16139TIP3    H269909   6.632   5.993  12.838 -0.9894 -1.0917 -1.1016
16140TIP3   OH269910   0.278   4.058  16.849  0.2196 -0.1782 -0.0832
16140TIP3    H169911   0.223   4.018  16.916  0.0815  0.0225 -0.0760
16140TIP3    H269912   0.263   4.005  16.770 -0.6454  0.3821 -0.3107
16141TIP3   OH269913   2.581   5.269  15.008  0.6891 -0.0177  0.1614
16141TIP3    H169914   2.505   5.254  14.953  1.4052 -0.3629 -0.7563
16141TIP3    H269915   2.615   5.354  14.980  1.6415 -0.6512 -0.6510
16142TIP3   OH269916   2.845   5.181   3.833 -0.1488  0.0834  0.5349
16142TIP3    H169917   2.764   5.198   3.784 -0.2951  1.3750  1.2039
16142TIP3    H269918   2.900   5.132   3.771 -1.0783 -0.0167 -0.2413
16143TIP3   OH269919   0.027   1.517  15.124 -0.7807  0.4842  0.3302
16143TIP3    H169920   0.099   1.571  15.157 -0.7669  0.2884  0.6307
16143TIP3    H269921   0.017   1.542  15.033  0.7479 -0.6557 -0.1858
16144TIP3   OH269922   1.343   5.990   1.421  0.7308  0.3759  0.3172
16144TIP3    H169923   1.428   5.990   1.377  0.0454  0.9634 -1.0879
16144TIP3    H269924   1.349   5.919   1.485  3.3159  2.3188  2.4220
16145TIP3   OH269925   3.429   6.251   6.056 -0.3933 -0.5611  0.4448
16145TIP3    H169926   3.453   6.213   6.141 -0.3912  0.3044  0.8417
16145TIP3    H269927   3.335   6.270   6.064  0.2715  2.7329  1.5644
16146TIP3   OH269928   5.453   4.119   3.988  0.4925  0.2210 -0.3790
16146TIP3    H169929   5.458   4.202   4.035 -0.6980  0.1352 -0.0531
16146TIP3    H269930   5.454   4.053   4.056  1.1805 -0.0331 -0.6246
16147TIP3   OH269931   5.153   2.779   4.494  0.0500 -0.1828 -0.0412
16147TIP3    H169932   5.246   2.786   4.517 -0.0678 -0.4925  0.5497
16147TIP3    H269933   5.125   2.696   4.534 -0.2873 -0.4827 -0.8845
16148TIP3   OH269934   6.190   5.740   2.028  0.2308  0.4262 -0.1066
16148TIP3    H169935   6.247   5.716   1.955 -0.1107  0.5825 -0.4352
16148TIP3    H269936   6.218   5.684   2.100  0.4868  0.1689 -0.3987
16149TIP3   OH269937   6.398   6.699   2.252 -0.2283 -0.1329  0.3158
16149TIP3    H169938   6.358   6.739   2.175 -0.5507  0.6536  0.8828
16149TIP3    H269939   6.328   6.647   2.292 -0.1472 -0.2947  0.2477
16150TIP3   OH269940   0.139   5.190  13.088  0.0165 -0.1404  0.1985
16150TIP3    H169941   0.067   5.177  13.149 -2.5242 -0.6266 -2.6261
16150TIP3    H269942   0.130   5.119  13.024  1.0978  1.4900 -1.9208
16151TIP3   OH269943   1.731   6.800   6.649  0.0302 -0.3052 -0.3463
16151TIP3    H169944   1.710   6.893   6.635 -0.2666 -0.5609 -1.7428
16151TIP3    H269945   1.732   6.790   6.744 -0.5188  1.0007 -0.1780
16152TIP3   OH269946   3.487   5.884   2.363 -0.2440  0.3541  0.8308
16152TIP3    H169947   3.510   5.805   2.411 -2.2337  0.6410  2.3761
16152TIP3    H269948   3.408   5.861   2.314  0.8603  0.5402 -1.1469
16153TIP3   OH269949   4.697   3.935   1.123  0.2743 -0.0495 -0.1862
16153TIP3    H169950   4.618   3.900   1.165  0.2725  1.0906  0.8094
16153TIP3    H269951   4.664   3.996   1.057  0.3219  0.5199  0.3144
16154TIP3   OH269952   3.433   2.971   4.608  0.0596 -0.1530  0.4436
16154TIP3    H169953   3.524   2.953   4.587  0.4974  0.4925  1.7086
16154TIP3    H269954   3.388   2.888   4.594  0.6921 -0.3048 -0.8639
16155TIP3   OH269955   0.966   0.442  14.878 -0.8529  0.0812  0.5152
16155TIP3    H169956   0.962   0.481  14.966 -2.6605 -0.7831  0.8567
16155TIP3    H269957   0.978   0.348  14.894 -3.2765 -0.3934 -0.0251
16156TIP3   OH269958   5.530   0.480   0.755 -0.6921  0.5975 -0.2339
16156TIP3    H169959   5.579   0.562   0.764 -1.9918  1.6697 -2.1402
16156TIP3    H269960   5.591   0.413   0.784  1.3569  2.0188 -0.9730
16157TIP3   OH269961   1.527   4.780  14.863  0.4715  0.6012  0.2062
16157TIP3    H169962   1.432   4.785  14.873  0.2752  0.7274 -1.5123
16157TIP3    H269963   1.550   4.854  14.806  1.4987  0.0719 -0.0978
16158TIP3   OH269964   2.197   3.770  11.934 -0.0818 -0.0854 -0.6113
16158TIP3    H169965   2.263   3.792  11.999 -1.2073 -0.7298  0.7897
16158TIP3    H269966   2.167   3.854  11.900  1.4527  0.2189 -1.3211
16159TIP3   OH269967   0.345   4.823  13.479 -0.5004 -0.2729  0.4488
16159TIP3    H169968   0.296   4.820  13.397 -0.4112  0.5172  0.3569
16159TIP3    H269969   0.384   4.736  13.486 -1.3672 -0.6929  0.1929
16160TIP3   OH269970   0.450   4.287   4.359  0.2902  0.0228  0.2027
16160TIP3    H169971   0.418   4.372   4.387  0.6911 -0.1200  1.1534
16160TIP3    H269972   0.493   4.251   4.437  1.9322 -0.1723 -0.7495
16161TIP3   OH269973   2.395   1.853  13.905  0.4391 -0.1460  0.1997
16161TIP3    H169974   2.361   1.871  13.993  1.4938 -0.1299  0.6132
16161TIP3    H269975   2.462   1.786  13.919  0.4909 -0.2720 -0.6231
16162TIP3   OH269976   5.023   0.807  14.040 -0.5686  0.0807  0.1351
16162TIP3    H169977   4.943   0.830  14.088 -0.9417  0.7120 -0.7461
16162TIP3    H269978   5.003   0.829  13.949  0.7184  0.5591 -0.0581
16163TIP3   OH269979   6.024   5.774  13.718  0.6048  0.1661 -0.4692
16163TIP3    H169980   5.984   5.861  13.711  0.6160  0.0916 -1.7801
16163TIP3    H269981   6.050   5.753  13.628  0.6202 -1.1853 -0.1683
16164TIP3   OH269982   6.163   4.837  12.334 -0.2231 -0.3329 -0.3904
16164TIP3    H169983   6.139   4.775  12.266 -1.1850  0.8121 -1.1358
16164TIP3    H269984   6.224   4.897  12.291 -0.0426 -0.1994  0.0472
16165TIP3   OH269985   4.609   3.792  11.787  0.3209 -0.2862 -0.0430
16165TIP3    H169986   4.672   3.856  11.820 -0.4070  0.6211 -0.4051
16165TIP3    H269987   4.582   3.825  11.702 -0.7239 -0.6127  0.1470
16166TIP3   OH269988   2.900   2.798   2.864 -0.6607  0.2467  0.4747
16166TIP3    H169989   2.866   2.719   2.907  0.2715 -0.3665  0.1145
16166TIP3    H269990   2.989   2.775   2.838 -0.6298  1.1716 -0.3069
16167TIP3   OH269991   3.921   3.507   0.425  0.5063 -0.0091  0.3611
16167TIP3    H169992   3.900   3.508   0.518  1.7279  1.2999  0.6648
16167TIP3    H269993   3.911   3.598   0.397  0.0573 -0.4019 -0.8280
16168TIP3   OH269994   2.728   6.117  12.499 -0.6293  0.1772 -0.1137
16168TIP3    H169995   2.763   6.029  12.485 -0.3000  0.4374 -0.9492
16168TIP3    H269996   2.699   6.116  12.590  0.3752 -0.4521  0.2185
16169TIP3   OH269997   4.522   0.462   1.619  0.2181  0.3948 -0.0943
16169TIP3    H169998   4.496   0.370   1.613  2.1839 -0.1827 -0.1761
16169TIP3    H269999   4.535   0.478   1.713  1.8918 -0.0345 -0.2233
16170TIP3   OH270000   1.228   4.115   0.080 -0.1851  0.0661 -0.2206
16170TIP3    H170001   1.219   4.020   0.074 -0.6229 -0.1629  2.6110
16170TIP3    H270002   1.321   4.130   0.096 -0.1545  0.1072 -0.4312
16171TIP3   OH270003   1.778   4.288   2.216 -0.6401 -0.5656 -0.0161
16171TIP3    H170004   1.685   4.303   2.232 -0.3002  1.0721  0.5254
16171TIP3    H270005   1.810   4.248   2.297 -0.3033  1.5486  0.9402
16172TIP3   OH270006   6.305   1.411   1.222  0.1142 -0.4601 -0.2475
16172TIP3    H170007   6.399   1.425   1.234  0.0077  0.6129 -0.4899
16172TIP3    H270008   6.267   1.432   1.308  0.0733 -0.5638 -0.2412
16173TIP3   OH270009   6.630   3.897   1.220 -0.3567 -0.1209 -0.0886
16173TIP3    H170010   6.693   3.911   1.150  0.2105  0.5605  0.5347
16173TIP3    H270011   6.602   3.806   1.210 -1.6419  0.4664 -2.2667
16174TIP3   OH270012   0.638   0.633   3.149 -0.2358 -0.0166  0.3790
16174TIP3    H170013   0.663   0.541   3.149 -0.2860 -0.0301  0.3254
16174TIP3    H270014   0.713   0.678   3.188 -0.3854 -0.1311  0.8156
16175TIP3   OH270015   2.451   1.118   2.859  0.6988  0.5422 -0.4086
16175TIP3    H170016   2.460   1.081   2.771  0.7493 -0.6369  0.0745
16175TIP3    H270017   2.541   1.124   2.891  0.6296  0.1923 -0.1383
16176TIP3   OH270018   3.528   5.170   2.001 -0.0531  0.1452  0.0036
16176TIP3    H170019   3.492   5.201   2.084  0.2091 -1.8907  0.9487
16176TIP3    H270020   3.557   5.080   2.020  1.1323  0.0562 -1.9754
16177TIP3   OH270021   3.420   2.775   0.073  0.3430 -0.2728  0.0626
16177TIP3    H170022   3.444   2.835   0.144  0.7019 -0.7408  0.3402
16177TIP3    H270023   3.496   2.774   0.015 -0.1378  0.5082 -0.6280
16178TIP3   OH270024   0.992   3.319  12.207  0.4515  0.3085  0.7301
16178TIP3    H170025   0.945   3.300  12.288 -0.7617 -2.2131 -0.4443
16178TIP3    H270026   1.065   3.258  12.206  0.9226  0.8674  0.2674
16179TIP3   OH270027   6.306   4.859   5.787 -0.5478 -0.0484  0.1101
16179TIP3    H170028   6.374   4.860   5.720 -1.0414  1.0365 -0.4065
16179TIP3    H270029   6.315   4.774   5.830  0.9452 -0.0392 -0.1294
16180TIP3   OH270030   5.920   6.409   4.731 -0.4387 -0.5372  0.7290
16180TIP3    H170031   5.868   6.489   4.730 -1.6929 -1.2262 -2.1121
16180TIP3    H270032   5.859   6.341   4.700  1.9346 -1.4497 -2.5222
16181TIP3   OH270033   3.096   4.502   2.743  0.5620 -0.3216 -0.0140
16181TIP3    H170034   3.137   4.587   2.723 -0.4070  0.2433  0.3410
16181TIP3    H270035   3.152   4.438   2.698  1.7390  0.4293  0.3345
16182TIP3   OH270036   2.035   1.772   0.742 -0.1134  0.1770  0.2270
16182TIP3    H170037   1.986   1.839   0.790  1.0468 -0.0549  1.8271
16182TIP3    H270038   2.111   1.754   0.798  0.5277 -1.1848 -1.0310
16183TIP3   OH270039   4.125   0.514  11.149  0.4406 -0.0905 -0.1063
16183TIP3    H170040   4.169   0.515  11.065 -2.2232  0.8125 -1.6166
16183TIP3    H270041   4.070   0.436  11.147  0.0596  0.1435  0.6393
16184TIP3   OH270042   3.451   5.407  11.470 -0.0591  0.3211 -0.1817
16184TIP3    H170043   3.526   5.383  11.525 -0.2503 -2.6735 -1.0167
16184TIP3    H270044   3.381   5.426  11.532  1.2953  3.2305  0.6171
16185TIP3   OH270045   0.079   6.151   5.799  1.3931 -0.5140 -0.3936
16185TIP3    H170046  -0.004   6.128   5.842  0.5217  1.5978 -0.8078
16185TIP3    H270047   0.108   6.070   5.757  1.0053 -2.0177  2.0726
16186TIP3   OH270048   4.445   3.121   2.729 -0.8486 -0.3132  0.2531
16186TIP3    H170049   4.465   3.050   2.668 -0.3709  0.1309 -0.1282
16186TIP3    H270050   4.358   3.151   2.703 -0.0590  0.8467 -1.2214
16187TIP3   OH270051   2.459   3.836   4.310 -0.5052  0.0124  0.1344
16187TIP3    H170052   2.505   3.867   4.232  0.3378  0.5227  0.8155
16187TIP3    H270053   2.393   3.776   4.276  0.8046 -0.9286 -0.8582
16188TIP3   OH270054   1.135   3.638  15.414  0.3186 -0.2804  0.0379
16188TIP3    H170055   1.118   3.553  15.455  2.1759  0.3394  2.3293
16188TIP3    H270056   1.049   3.666  15.380 -1.2295 -1.2977  2.7738
16189TIP3   OH270057   5.788   5.571   4.401  0.1162 -0.1455  0.0156
16189TIP3    H170058   5.698   5.552   4.375  0.0011  1.7288 -1.1294
16189TIP3    H270059   5.840   5.501   4.361 -0.6813 -0.4830 -0.4488
16190TIP3   OH270060   2.779   3.560   0.046 -0.2708  0.3967  0.2002
16190TIP3    H170061   2.685   3.565   0.029 -0.0651 -2.0289 -2.2571
16190TIP3    H270062   2.820   3.601  -0.031  0.6594 -1.8976 -0.5918
16191TIP3   OH270063   2.875   5.722   0.874 -0.0161 -0.1888  0.1575
16191TIP3    H170064   2.877   5.748   0.966  0.4749 -1.1903  0.4395
16191TIP3    H270065   2.883   5.804   0.825 -0.4657  0.3671  0.9989
16192TIP3   OH270066   0.636   5.739  13.471  0.0250 -0.1358 -0.2308
16192TIP3    H170067   0.722   5.700  13.485 -1.1016 -3.8095 -2.2328
16192TIP3    H270068   0.618   5.786  13.552  4.0293  1.2870  0.0752
16193TIP3   OH270069   2.465   4.961   2.256  0.3732  0.6399  0.0314
16193TIP3    H170070   2.405   4.887   2.261 -0.7804  1.3789 -1.6576
16193TIP3    H270071   2.416   5.034   2.295  0.1590  1.2238 -1.2652
16194TIP3   OH270072   0.799   0.150  14.295 -0.4894  0.1694 -0.5184
16194TIP3    H170073   0.842   0.218  14.346 -0.4060 -0.7726  0.7311
16194TIP3    H270074   0.713   0.141  14.336  0.3663 -2.1266  0.9716
16195TIP3   OH270075   1.712   4.933  15.963 -0.2169  0.3832 -0.0166
16195TIP3    H170076   1.662   4.864  15.920 -2.3686  1.8749 -0.0456
16195TIP3    H270077   1.796   4.892  15.985 -1.3622 -2.1718 -0.1384
16196TIP3   OH270078   4.835   6.088  16.186  0.2708 -0.5270  0.1563
16196TIP3    H170079   4.802   6.108  16.274 -2.6951 -3.4068 -0.0646
16196TIP3    H270080   4.841   5.992  16.185  0.7069 -0.5425 -2.6047
16197TIP3   OH270081   0.669   6.677  11.622 -0.0341 -0.3851 -0.3972
16197TIP3    H170082   0.637   6.681  11.712  1.4481  2.1537  0.1077
16197TIP3    H270083   0.764   6.685  11.629  0.1484 -0.5219 -2.1795
16198TIP3   OH270084   4.926   1.834  14.675 -0.2442  0.7268  0.3935
16198TIP3    H170085   4.965   1.913  14.710 -0.0535  1.4182 -1.2783
16198TIP3    H270086   4.880   1.862  14.595  0.7013 -0.9713 -0.8278
16199TIP3   OH270087   5.427   2.843  14.439  0.3042  0.6208 -0.3309
16199TIP3    H170088   5.494   2.795  14.392 -0.0383  1.0746 -1.3168
16199TIP3    H270089   5.405   2.917  14.381 -0.7266  0.7225  0.1573
16200TIP3   OH270090   5.795   4.912   0.591 -0.3839  0.5476  0.2275
16200TIP3    H170091   5.803   4.878   0.680  0.5439  1.5031  0.5213
16200TIP3    H270092   5.758   5.000   0.602  0.4428  0.9698 -0.2601
16201TIP3   OH270093   1.961   5.143   3.689 -0.0124  0.6379  0.4081
16201TIP3    H170094   1.930   5.207   3.753 -0.0984 -0.3692  1.3900
16201TIP3    H270095   1.980   5.195   3.611  2.3454  2.2812  1.9534
16202TIP3   OH270096   3.944   0.451  11.422 -0.0614 -0.1162 -0.4028
16202TIP3    H170097   4.033   0.484  11.432 -0.9001  1.9874  0.6987
16202TIP3    H270098   3.899   0.477  11.502 -2.0034  0.0293 -1.4731
16203TIP3   OH270099   1.630   5.290  14.582  0.2992  0.8396  0.1045
16203TIP3    H170100   1.664   5.247  14.504 -0.7796  1.4890 -0.7637
16203TIP3    H270101   1.682   5.255  14.654  0.6135 -0.5806 -0.7713
16204TIP3   OH270102   0.491   5.096   0.991  0.1692 -0.0489  0.3523
16204TIP3    H170103   0.407   5.117   0.951  0.2622 -0.9963 -0.3572
16204TIP3    H270104   0.506   5.004   0.970  0.9893 -0.1252  1.1929
16205TIP3   OH270105   3.937   2.963  15.498 -0.5661 -0.0965 -0.2436
16205TIP3    H170106   3.899   3.039  15.455 -0.9806 -0.5096 -0.6116
16205TIP3    H270107   3.868   2.898  15.498 -0.8730  0.1531  1.7803
16206TIP3   OH270108   1.637   2.075   4.459  0.4404 -0.1757  0.3011
16206TIP3    H170109   1.592   2.064   4.543 -0.0238  0.3173  0.1219
16206TIP3    H270110   1.618   1.994   4.411  0.8516 -0.5343  0.7315
16207TIP3   OH270111   1.602   4.761  12.405  0.5586  0.2258  0.0541
16207TIP3    H170112   1.538   4.740  12.473  1.2182 -0.8005  0.3849
16207TIP3    H270113   1.549   4.779  12.327 -0.2100  1.4681  0.8343
16208TIP3   OH270114   0.944   1.281  11.986  0.3558 -0.2115 -0.0425
16208TIP3    H170115   0.873   1.295  11.924  0.0243 -0.7182  0.2141
16208TIP3    H270116   1.023   1.280  11.932  0.4640  2.8161 -0.0579
16209TIP3   OH270117   6.815   1.738  12.994 -0.0283  0.2540 -0.3892
16209TIP3    H170118   6.894   1.761  13.042  0.4633 -1.8573 -0.0681
16209TIP3    H270119   6.837   1.749  12.902  1.2232 -1.7391 -0.3923
16210TIP3   OH270120   2.433   2.336  10.463  0.1795  1.0818 -0.1215
16210TIP3    H170121   2.498   2.346  10.533 -0.8773 -0.7121  1.2056
16210TIP3    H270122   2.485   2.314  10.386  1.1889 -0.4993  0.9409
16211TIP3   OH270123   3.064   6.301  12.054 -0.5420  0.1051 -0.1489
16211TIP3    H170124   3.117   6.282  12.131  1.1449  1.0038 -1.0297
16211TIP3    H270125   3.022   6.384  12.073 -0.3773  0.1703 -0.0721
16212TIP3   OH270126   2.163   6.349  15.248 -0.0908 -0.2570 -0.0060
16212TIP3    H170127   2.166   6.394  15.332  0.6139 -0.5300  0.1257
16212TIP3    H270128   2.070   6.340  15.228 -0.2436  0.7193  0.2476
16213TIP3   OH270129   0.234   4.731  12.957  0.7695  0.1058 -0.2400
16213TIP3    H170130   0.279   4.788  13.020  0.8623 -1.8325  1.5617
16213TIP3    H270131   0.294   4.723  12.884  3.2914 -1.9809  1.8493
16214TIP3   OH270132   6.495   6.792   6.434 -0.9120 -0.3252 -0.3111
16214TIP3    H170133   6.579   6.747   6.419 -0.6384 -0.0664  0.4335
16214TIP3    H270134   6.429   6.730   6.403 -0.4472 -0.5112 -0.9511
16215TIP3   OH270135   2.781   3.626   5.991 -0.4166 -0.6441  0.4158
16215TIP3    H170136   2.698   3.638   5.943 -0.9205 -0.9512  1.1956
16215TIP3    H270137   2.764   3.665   6.077 -0.1147 -1.6819  0.9557
16216TIP3   OH270138   5.109   1.912  16.075  0.2719 -0.2088 -0.8718
16216TIP3    H170139   5.107   1.946  15.985 -0.7264 -0.7320 -1.0662
16216TIP3    H270140   5.165   1.834  16.070  2.0525  0.9844 -0.5541
16217TIP3   OH270141   4.776   6.723   6.114 -0.1836 -0.2372  0.0355
16217TIP3    H170142   4.845   6.713   6.180  0.1481 -0.7126 -0.3837
16217TIP3    H270143   4.738   6.809   6.133 -0.9277 -0.8765  1.6445
16218TIP3   OH270144   4.520   3.784   5.547 -0.3157  0.5359 -0.1509
16218TIP3    H170145   4.581   3.858   5.544 -0.6450  0.7847 -1.1165
16218TIP3    H270146   4.489   3.774   5.457 -1.9039  0.5897  0.3508
16219TIP3   OH270147   0.721   6.656  13.722 -0.0799  0.0245  0.4202
16219TIP3    H170148   0.791   6.720  13.711 -0.3462 -0.0860 -2.6513
16219TIP3    H270149   0.765   6.571  13.711 -0.0518 -0.3257  2.6713
16220TIP3   OH270150   4.570   5.217  11.594 -0.1361 -0.3021 -0.7297
16220TIP3    H170151   4.583   5.132  11.636  1.3481  0.6157  0.7963
16220TIP3    H270152   4.488   5.250  11.632 -1.2581 -1.4194 -2.0748
16221TIP3   OH270153   5.679   1.274  16.371 -0.2912 -0.2725  0.0492
16221TIP3    H170154   5.768   1.306  16.387 -0.5943  1.2862 -1.2218
16221TIP3    H270155   5.629   1.306  16.446  0.2468 -1.5253  1.0018
16222TIP3   OH270156   5.584   2.084   4.031  0.0947  0.0515  0.0496
16222TIP3    H170157   5.535   2.144   4.088 -1.9497 -1.3705 -0.0788
16222TIP3    H270158   5.557   1.997   4.060  1.1656 -0.7610 -1.2840
16223TIP3   OH270159   1.687   6.224   3.494  0.2737  0.0371 -0.5816
16223TIP3    H170160   1.755   6.171   3.536  1.1636 -1.1987 -3.3416
16223TIP3    H270161   1.721   6.313   3.495  0.9942 -0.2374 -0.1063
16224TIP3   OH270162   3.841   5.060  11.460 -0.4099 -0.0638 -0.7706
16224TIP3    H170163   3.766   5.085  11.515  0.6412 -0.8198  1.1129
16224TIP3    H270164   3.810   5.072  11.371 -2.8913 -0.6149 -0.0666
16225TIP3   OH270165   5.667   0.216  12.752  0.2090  0.0865  0.0604
16225TIP3    H170166   5.686   0.308  12.731 -1.5552  0.7925  1.2778
16225TIP3    H270167   5.598   0.191  12.691 -0.2222 -0.0026  0.5760
16226TIP3   OH270168   0.258   2.352  11.905 -0.2692 -0.8305 -0.4872
16226TIP3    H170169   0.202   2.312  11.973 -0.5159 -0.1108 -0.2587
16226TIP3    H270170   0.291   2.277  11.855 -0.5648 -1.3379  0.0539
16227TIP3   OH270171   3.220   6.140  13.808  0.5053  0.4731 -0.0329
16227TIP3    H170172   3.214   6.124  13.713 -1.5521  1.3448 -0.0869
16227TIP3    H270173   3.209   6.234  13.817  0.6981  0.3939  1.1040
16228TIP3   OH270174   0.236   6.185  16.943  0.1754  0.0114 -0.2912
16228TIP3    H170175   0.175   6.113  16.955  1.6576 -1.1913  0.5286
16228TIP3    H270176   0.262   6.210  17.032  1.6512 -0.2476 -0.6130
16229TIP3   OH270177   4.450   4.509  15.842 -0.4729 -0.1615  0.2150
16229TIP3    H170178   4.467   4.582  15.783  0.8508 -1.0239 -0.5388
16229TIP3    H270179   4.461   4.546  15.930  0.9685  0.4091 -0.1669
16230TIP3   OH270180   1.514   3.452  15.668  0.8732 -0.1236 -0.6219
16230TIP3    H170181   1.491   3.531  15.717 -1.4388 -1.0990  0.0035
16230TIP3    H270182   1.595   3.421  15.708  1.3069  1.3955 -0.2570
16231TIP3   OH270183   1.893   1.875   6.656 -0.1407 -0.0952  0.0998
16231TIP3    H170184   1.874   1.789   6.618  0.1216  0.0251 -0.3124
16231TIP3    H270185   1.989   1.882   6.652 -0.2261  0.7028 -0.9514
16232TIP3   OH270186   0.199   1.033  12.348 -0.6663 -0.6055 -0.2638
16232TIP3    H170187   0.252   0.975  12.294 -1.1913 -0.9826 -0.3853
16232TIP3    H270188   0.110   0.998  12.341 -1.2474  1.0204 -1.4486
16233TIP3   OH270189   0.432   5.405  16.971 -0.3294  0.5933 -0.0632
16233TIP3    H170190   0.369   5.334  16.980 -0.0564  0.4551  0.8359
16233TIP3    H270191   0.402   5.472  17.033  0.5193  0.4328  0.5326
16234TIP3   OH270192   5.808   5.053  11.904  0.4006 -0.0606 -0.4051
16234TIP3    H170193   5.752   5.130  11.910 -0.0383 -0.3355 -0.8969
16234TIP3    H270194   5.868   5.061  11.978 -0.3176  0.2192  0.1556
16235TIP3   OH270195   5.405   1.673   4.750 -0.6691 -0.5938  0.6689
16235TIP3    H170196   5.463   1.630   4.813  1.3082  1.1415  0.1811
16235TIP3    H270197   5.436   1.643   4.665 -1.4797 -0.7947  0.4436
16236TIP3   OH270198   0.909   2.882   0.252  0.8007  0.2318 -0.7038
16236TIP3    H170199   0.899   2.965   0.207 -0.5220 -0.6150 -2.0588
16236TIP3    H270200   0.903   2.816   0.183  0.9545 -1.0324  0.4406
16237TIP3   OH270201   0.413   3.436   4.976 -0.3104 -0.6165 -0.0159
16237TIP3    H170202   0.416   3.343   4.954 -0.8264 -0.7305  0.3993
16237TIP3    H270203   0.470   3.445   5.052  0.8362 -0.3525 -0.8658
16238TIP3   OH270204   6.283   2.191  15.824 -0.4874  0.0085  0.2854
16238TIP3    H170205   6.274   2.145  15.741  0.8613 -0.7313  0.5276
16238TIP3    H270206   6.367   2.236  15.818 -0.0310 -0.6314  1.5024
16239TIP3   OH270207   0.113   3.545   0.547 -0.0717  0.5978 -0.1384
16239TIP3    H170208   0.165   3.624   0.537  0.8909 -0.0676 -0.4967
16239TIP3    H270209   0.164   3.476   0.505 -0.3167 -0.4511  1.1846
16240TIP3   OH270210   4.634   2.156   3.774 -0.4932  0.1003 -0.2709
16240TIP3    H170211   4.599   2.245   3.771  0.3798  0.4608 -0.0394
16240TIP3    H270212   4.703   2.155   3.709  1.4492  0.4645  1.6746
16241TIP3   OH270213   1.043   2.578  15.620 -0.3559  0.0175 -0.3735
16241TIP3    H170214   1.027   2.485  15.600 -2.5502  0.6285 -1.8705
16241TIP3    H270215   1.076   2.614  15.538  1.8675  0.3487  0.5972
16242TIP3   OH270216   0.622   1.415  16.982  0.5031 -0.5808  0.7789
16242TIP3    H170217   0.601   1.323  17.001  0.1489 -0.7517 -0.3840
16242TIP3    H270218   0.545   1.464  17.013 -0.9942 -1.0485 -1.9181
16243TIP3   OH270219   2.103   0.936  11.614  0.1524 -0.1575 -0.8514
16243TIP3    H170220   2.062   1.000  11.556 -0.0142 -2.1780 -3.1349
16243TIP3    H270221   2.186   0.976  11.639 -0.4913  1.4511 -1.1590
16244TIP3   OH270222   1.953   2.610  13.634 -0.4767 -0.4141 -0.0406
16244TIP3    H170223   1.940   2.528  13.587  0.0537 -1.9780  2.3841
16244TIP3    H270224   2.045   2.609  13.659  0.5438  2.6206 -2.7729
16245TIP3   OH270225   1.499   5.011  13.683  0.8917  0.7147  0.1745
16245TIP3    H170226   1.478   5.005  13.590  0.8165 -0.3951  0.2539
16245TIP3    H270227   1.470   5.099  13.709  1.5533  1.2947 -0.9978
16246TIP3   OH270228   0.497   0.968   4.882  0.3874 -0.0962  0.2674
16246TIP3    H170229   0.431   1.020   4.836  2.1447  1.1261 -0.9953
16246TIP3    H270230   0.501   0.886   4.833 -1.3354 -0.8844  1.3659
16247TIP3   OH270231   3.893   1.875  16.488 -0.6784 -0.6607  0.4377
16247TIP3    H170232   3.839   1.951  16.466 -0.5771 -0.3444  1.2396
16247TIP3    H270233   3.932   1.849  16.405  0.4074  1.0533  0.3495
16248TIP3   OH270234   1.141   2.371   4.919 -0.5185  0.0802  0.7373
16248TIP3    H170235   1.201   2.441   4.942 -0.1561 -0.1530  0.5034
16248TIP3    H270236   1.081   2.410   4.855  1.0387 -0.4106 -1.0970
16249TIP3   OH270237   2.713   2.187   0.059  0.2886 -0.3703 -0.7441
16249TIP3    H170238   2.735   2.199  -0.033  0.7160 -1.4129 -0.7954
16249TIP3    H270239   2.759   2.106   0.084 -1.6176 -1.3572 -0.2377
16250TIP3   OH270240   3.465   4.848   1.072  0.1330  0.0809 -0.0395
16250TIP3    H170241   3.507   4.762   1.075 -0.9473 -0.5268 -1.4498
16250TIP3    H270242   3.508   4.894   1.001  0.9844  0.8812  0.9720
16251TIP3   OH270243   0.010   2.579  16.728  0.1126  0.1741 -0.1306
16251TIP3    H170244   0.023   2.506  16.789 -3.1198 -0.3586  0.1118
16251TIP3    H270245   0.028   2.657  16.781 -0.8028 -0.3471  1.0028
16252TIP3   OH270246   1.333   0.660  12.619 -0.4191  0.5534  0.1328
16252TIP3    H170247   1.413   0.640  12.570  0.2106 -0.7349  1.6400
16252TIP3    H270248   1.262   0.638  12.558  0.3422 -1.2757 -0.1528
16253TIP3   OH270249   1.865   3.568   1.102  0.5249 -0.3412 -0.3714
16253TIP3    H170250   1.803   3.612   1.160  2.0703  1.3276  0.0840
16253TIP3    H270251   1.863   3.618   1.021 -0.0549 -1.3909 -1.0211
16254TIP3   OH270252   4.983   4.383  12.063  0.1134  0.1354  0.1317
16254TIP3    H170253   4.972   4.338  11.979  1.3926 -1.1867  0.6302
16254TIP3    H270254   5.076   4.371  12.085  0.6413  3.3313  0.1687
16255TIP3   OH270255   2.045   2.899   2.316  0.1593 -0.4677  0.2333
16255TIP3    H170256   2.019   2.863   2.232 -0.7284 -0.7864  0.6329
16255TIP3    H270257   2.002   2.985   2.320 -0.1624 -0.6409  0.5437
16256TIP3   OH270258   0.594   5.173  15.167 -0.0551 -0.5811 -0.9311
16256TIP3    H170259   0.557   5.245  15.217  1.2362 -0.2357 -0.4223
16256TIP3    H270260   0.606   5.208  15.079 -0.3630 -0.4951 -0.9372
16257TIP3   OH270261   5.895   0.682   0.836 -0.7190  0.1774  0.1134
16257TIP3    H170262   5.948   0.760   0.817 -2.1218  1.3173  0.7727
16257TIP3    H270263   5.814   0.696   0.788 -0.3594 -1.7124 -1.1481
16258TIP3   OH270264   4.291   5.237   0.222  0.8658 -0.2145 -0.1473
16258TIP3    H170265   4.356   5.294   0.262  0.5618  1.0556 -1.3557
16258TIP3    H270266   4.223   5.228   0.289  1.3710  0.0650  0.4118
16259TIP3   OH270267   0.727   6.665   3.954 -0.1213 -0.2691  0.1445
16259TIP3    H170268   0.759   6.746   3.994 -0.5506  0.4268 -0.8799
16259TIP3    H270269   0.641   6.650   3.993  0.3869 -0.8128  1.0963
16260TIP3   OH270270   2.385   2.333   1.204 -0.1913  0.1553 -0.5211
16260TIP3    H170271   2.358   2.413   1.250 -2.8370 -0.8748 -0.1100
16260TIP3    H270272   2.415   2.275   1.273  0.7317  0.3906 -0.7096
16261TIP3   OH270273   1.511   3.249  12.189 -0.3074 -0.5600  0.5157
16261TIP3    H170274   1.545   3.328  12.146  0.7230 -0.8488  0.7690
16261TIP3    H270275   1.417   3.251  12.172 -0.1523  0.2016 -0.3275
16262TIP3   OH270276   5.104   1.269  14.247  0.2927  0.1360 -0.1776
16262TIP3    H170277   5.039   1.234  14.308 -0.9679  3.0471  0.3259
16262TIP3    H270278   5.073   1.241  14.161 -0.6323  0.0337  0.1800
16263TIP3   OH270279   1.036   1.817  15.226 -0.6795  0.0279  0.5030
16263TIP3    H170280   1.129   1.836  15.220 -0.2417 -1.3617  2.1806
16263TIP3    H270281   1.004   1.824  15.136  1.3583 -0.9608 -0.3546
16264TIP3   OH270282   2.414   3.863   3.975  0.0118  0.1325 -0.0977
16264TIP3    H170283   2.501   3.832   4.003  0.5773  0.7911 -1.0771
16264TIP3    H270284   2.385   3.798   3.912  0.2059  0.3987 -0.4640
16265TIP3   OH270285   1.443   4.358  14.405  0.1023 -0.3872  0.1268
16265TIP3    H170286   1.532   4.326  14.415  0.2542  0.7390  4.3615
16265TIP3    H270287   1.391   4.280  14.385  1.4706 -1.9326  2.2724
16266TIP3   OH270288   5.515   2.530  12.606  0.1019  0.1680 -0.6683
16266TIP3    H170289   5.423   2.532  12.632  0.2357 -1.7018  0.1575
16266TIP3    H270290   5.558   2.592  12.665 -0.5852  0.8965 -0.9198
16267TIP3   OH270291   5.955   4.720  16.413 -0.2415 -0.0432  0.0360
16267TIP3    H170292   6.045   4.702  16.441 -0.2299 -0.2188 -0.1107
16267TIP3    H270293   5.921   4.635  16.384  0.2891  0.3583 -1.9756
16268TIP3   OH270294   5.972   3.958  15.205  0.9757 -0.4314 -0.0298
16268TIP3    H170295   6.038   3.989  15.267  0.4182  0.5453  0.0978
16268TIP3    H270296   5.899   4.019  15.216  0.5606 -0.7217 -1.0831
16269TIP3   OH270297   2.238   4.886  11.928 -0.4035  0.1159  0.0301
16269TIP3    H170298   2.187   4.807  11.912 -2.7298  1.6361 -0.6440
16269TIP3    H270299   2.179   4.944  11.977 -0.1099  2.7114 -2.4011
16270TIP3   OH270300   2.607   4.091  10.777  0.2566 -0.9592 -0.0136
16270TIP3    H170301   2.702   4.081  10.772  0.5076 -0.9049  2.9362
16270TIP3    H270302   2.578   4.017  10.830 -0.9321  0.6350  1.6425
16271TIP3   OH270303   0.154   0.669   6.038 -0.2615 -0.7108  0.0493
16271TIP3    H170304   0.143   0.680   6.133  2.0214 -1.4994  0.4719
16271TIP3    H270305   0.200   0.586   6.028  3.6088  1.3189 -1.3209
16272TIP3   OH270306   3.124   5.358   2.338 -0.3498  0.4116  0.2654
16272TIP3    H170307   3.064   5.315   2.277  0.9647 -0.3023 -0.5724
16272TIP3    H270308   3.136   5.445   2.302 -1.6110  0.9050  0.9744
16273TIP3   OH270309   3.865   1.671  15.525  0.1158 -0.2640 -0.0450
16273TIP3    H170310   3.857   1.730  15.450 -0.3644  1.0407  0.9996
16273TIP3    H270311   3.781   1.676  15.570 -0.9427 -3.7574 -1.2699
16274TIP3   OH270312   1.936   1.508  16.718 -0.4949  0.1466  0.4992
16274TIP3    H170313   1.964   1.596  16.743  2.0765  0.0683 -1.6387
16274TIP3    H270314   1.943   1.456  16.798  1.7484  1.1037  1.0011
16275TIP3   OH270315   1.506   5.603  16.666 -0.0527  0.1489 -0.0545
16275TIP3    H170316   1.424   5.554  16.676  0.4568 -0.6612  0.3018
16275TIP3    H270317   1.495   5.653  16.586  0.6283 -3.1101 -2.3907
16276TIP3   OH270318   5.994   4.245   6.059  0.1105 -0.2180  0.0579
16276TIP3    H170319   6.056   4.201   6.117 -0.2477  0.8046  1.2727
16276TIP3    H270320   5.912   4.196   6.070 -0.2347  0.5681  1.2552
16277TIP3   OH270321   1.875   0.542   0.520 -0.6177  0.2367  0.1361
16277TIP3    H170322   1.900   0.622   0.566 -1.7019 -0.0263  1.2317
16277TIP3    H270323   1.788   0.561   0.486  0.3097  0.5776 -2.2451
16278TIP3   OH270324   2.408   1.407   4.020 -0.4617  0.1368  0.3043
16278TIP3    H170325   2.461   1.487   4.027 -1.5026  0.7983  1.0662
16278TIP3    H270326   2.453   1.354   3.955 -0.2097  1.7333 -0.9063
16279TIP3   OH270327   6.415   2.099   1.434 -0.2040 -0.1042  0.1670
16279TIP3    H170328   6.433   2.060   1.348 -1.5843  0.6384 -0.4857
16279TIP3    H270329   6.452   2.187   1.428 -1.8116  0.5778 -0.3305
16280TIP3   OH270330   0.811   3.685  14.268  0.0153  0.4948 -0.2278
16280TIP3    H170331   0.716   3.700  14.276  0.3640  2.2938  1.2792
16280TIP3    H270332   0.826   3.603  14.315 -0.7086  0.5590  0.1318
16281TIP3   OH270333   0.654   3.085  13.744  0.2504  0.2619 -0.3931
16281TIP3    H170334   0.719   3.018  13.766 -0.7639 -0.7703 -0.3966
16281TIP3    H270335   0.608   3.050  13.667 -2.2834 -0.5450  1.3291
16282TIP3   OH270336   1.440   2.604   4.277 -0.2246  0.1226 -0.1891
16282TIP3    H170337   1.469   2.650   4.356  1.9080 -1.1043 -0.2012
16282TIP3    H270338   1.442   2.671   4.208 -0.0520  0.7038  0.3661
16283TIP3   OH270339   6.655   4.150   0.868 -0.0679 -0.0982  0.4650
16283TIP3    H170340   6.636   4.153   0.962  0.0888 -0.3066  0.5058
16283TIP3    H270341   6.599   4.079   0.835  0.0639 -0.1976  0.4493
16284TIP3   OH270342   6.101   2.737   5.415  0.3526 -0.1429  0.1669
16284TIP3    H170343   6.110   2.782   5.499 -0.3817  0.6098 -0.1504
16284TIP3    H270344   6.072   2.805   5.354 -1.2665 -1.1308 -0.2176
16285TIP3   OH270345   1.187   5.843   3.210 -0.6099 -0.0730 -0.1658
16285TIP3    H170346   1.122   5.892   3.261  1.5996  1.1521  1.6651
16285TIP3    H270347   1.234   5.910   3.160  1.1880 -0.4851  0.8838
16286TIP3   OH270348   2.180   0.899  16.606  0.1587 -0.4007  0.0597
16286TIP3    H170349   2.093   0.902  16.646  0.0458  0.2445 -0.2195
16286TIP3    H270350   2.233   0.849  16.668 -0.0495  0.4344  0.9284
16287TIP3   OH270351   1.494   0.242   3.296 -0.8526 -0.0408 -0.0416
16287TIP3    H170352   1.472   0.163   3.346 -0.6741 -0.6804 -0.9446
16287TIP3    H270353   1.416   0.259   3.243 -1.0234  0.6012  0.4094
16288TIP3   OH270354   1.049   5.476   0.258  0.8454  0.1228 -0.5574
16288TIP3    H170355   1.032   5.457   0.166 -0.5863 -0.5075 -0.1848
16288TIP3    H270356   1.089   5.563   0.258  1.0486  0.0418 -1.7781
16289TIP3   OH270357   3.182   6.585  15.984 -0.7198  0.0244 -0.6729
16289TIP3    H170358   3.224   6.651  16.039  0.5804 -0.2886 -1.2302
16289TIP3    H270359   3.089   6.591  16.005 -0.4306  0.8986  0.4804
16290TIP3   OH270360   2.025   5.051  14.423 -0.4240  0.1538  0.1626
16290TIP3    H170361   2.031   4.967  14.377  0.6884 -0.1528  0.8383
16290TIP3    H270362   2.075   5.039  14.503 -0.5629  1.3534  0.4539
16291TIP3   OH270363   1.830   2.264  11.069 -0.7757  0.4369 -0.2558
16291TIP3    H170364   1.856   2.346  11.027  2.4231  0.5028  1.5344
16291TIP3    H270365   1.860   2.195  11.009  1.2359  0.5623  0.5636
16292TIP3   OH270366   2.227   0.193  16.798  0.2163  0.3640 -0.4664
16292TIP3    H170367   2.214   0.284  16.773 -1.2740  0.2649 -0.1201
16292TIP3    H270368   2.172   0.181  16.876  0.1078 -0.9241 -0.7201
16293TIP3   OH270369   0.104   5.172   5.352  0.2062 -0.4777 -0.1657
16293TIP3    H170370   0.062   5.253   5.323 -0.9808 -0.8283  0.4925
16293TIP3    H270371   0.129   5.127   5.271 -0.2043  0.0001 -0.5665
16294TIP3   OH270372   1.267   4.105   4.679  0.9506  0.3180  0.4174
16294TIP3    H170373   1.258   4.015   4.648  0.2755  0.2436  0.8128
16294TIP3    H270374   1.177   4.132   4.700  0.9145  1.5985 -1.1490
16295TIP3   OH270375   1.999   6.503   6.077 -0.3024 -0.3034  0.4535
16295TIP3    H170376   2.073   6.520   6.135 -0.7949  1.6590  0.5599
16295TIP3    H270377   2.035   6.513   5.989 -0.0093 -1.3501  0.4371
16296TIP3   OH270378   1.836   3.197  12.086  0.3550 -0.0837 -0.0955
16296TIP3    H170379   1.754   3.212  12.134 -1.3798 -0.0650 -2.8839
16296TIP3    H270380   1.842   3.101  12.079 -0.0807 -0.0627 -0.8819
16297TIP3   OH270381   1.265   2.399   3.073  0.1269  0.0765  0.8077
16297TIP3    H170382   1.328   2.465   3.043  1.1461 -1.3908 -0.4295
16297TIP3    H270383   1.308   2.359   3.149 -0.6607  1.0380  1.7980
16298TIP3   OH270384   1.936   2.162   5.738  0.4359 -0.4672 -0.0220
16298TIP3    H170385   1.968   2.146   5.826  0.5918  0.2719  0.0621
16298TIP3    H270386   1.866   2.227   5.749  1.4611  0.7630 -0.5847
16299TIP3   OH270387   6.742   2.552   5.025  0.4600 -0.2792 -0.1635
16299TIP3    H170388   6.717   2.644   5.035  1.2774 -0.1110  0.4553
16299TIP3    H270389   6.739   2.517   5.114  0.7034 -0.7090 -0.3202
16300TIP3   OH270390   4.547   6.458   2.247  0.9677  0.9470  0.0404
16300TIP3    H170391   4.615   6.524   2.240  0.2361  1.8958  1.3223
16300TIP3    H270392   4.594   6.376   2.261  1.9245  1.9641  3.8875
16301TIP3   OH270393   3.699   5.192   5.106  0.0296  0.5179 -0.6598
16301TIP3    H170394   3.787   5.165   5.079  0.0216  0.1851 -0.3552
16301TIP3    H270395   3.714   5.245   5.184 -0.1443 -0.8255  0.3139
16302TIP3   OH270396   3.993   6.047  16.261 -0.0754 -0.2659 -0.3054
16302TIP3    H170397   3.960   6.080  16.178  2.0391  0.3240 -0.9782
16302TIP3    H270398   3.999   5.952  16.249  1.3571 -0.0822 -1.3174
16303TIP3   OH270399   4.491   0.616  11.012  0.5322  0.1355 -0.3413
16303TIP3    H170400   4.405   0.576  10.996  0.1728  0.5565  0.4885
16303TIP3    H270401   4.535   0.613  10.927 -0.9083  1.3840 -1.1739
16304TIP3   OH270402   1.536   6.615  17.143 -0.1151  0.1303 -0.2266
16304TIP3    H170403   1.467   6.660  17.191 -0.3254 -0.7841  0.3656
16304TIP3    H270404   1.595   6.684  17.115 -0.0199  0.7235  1.3089
16305TIP3   OH270405   2.245   1.825  15.441 -0.1154  0.0947 -0.1857
16305TIP3    H170406   2.160   1.856  15.473 -0.0483  1.3298 -1.1405
16305TIP3    H270407   2.226   1.740  15.401 -0.8391  0.1930 -0.0611
16306TIP3   OH270408   3.295   2.936   2.672 -0.3137  0.0583  0.0801
16306TIP3    H170409   3.218   2.973   2.631 -0.2885 -0.8588 -0.8268
16306TIP3    H270410   3.267   2.914   2.761 -0.4803  1.6851  0.4532
16307TIP3   OH270411   3.540   3.012   1.525 -0.5392 -0.3129 -0.1356
16307TIP3    H170412   3.545   3.087   1.583 -0.1722 -0.8545  0.5466
16307TIP3    H270413   3.527   3.050   1.438  0.3432  0.5583  0.1012
16308TIP3   OH270414   1.699   1.291   1.259 -0.0599  0.9093 -0.3434
16308TIP3    H170415   1.740   1.372   1.290  2.0060 -0.8208  1.8647
16308TIP3    H270416   1.771   1.228   1.256 -1.7618 -1.1096 -0.9792
16309TIP3   OH270417   1.007   2.682  11.919 -0.6485 -0.4577 -0.4921
16309TIP3    H170418   1.014   2.649  12.008  1.5320 -1.1227 -0.8609
16309TIP3    H270419   0.997   2.777  11.930 -1.0692 -0.5921  0.4438
16310TIP3   OH270420   4.810   3.802  13.404 -0.4117 -0.1549  0.1036
16310TIP3    H170421   4.867   3.877  13.384 -1.3362  0.1644 -1.4908
16310TIP3    H270422   4.731   3.841  13.440 -0.8614 -0.3552 -0.6489
16311TIP3   OH270423   1.868   1.432  16.477  0.0828 -0.6363  0.4413
16311TIP3    H170424   1.871   1.517  16.433  0.6737 -1.1078 -0.4745
16311TIP3    H270425   1.892   1.450  16.568 -0.4379  0.2555  0.4126
16312TIP3   OH270426   5.090   0.564   5.080 -0.3832 -0.0539  0.1372
16312TIP3    H170427   5.116   0.505   5.010 -1.3182 -0.5164  0.1616
16312TIP3    H270428   5.111   0.651   5.047  0.2148 -0.3380 -0.2524
16313TIP3   OH270429   6.722   1.804  12.315  0.3106 -0.0835 -0.2552
16313TIP3    H170430   6.731   1.729  12.257  1.1122 -1.0707  1.1131
16313TIP3    H270431   6.784   1.788  12.386 -0.8857  0.9149  1.0753
16314TIP3   OH270432   5.641   0.270  16.022  0.0186 -0.5064 -0.4568
16314TIP3    H170433   5.659   0.228  15.938 -0.4116 -1.2903 -0.1672
16314TIP3    H270434   5.569   0.331  16.004 -1.2788 -1.9536 -0.3053
16315TIP3   OH270435   0.252   5.504  12.596  0.0332 -0.4260 -0.2654
16315TIP3    H170436   0.211   5.488  12.681  0.1775 -2.6695 -0.5665
16315TIP3    H270437   0.212   5.585  12.565 -1.0776 -0.3392  1.3033
16316TIP3   OH270438   3.452   5.144  14.847 -0.1053 -1.0874  0.2624
16316TIP3    H170439   3.467   5.181  14.934  1.6746  1.1714 -0.9219
16316TIP3    H270440   3.511   5.068  14.844 -0.5919 -1.5289  1.1810
16317TIP3   OH270441   3.568   5.349  13.802 -0.1481 -0.0849 -0.3920
16317TIP3    H170442   3.591   5.272  13.750  0.8557  0.8093 -1.3265
16317TIP3    H270443   3.527   5.409  13.740 -1.1479  0.0517  0.3794
16318TIP3   OH270444   6.482   5.900  13.451  0.2312 -0.5231 -0.5652
16318TIP3    H170445   6.570   5.929  13.428  1.8581 -3.0973  1.7979
16318TIP3    H270446   6.471   5.817  13.405 -1.1558 -0.0737 -1.1048
16319TIP3   OH270447   2.046   5.824   0.518 -0.2663 -0.0370 -0.2219
16319TIP3    H170448   1.967   5.841   0.569 -0.3270 -0.2147 -0.2564
16319TIP3    H270449   2.071   5.910   0.483  0.1677  0.2060  0.6659
16320TIP3   OH270450   0.098   6.686   3.212  0.2831  0.0958  0.2896
16320TIP3    H170451   0.065   6.727   3.132  0.8674 -0.7605 -0.4051
16320TIP3    H270452   0.022   6.682   3.270 -0.1142  0.8425 -0.1725
16321TIP3   OH270453   6.611   6.490  14.573  0.4457 -0.0261 -0.2709
16321TIP3    H170454   6.565   6.553  14.518  0.5528 -1.0029 -1.5392
16321TIP3    H270455   6.697   6.529  14.587 -0.0205  0.8276  0.3214
16322TIP3   OH270456   0.253   4.710  16.049 -0.4166 -0.1457 -0.2251
16322TIP3    H170457   0.173   4.728  15.999 -0.8384  0.2903  0.5930
16322TIP3    H270458   0.223   4.700  16.139  0.3899 -0.5298  0.0064
16323TIP3   OH270459   6.271   5.181   0.928 -0.1559  0.0137  1.0332
16323TIP3    H170460   6.235   5.175   1.017 -1.6186  1.8168  0.6408
16323TIP3    H270461   6.277   5.275   0.912  1.3399 -0.2789 -0.3212
16324TIP3   OH270462   1.893   3.619   4.814  0.1448 -0.0808 -0.2801
16324TIP3    H170463   1.846   3.595   4.734  0.5425  2.0235 -1.2529
16324TIP3    H270464   1.985   3.601   4.793  0.0129 -2.6521  1.0081
16325TIP3   OH270465   2.419   2.958  13.735  0.4763  0.0566  0.0711
16325TIP3    H170466   2.345   3.018  13.734  1.4982  1.4202  1.4081
16325TIP3    H270467   2.414   2.913  13.651 -0.4906  1.8355 -0.8947
16326TIP3   OH270468   1.870   2.815  17.194  0.4154  0.2722  0.4170
16326TIP3    H170469   1.914   2.893  17.227  0.8051  0.3743 -0.3089
16326TIP3    H270470   1.884   2.818  17.099  0.9390 -0.9775  0.4352
16327TIP3   OH270471   1.517   0.918  16.769  0.2751  0.6439 -0.2583
16327TIP3    H170472   1.595   0.944  16.720  0.0176  0.6005 -0.6913
16327TIP3    H270473   1.446   0.919  16.705 -0.0945  0.7419  0.1428
16328TIP3   OH270474   6.723   4.377   4.443  0.2532  0.0217 -0.6285
16328TIP3    H170475   6.628   4.378   4.443  0.2117 -1.6632 -0.5107
16328TIP3    H270476   6.748   4.469   4.453 -1.3483  0.4693 -0.5177
16329TIP3   OH270477   1.993   0.580   5.614 -0.2602  0.9896  0.3730
16329TIP3    H170478   2.060   0.526   5.571  0.4987  1.2894  1.1394
16329TIP3    H270479   2.015   0.575   5.707 -0.6919  1.9313  0.5336
16330TIP3   OH270480   1.638   1.978  15.632  0.1243  0.0302 -0.0983
16330TIP3    H170481   1.689   2.054  15.660  0.3425  0.0822 -0.6291
16330TIP3    H270482   1.702   1.907  15.627 -0.1035 -0.2273  0.5256
16331TIP3   OH270483   5.560   5.293  12.924  0.1338  0.4403  0.2464
16331TIP3    H170484   5.508   5.272  12.846  1.9952  1.1059 -1.2308
16331TIP3    H270485   5.510   5.362  12.968 -0.3730  0.9147 -1.0160
16332TIP3   OH270486   0.347   0.291  14.244  0.2162  0.2227  0.8635
16332TIP3    H170487   0.407   0.293  14.170 -0.5725  1.8977  0.2152
16332TIP3    H270488   0.402   0.308  14.320  0.7183  0.6753  0.4069
16333TIP3   OH270489   0.935   0.750  13.127 -0.5106 -0.4953 -1.0100
16333TIP3    H170490   0.930   0.846  13.133  3.2541 -0.2106  0.1789
16333TIP3    H270491   0.909   0.719  13.214 -0.1682 -0.4051 -0.8720
16334TIP3   OH270492   5.727   2.813  15.062 -0.2847 -0.7726  0.0152
16334TIP3    H170493   5.649   2.838  15.012  0.3333  0.7511 -0.2422
16334TIP3    H270494   5.745   2.723  15.035  1.3709  0.6241 -4.4532
16335TIP3   OH270495   1.789   2.405   4.910  0.1672 -0.5234 -0.5986
16335TIP3    H170496   1.876   2.398   4.871 -0.2482  2.5702 -2.3585
16335TIP3    H270497   1.787   2.492   4.950 -1.9466 -0.7508 -0.0872
16336TIP3   OH270498   4.443   1.342  13.056 -0.0564  0.6547 -0.0970
16336TIP3    H170499   4.531   1.337  13.020  0.0175  0.3619  0.1186
16336TIP3    H270500   4.401   1.261  13.026 -0.6674  1.3734 -1.2785
16337TIP3   OH270501   4.979   3.508   1.604 -0.0239  0.3856 -0.1041
16337TIP3    H170502   4.939   3.534   1.686  0.9605  0.1795  0.4550
16337TIP3    H270503   4.976   3.586   1.549  0.8765  1.0570  0.7555
16338TIP3   OH270504   3.566   2.981  11.821 -0.1093  0.2345 -0.1195
16338TIP3    H170505   3.657   2.954  11.833  0.7634  2.2124 -1.6636
16338TIP3    H270506   3.531   2.920  11.757  1.0654  1.1291 -1.6922
16339TIP3   OH270507   5.708   5.811  15.004  0.3704 -0.6782 -0.8215
16339TIP3    H170508   5.660   5.894  15.009  1.4842  0.0114 -1.2354
16339TIP3    H270509   5.703   5.785  14.912  0.9449 -0.5007 -0.9058
16340TIP3   OH270510   6.357   6.521  15.683  0.3826  0.6090 -0.1369
16340TIP3    H170511   6.452   6.509  15.681  0.5527  1.6122  0.8366
16340TIP3    H270512   6.343   6.589  15.749 -1.0868 -0.1878  0.4285
16341TIP3   OH270513   3.519   0.531  16.671 -0.5201 -0.5671 -0.1464
16341TIP3    H170514   3.526   0.452  16.724  0.2677  0.8281  1.9532
16341TIP3    H270515   3.447   0.580  16.711 -0.9611 -0.1642 -1.3880
16342TIP3   OH270516   4.888   3.518  11.437 -0.8569 -0.3517  0.1292
16342TIP3    H170517   4.857   3.552  11.522  0.3925 -1.2455  0.9760
16342TIP3    H270518   4.955   3.454  11.460  0.9948  0.8654 -1.6155
16343TIP3   OH270519   0.953   1.446  13.928 -0.8781  0.5110 -0.2208
16343TIP3    H170520   0.869   1.437  13.882 -0.6600 -1.3032 -0.3360
16343TIP3    H270521   0.941   1.395  14.009 -0.0079  0.5658 -0.0538
16344TIP3   OH270522   5.077   0.199   2.176  0.0504  0.2675 -0.9591
16344TIP3    H170523   5.069   0.105   2.158 -1.1436  0.5353 -1.9920
16344TIP3    H270524   5.002   0.218   2.233  1.3885  0.2558  0.8874
16345TIP3   OH270525   5.252   4.282   3.144 -1.0488  0.2274  0.1483
16345TIP3    H170526   5.253   4.311   3.235 -0.5304  0.8909 -0.0644
16345TIP3    H270527   5.316   4.211   3.141 -0.8271  0.4228  0.2335
16346TIP3   OH270528   1.335   6.728   5.014  0.4404  0.1934 -0.0904
16346TIP3    H170529   1.378   6.803   4.972  0.7000  0.3728  0.4809
16346TIP3    H270530   1.380   6.651   4.978  1.2057  0.3764  0.4518
16347TIP3   OH270531   5.600   6.300   1.202  0.3340 -0.3359  0.0956
16347TIP3    H170532   5.508   6.273   1.195  0.7835 -2.2474  0.7555
16347TIP3    H270533   5.649   6.221   1.181  1.8394  0.5678  0.0809
16348TIP3   OH270534   4.095   2.432   5.363 -0.3424 -0.3989  0.0221
16348TIP3    H170535   4.006   2.409   5.392  0.4079 -0.2127  2.7278
16348TIP3    H270536   4.149   2.358   5.391  0.4054 -0.5008 -1.5927
16349TIP3   OH270537   4.002   2.556  12.211  0.6523  0.5627  0.0747
16349TIP3    H170538   4.053   2.612  12.269 -0.1864  1.7290 -0.2632
16349TIP3    H270539   4.048   2.560  12.127  1.5612 -0.6869  0.4886
16350TIP3   OH270540   1.221   0.115  10.904  0.1338  0.1786  0.4486
16350TIP3    H170541   1.294   0.100  10.963 -0.5396 -1.1371  0.9935
16350TIP3    H270542   1.259   0.114  10.817  0.9470  0.8213  0.7917
16351TIP3   OH270543   3.842   4.746  15.797 -0.3695  0.0909  0.1297
16351TIP3    H170544   3.925   4.717  15.757 -0.8400  0.8979 -1.5378
16351TIP3    H270545   3.838   4.839  15.778 -1.8491 -0.0159 -0.1633
16352TIP3   OH270546   2.091   0.123   3.578  0.7763  1.0192 -0.3442
16352TIP3    H170547   2.053   0.162   3.499 -0.7055  0.4890  0.0784
16352TIP3    H270548   2.112   0.033   3.552  1.7238  1.2817 -0.5489
16353TIP3   OH270549   5.750   3.533   0.366  0.0615 -0.1549  0.1944
16353TIP3    H170550   5.767   3.504   0.456 -0.6015  3.4835  1.6852
16353TIP3    H270551   5.663   3.498   0.346 -0.2148 -0.2212  1.4013
16354TIP3   OH270552   5.729   4.637  15.374  0.0436  0.1236 -0.1738
16354TIP3    H170553   5.664   4.567  15.379  0.2991 -0.1678 -0.8757
16354TIP3    H270554   5.800   4.609  15.432  0.7199 -0.8185 -1.4262
16355TIP3   OH270555   3.867   6.481   6.388  0.4130 -0.0493  0.2360
16355TIP3    H170556   3.773   6.500   6.390  0.2923 -0.5910 -0.0482
16355TIP3    H270557   3.908   6.566   6.371 -0.0336  0.1678  0.2239
16356TIP3   OH270558   6.449   1.672  14.588 -0.0846  0.0208 -0.4309
16356TIP3    H170559   6.369   1.725  14.593  0.2646  0.5545 -0.5004
16356TIP3    H270560   6.417   1.582  14.583 -0.6692  0.1955  0.0905
16357TIP3   OH270561   4.150   3.779   0.543  0.5000 -0.2650 -0.7326
16357TIP3    H170562   4.205   3.702   0.525  0.8041 -0.0439 -0.7616
16357TIP3    H270563   4.135   3.776   0.638  1.5312  0.3095 -0.5394
16358TIP3   OH270564   2.424   1.367   4.650  0.0877 -0.4028  0.1329
16358TIP3    H170565   2.432   1.461   4.632 -0.2033 -0.6758 -1.5312
16358TIP3    H270566   2.336   1.345   4.621 -0.4177 -0.9255  1.9174
16359TIP3   OH270567   0.487   6.060  14.345 -0.0466  0.3923  0.4119
16359TIP3    H170568   0.569   6.087  14.304 -0.8236  1.9825 -0.1515
16359TIP3    H270569   0.470   5.973  14.309 -0.1411  1.2715 -1.8237
16360TIP3   OH270570   6.465   6.393   0.627 -0.3500 -0.3739 -0.0269
16360TIP3    H170571   6.558   6.371   0.619 -0.3118 -0.0860 -0.3655
16360TIP3    H270572   6.455   6.475   0.579 -0.8830 -0.6890 -0.4670
16361TIP3   OH270573   1.113   1.632  12.467  0.0505 -0.0904  0.1418
16361TIP3    H170574   1.120   1.655  12.375  0.6804  0.5608  0.3439
16361TIP3    H270575   1.179   1.564  12.480  0.6035  0.4637  0.3023
16362TIP3   OH270576   5.784   4.836  14.543 -0.1676  0.4016 -0.5078
16362TIP3    H170577   5.779   4.896  14.618 -0.2682  2.2389 -1.8996
16362TIP3    H270578   5.753   4.889  14.469  0.6163 -1.1197 -1.9790
16363TIP3   OH270579   0.997   4.789  14.998  0.1704  0.6451  1.0327
16363TIP3    H170580   0.903   4.768  14.998  0.3075 -0.1426 -0.8811
16363TIP3    H270581   1.000   4.884  14.999 -0.6118  0.6833  1.9159
16364TIP3   OH270582   3.530   4.806   0.529 -0.0345 -0.7789 -0.2953
16364TIP3    H170583   3.607   4.755   0.504  1.3739  0.4527  1.3005
16364TIP3    H270584   3.475   4.744   0.578 -0.3006 -1.7713 -1.7736
16365TIP3   OH270585   6.631   5.921  13.180  0.2230  0.2472 -0.1658
16365TIP3    H170586   6.652   5.936  13.087  1.2061  1.0066  0.1556
16365TIP3    H270587   6.700   5.863  13.211 -0.2284 -0.1826  0.0493
16366TIP3   OH270588   5.466   4.052   2.713 -0.0191 -0.6678  0.2552
16366TIP3    H170589   5.531   4.118   2.687 -0.3102 -0.5930 -0.3113
16366TIP3    H270590   5.518   3.976   2.740  0.3084 -0.5238  0.0369
16367TIP3   OH270591   4.585   2.653   0.256  0.4518  0.4178 -0.2591
16367TIP3    H170592   4.506   2.602   0.272  0.8572  0.4176  2.0856
16367TIP3    H270593   4.561   2.743   0.280  0.4281  0.9381 -2.0967
16368TIP3   OH270594   3.280   6.387  12.401 -0.2492 -0.4928 -0.5364
16368TIP3    H170595   3.192   6.355  12.421  0.2639 -1.1450  0.8206
16368TIP3    H270596   3.338   6.313  12.418  0.5119 -0.3618 -2.2902
16369TIP3   OH270597   5.895   1.873  11.616  0.2572 -0.0550 -0.4247
16369TIP3    H170598   5.803   1.854  11.633  0.4333 -1.6739 -1.1179
16369TIP3    H270599   5.904   1.966  11.637 -1.2856 -0.1067  0.6438
16370TIP3   OH270600   2.626   1.973   5.687 -0.3584 -0.7442 -0.9197
16370TIP3    H170601   2.709   1.957   5.643 -0.9249  0.2904 -2.4628
16370TIP3    H270602   2.615   1.899   5.747  1.8186 -0.7237 -0.4184
16371TIP3   OH270603   1.787   1.243   0.751  0.1884 -0.1631 -0.2816
16371TIP3    H170604   1.844   1.252   0.675  0.4234 -0.1997 -0.1123
16371TIP3    H270605   1.699   1.262   0.718  0.2951 -0.1343 -0.5506
16372TIP3   OH270606   0.280   5.123   1.849 -0.4736 -0.8082  0.6622
16372TIP3    H170607   0.219   5.058   1.816 -1.3092 -0.3867  1.3264
16372TIP3    H270608   0.226   5.201   1.865  0.4175 -0.0997  0.3263
16373TIP3   OH270609   2.761   2.785  14.196  0.2453  0.5801 -0.2763
16373TIP3    H170610   2.786   2.778  14.104 -0.0835  0.3652 -0.3504
16373TIP3    H270611   2.693   2.852  14.197  0.0792  0.4106 -0.2237
16374TIP3   OH270612   3.679   6.533  14.685  0.0512  0.1608  0.7475
16374TIP3    H170613   3.754   6.497  14.637 -1.3698 -0.0340 -1.5182
16374TIP3    H270614   3.632   6.457  14.718 -0.4664  0.1380 -0.0168
16375TIP3   OH270615   1.575   1.325  14.620 -0.7153  0.9321 -0.5119
16375TIP3    H170616   1.598   1.236  14.646 -1.5665  1.0298  0.6837
16375TIP3    H270617   1.483   1.334  14.646 -1.3696  1.3844 -2.7791
16376TIP3   OH270618   4.623   4.397  16.714  0.0625 -0.4619  0.1316
16376TIP3    H170619   4.681   4.426  16.785 -1.3587 -0.4582  1.3350
16376TIP3    H270620   4.682   4.379  16.641  1.2751  3.7096 -0.1849
16377TIP3   OH270621   2.609   2.694  16.189 -0.2199  0.3391 -0.0071
16377TIP3    H170622   2.653   2.671  16.107 -0.1933 -2.2948  0.6757
16377TIP3    H270623   2.573   2.612  16.221 -1.5764  1.5864  1.8706
16378TIP3   OH270624   4.278   5.051  11.874 -0.0846  0.8790 -0.3073
16378TIP3    H170625   4.348   5.014  11.819 -1.7111 -0.5263 -1.5590
16378TIP3    H270626   4.244   4.976  11.924 -0.8371  1.4796  0.1071
16379TIP3   OH270627   3.816   5.024   4.257 -0.4674 -0.0840  0.3571
16379TIP3    H170628   3.794   5.079   4.332 -1.6466  0.0798 -0.0824
16379TIP3    H270629   3.880   4.962   4.290 -2.5973 -1.4905  2.1560
16380TIP3   OH270630   2.882   2.258  13.934  0.0734  0.0865 -0.2208
16380TIP3    H170631   2.821   2.262  13.860  0.1736  0.9624 -0.2713
16380TIP3    H270632   2.907   2.349  13.949 -0.5635  0.0257  1.4178
16381TIP3   OH270633   6.617   1.891  15.379  0.6413  0.0195 -0.2667
16381TIP3    H170634   6.639   1.924  15.467 -1.5568 -0.9074  0.6963
16381TIP3    H270635   6.567   1.961  15.339  1.7755  0.5044 -0.8887
16382TIP3   OH270636   5.771   2.847   2.252 -0.7854  0.2949 -0.2766
16382TIP3    H170637   5.715   2.809   2.320 -0.8866 -1.4148 -1.2489
16382TIP3    H270638   5.736   2.812   2.170  0.0020  1.4328 -1.1272
16383TIP3   OH270639   5.565   0.522  14.993  0.3369  0.2348 -0.0543
16383TIP3    H170640   5.617   0.583  15.045  0.7683  0.6543 -0.9572
16383TIP3    H270641   5.555   0.445  15.050  2.9754 -0.3495 -0.2501
16384TIP3   OH270642   5.586   2.443   5.667  0.0684  0.4399  0.3563
16384TIP3    H170643   5.609   2.534   5.688  1.4599  0.4670 -1.1340
16384TIP3    H270644   5.643   2.390   5.724 -0.0194  0.4879  0.4914
16385TIP3   OH270645   5.540   2.796   2.422 -0.7921  0.1813  0.1060
16385TIP3    H170646   5.469   2.827   2.366 -0.1935  0.4574 -0.5228
16385TIP3    H270647   5.500   2.731   2.479 -0.9005 -2.3548 -2.6150
16386TIP3   OH270648   0.029   6.498  14.165  0.2509  0.3843  0.1565
16386TIP3    H170649   0.009   6.413  14.126  2.8268  0.1790 -0.9291
16386TIP3    H270650   0.037   6.558  14.090  1.4902  0.8604  0.6445
16387TIP3   OH270651   4.354   1.870   4.061  0.2789 -0.3395 -0.2681
16387TIP3    H170652   4.364   1.965   4.050 -0.3210 -0.3347 -0.8336
16387TIP3    H270653   4.374   1.834   3.975 -1.1197 -0.5821 -0.5212
16388TIP3   OH270654   6.636   6.322  12.311  0.0412  0.0100 -0.0876
16388TIP3    H170655   6.574   6.382  12.354  0.8690  0.1628  0.9616
16388TIP3    H270656   6.585   6.280  12.242 -1.0984  0.4682  0.4369
16389TIP3   OH270657   0.146   1.020   4.918 -0.0278  0.0355 -0.4053
16389TIP3    H170658   0.192   1.037   4.836  0.2354  1.3680  0.0097
16389TIP3    H270659   0.203   1.057   4.986 -0.5628 -0.4630  0.3307
16390TIP3   OH270660   4.666   4.822  11.960 -0.1007  0.0786  0.4396
16390TIP3    H170661   4.715   4.898  11.994 -1.7287  0.3926  2.2381
16390TIP3    H270662   4.712   4.746  11.997 -0.3656  0.3285  1.3021
16391TIP3   OH270663   0.652   0.666   5.078 -0.6687  0.4062  0.0296
16391TIP3    H170664   0.747   0.666   5.091 -0.4295  0.6698 -1.5610
16391TIP3    H270665   0.617   0.682   5.165  0.7558  0.7319  0.5838
16392TIP3   OH270666   2.104   2.909  12.831  0.3267 -0.2639 -0.0254
16392TIP3    H170667   2.197   2.887  12.838  0.4957  0.8210  1.5474
16392TIP3    H270668   2.103   2.998  12.796 -0.1566 -0.4392 -0.4720
16393TIP3   OH270669   6.571   3.385   3.099 -0.4443 -0.1546  0.1946
16393TIP3    H170670   6.559   3.370   3.006 -0.8739 -0.5831  0.3115
16393TIP3    H270671   6.663   3.365   3.115  0.0315  1.4010 -0.3967
16394TIP3   OH270672   5.189   2.447  13.857  0.4143 -0.4758  0.0392
16394TIP3    H170673   5.149   2.425  13.773  2.1961 -0.5244 -0.8186
16394TIP3    H270674   5.277   2.410  13.853  0.7061 -0.0432  1.7369
16395TIP3   OH270675   5.116   3.458   3.654  0.1736  0.0310 -0.0043
16395TIP3    H170676   5.191   3.497   3.698 -1.5021  2.8502  0.6335
16395TIP3    H270677   5.096   3.519   3.583 -1.3981 -0.7074 -0.2410
16396TIP3   OH270678   1.332   5.180   0.990 -0.2228  0.1884 -0.1023
16396TIP3    H170679   1.321   5.263   0.943 -1.2956  0.4985  0.6583
16396TIP3    H270680   1.259   5.126   0.961 -0.0317 -0.1681  0.0766
16397TIP3   OH270681   4.296   5.510   2.865 -0.5879 -0.0968 -0.1047
16397TIP3    H170682   4.289   5.572   2.937 -0.9805  1.1909 -1.2141
16397TIP3    H270683   4.209   5.470   2.858 -0.9547  0.7832 -0.7188
16398TIP3   OH270684   3.217   5.586  12.013  0.2626  0.3532 -0.2654
16398TIP3    H170685   3.240   5.500  12.048  0.8056  0.6701  0.1681
16398TIP3    H270686   3.171   5.567  11.932 -0.6885 -0.3779  0.4277
16399TIP3   OH270687   2.499   4.792   2.499 -0.1769  0.6130 -0.3409
16399TIP3    H170688   2.411   4.826   2.478 -0.7564 -0.6160 -0.0017
16399TIP3    H270689   2.484   4.730   2.571  0.8135 -0.4374 -1.0005
16400TIP3   OH270690   0.981   0.172  11.063  0.0735 -0.0203  0.2908
16400TIP3    H170691   1.070   0.155  11.032 -0.2610 -0.9098 -0.2048
16400TIP3    H270692   0.928   0.177  10.984 -0.7174 -1.8922  0.6302
16401TIP3   OH270693   6.702   5.551  10.582  0.5508 -0.0251  0.4742
16401TIP3    H170694   6.622   5.510  10.551  0.0936  2.5533 -2.2746
16401TIP3    H270695   6.673   5.622  10.639  0.6452  1.6178 -1.3867
16402TIP3   OH270696   3.593   5.373  14.722  0.1179 -0.9243  0.0887
16402TIP3    H170697   3.526   5.310  14.749  0.1742 -1.5599 -1.1736
16402TIP3    H270698   3.674   5.323  14.725  0.3252 -0.5808  0.1804
16403TIP3   OH270699   3.964   2.745  12.973  0.0460 -0.5144  0.1831
16403TIP3    H170700   4.049   2.774  13.007 -0.1027  0.0181  0.1095
16403TIP3    H270701   3.909   2.824  12.976  0.1410 -0.3222 -1.6772
16404TIP3   OH270702   3.151   1.245  15.812 -0.0976 -0.4645  0.0541
16404TIP3    H170703   3.120   1.318  15.758 -2.7572  0.0738  2.0474
16404TIP3    H270704   3.178   1.287  15.894  0.9151 -1.4982  0.2601
16405TIP3   OH270705   3.598   5.625  16.006  0.1839  0.0285  0.3772
16405TIP3    H170706   3.677   5.679  16.011  0.5468 -0.4692  0.0470
16405TIP3    H270707   3.629   5.538  15.983 -0.3479 -0.4781  1.5064
16406TIP3   OH270708   4.535   4.411  12.014  0.6982 -0.4150  0.8652
16406TIP3    H170709   4.510   4.501  12.033 -1.8852 -0.8504 -0.0816
16406TIP3    H270710   4.494   4.360  12.084 -1.9200 -1.2194 -1.0811
16407TIP3   OH270711   5.268   6.174  13.292  0.6325  0.7793 -0.0145
16407TIP3    H170712   5.199   6.147  13.232  1.6156 -1.9402 -0.0438
16407TIP3    H270713   5.349   6.151  13.247  1.4809  1.5259  1.0859
16408TIP3   OH270714   2.409   6.778  10.714 -0.8140 -0.2072  0.3827
16408TIP3    H170715   2.409   6.687  10.743  0.1259 -0.3750 -0.1099
16408TIP3    H270716   2.316   6.802  10.709 -1.1622 -1.6487 -1.0344
16409TIP3   OH270717   3.290   4.477  14.239 -0.2703 -0.1173 -0.1651
16409TIP3    H170718   3.254   4.479  14.150 -1.6580 -2.5017  0.2593
16409TIP3    H270719   3.317   4.386  14.252  0.2430  0.2628  1.7526
16410TIP3   OH270720   2.580   2.004   1.822  0.2559  0.3954  0.6954
16410TIP3    H170721   2.646   2.045   1.767 -1.6870 -1.3758 -3.3132
16410TIP3    H270722   2.526   2.077   1.853 -0.7618  1.3267 -2.9039
16411TIP3   OH270723   0.359   0.246  10.569  0.1843  0.0830 -0.6784
16411TIP3    H170724   0.365   0.202  10.484  0.4035  1.1959 -1.2649
16411TIP3    H270725   0.322   0.180  10.628 -4.0022  0.4367 -2.5471
16412TIP3   OH270726   4.396   1.364   1.087  0.4102 -0.1606  0.0067
16412TIP3    H170727   4.445   1.344   1.007  1.0919 -0.8823  0.5890
16412TIP3    H270728   4.403   1.459   1.097 -0.4589  0.0549 -1.2761
16413TIP3   OH270729   6.187   3.710   5.104 -0.1675  0.5972  0.3966
16413TIP3    H170730   6.170   3.645   5.173  1.5776 -0.2326  0.0906
16413TIP3    H270731   6.102   3.752   5.090 -1.4553 -1.7867  0.4217
16414TIP3   OH270732   5.477   1.794  14.577 -0.0601  0.1793  0.2598
16414TIP3    H170733   5.426   1.761  14.503  1.0773  0.9156 -0.8944
16414TIP3    H270734   5.466   1.728  14.645 -0.7009 -0.7923 -0.7525
16415TIP3   OH270735   5.116   1.344  15.266 -0.1480  0.1919 -0.1502
16415TIP3    H170736   5.096   1.265  15.214 -0.4372 -0.4788  0.9524
16415TIP3    H270737   5.091   1.321  15.355  2.2195  0.5979  0.6788
16416TIP3   OH270738   4.638   3.324   4.407  0.0770 -0.2320 -0.3045
16416TIP3    H170739   4.672   3.350   4.321  2.2064 -0.3726  0.4329
16416TIP3    H270740   4.663   3.395   4.466 -3.5700  1.1057 -0.1336
16417TIP3   OH270741   2.690   6.536  12.755 -0.1360  0.5036  0.1747
16417TIP3    H170742   2.657   6.566  12.670 -0.7223 -0.1403  0.1679
16417TIP3    H270743   2.627   6.571  12.818  0.9573  2.0194  0.4822
16418TIP3   OH270744   1.654   6.517  12.720  0.1270 -0.1808 -0.9585
16418TIP3    H170745   1.681   6.606  12.743  0.7203 -0.3825 -0.8615
16418TIP3    H270746   1.604   6.487  12.796  1.0422 -0.4033 -0.4368
16419TIP3   OH270747   3.614   3.032  15.846  0.5041  0.1311 -0.0024
16419TIP3    H170748   3.547   3.096  15.870  0.9061  0.6152 -0.1505
16419TIP3    H270749   3.685   3.048  15.908  0.0263 -1.1708  0.9309
16420TIP3   OH270750   1.479   4.356   3.758 -0.4920  0.4297 -0.1410
16420TIP3    H170751   1.512   4.373   3.669  0.4412 -1.1699 -0.1319
16420TIP3    H270752   1.384   4.362   3.749 -0.4052  0.5116 -1.2072
16421TIP3   OH270753   0.283   5.440   4.136  0.2332 -0.2404 -0.6082
16421TIP3    H170754   0.345   5.374   4.103 -0.7663 -0.7479 -1.5388
16421TIP3    H270755   0.202   5.421   4.089 -0.0929  1.6477 -0.8711
16422TIP3   OH270756   4.063   6.488   5.770  0.6218 -0.1740 -0.4893
16422TIP3    H170757   4.104   6.572   5.750  2.5159 -0.5803  1.2603
16422TIP3    H270758   4.007   6.506   5.846  1.7981 -0.6253  0.5215
16423TIP3   OH270759   5.041   0.670  11.935  0.2006 -0.1522  0.3893
16423TIP3    H170760   5.097   0.731  11.888 -0.9746  0.4847 -0.2349
16423TIP3    H270761   4.964   0.659  11.879 -0.2702 -1.0703  1.1709
16424TIP3   OH270762   2.649   3.886  13.038  0.2743  0.4330  0.1338
16424TIP3    H170763   2.610   3.973  13.043  1.6697  1.0687  0.6434
16424TIP3    H270764   2.584   3.828  13.075 -0.6370  1.2808 -0.0962
16425TIP3   OH270765   0.632   6.165   0.307 -0.6740  0.2307  0.0836
16425TIP3    H170766   0.670   6.208   0.230  0.0815  0.5168  0.6053
16425TIP3    H270767   0.579   6.094   0.270  0.7842 -0.5290 -0.6734
16426TIP3   OH270768   6.727   5.266  11.633  0.4266 -0.2700  0.1965
16426TIP3    H170769   6.664   5.211  11.586  0.4238 -0.8281  0.8377
16426TIP3    H270770   6.770   5.317  11.565 -0.0148 -0.6108 -0.3474
16427TIP3   OH270771   5.511   2.036  14.141  0.5249 -0.2410  0.0620
16427TIP3    H170772   5.486   1.944  14.138  0.1849 -0.2336  1.8052
16427TIP3    H270773   5.551   2.053  14.055  0.3820 -1.9317 -0.3684
16428TIP3   OH270774   6.099   2.616   0.630 -0.2818 -0.6430  0.2026
16428TIP3    H170775   6.170   2.560   0.600  0.0723  0.0003 -0.1988
16428TIP3    H270776   6.021   2.561   0.626 -0.0293 -0.9469 -0.6870
16429TIP3   OH270777   2.810   6.718   3.580  0.2904 -0.3541 -0.8614
16429TIP3    H170778   2.894   6.737   3.537  0.8034  1.2179  0.6982
16429TIP3    H270779   2.807   6.622   3.585  3.5016 -0.5290  1.6652
16430TIP3   OH270780   6.381   5.779   1.771  0.4771 -0.3418  0.4982
16430TIP3    H170781   6.354   5.714   1.707  1.1605 -1.1121  0.9787
16430TIP3    H270782   6.470   5.803   1.746  0.7199 -0.5887  1.1097
16431TIP3   OH270783   4.829   6.058  13.493 -0.2448  0.3795  0.3810
16431TIP3    H170784   4.776   5.992  13.449  1.1089  0.2209 -1.1255
16431TIP3    H270785   4.920   6.031  13.476  0.3354  1.2387  1.9138
16432TIP3   OH270786   6.729   4.800  14.647  0.2116  0.3540 -0.0814
16432TIP3    H170787   6.793   4.849  14.595  1.0759  0.9858  1.5283
16432TIP3    H270788   6.688   4.866  14.703 -1.6231 -0.1028 -0.8236
16433TIP3   OH270789   5.138   0.592  11.422 -0.7778  0.2419  0.1542
16433TIP3    H170790   5.107   0.524  11.362  0.8643 -1.4796  1.1633
16433TIP3    H270791   5.073   0.594  11.492 -0.0103 -1.5088  0.9572
16434TIP3   OH270792   6.810   0.069   4.756 -0.0496  0.0755 -0.1260
16434TIP3    H170793   6.853   0.005   4.699  0.3052  0.1625  0.0384
16434TIP3    H270794   6.869   0.144   4.755 -0.1191  0.1355  0.2314
16435TIP3   OH270795   6.161   5.588   4.265  0.0041  0.1531 -0.0663
16435TIP3    H170796   6.104   5.536   4.321 -1.6007  0.5315 -1.2887
16435TIP3    H270797   6.168   5.673   4.310 -0.6307  0.2015 -0.0539
16436TIP3   OH270798   6.503   4.375   2.847 -0.1659 -0.7217  1.1002
16436TIP3    H170799   6.565   4.407   2.781 -0.5521  0.2099  1.1730
16436TIP3    H270800   6.493   4.448   2.908  0.0547 -1.5085  2.1053
16437TIP3   OH270801   6.138   0.536  15.963 -0.0337  0.3288  0.3238
16437TIP3    H170802   6.168   0.615  16.007  0.0976  1.7835 -2.2149
16437TIP3    H270803   6.200   0.468  15.989  1.6860  1.7903  0.1728
16438TIP3   OH270804   6.281   4.618   4.245 -0.4724  0.4009 -0.2672
16438TIP3    H170805   6.204   4.675   4.243 -1.1619 -0.4482  0.7756
16438TIP3    H270806   6.250   4.538   4.287  0.9523 -0.0164  0.0449
16439TIP3   OH270807   2.593   4.748  16.466  0.1185 -0.6522  0.4471
16439TIP3    H170808   2.498   4.739  16.474 -0.3153  1.4358 -1.3212
16439TIP3    H270809   2.615   4.706  16.383  0.7018 -0.9614  0.7544
16440TIP3   OH270810   6.419   4.659  15.598  0.2159 -0.4788 -0.0258
16440TIP3    H170811   6.436   4.657  15.692  1.9591 -0.8092 -0.3100
16440TIP3    H270812   6.344   4.718  15.588  0.7949  0.5656  1.4666
16441TIP3   OH270813   4.133   3.807   1.557  0.1368  0.2311  0.4229
16441TIP3    H170814   4.214   3.826   1.605  0.7184  0.0486 -0.4584
16441TIP3    H270815   4.122   3.881   1.498 -0.5184  0.4086  0.7601
16442TIP3   OH270816   3.369   3.799  15.423  0.2307  0.0040 -0.5921
16442TIP3    H170817   3.391   3.884  15.385 -0.1602  0.8942  1.0749
16442TIP3    H270818   3.295   3.817  15.482  0.4519 -1.3915  0.1589
16443TIP3   OH270819   1.305   5.291  14.186  0.3760  0.1161  0.0684
16443TIP3    H170820   1.243   5.222  14.164 -0.6672  1.1294 -0.2840
16443TIP3    H270821   1.387   5.245  14.205 -0.4224 -1.2391  0.3447
16444TIP3   OH270822   2.226   1.456  11.709 -0.5863 -0.5346 -0.2422
16444TIP3    H170823   2.138   1.492  11.716 -0.2771  0.7938 -2.3428
16444TIP3    H270824   2.260   1.458  11.798 -1.8852  1.0183  0.2675
16445TIP3   OH270825   4.161   0.457   4.056  0.2404  0.4080 -0.2314
16445TIP3    H170826   4.235   0.457   4.116  0.5964 -1.1821 -0.6277
16445TIP3    H270827   4.179   0.384   3.996 -0.9236  0.9140 -1.2380
16446TIP3   OH270828   2.983   3.081  12.762  0.4781  0.3606 -0.2961
16446TIP3    H170829   2.973   3.099  12.856 -0.1882 -0.9290 -0.0963
16446TIP3    H270830   3.064   3.031  12.755 -1.6069 -3.5201  0.2750
16447TIP3   OH270831   5.327   5.030  17.187 -0.2499 -0.6012 -0.2081
16447TIP3    H170832   5.265   5.091  17.148  1.8427  0.6125 -1.8307
16447TIP3    H270833   5.382   5.001  17.114  1.9566 -0.5417  1.3272
16448TIP3   OH270834   5.478   3.702  15.066 -0.0168  0.0150 -0.6536
16448TIP3    H170835   5.487   3.761  14.991  1.3880  1.5436  0.6321
16448TIP3    H270836   5.567   3.693  15.100 -0.8202  0.8593  1.9005
16449TIP3   OH270837   4.126   4.910  13.978  0.1449  0.2901 -0.1777
16449TIP3    H170838   4.148   4.833  14.031  0.3505  0.6131  0.2093
16449TIP3    H270839   4.055   4.952  14.026 -0.7131 -0.2453 -0.9480
16450TIP3   OH270840   5.960   3.254   3.618 -0.1237 -0.0539  0.3251
16450TIP3    H170841   5.895   3.205   3.668 -0.3506  0.2520  0.3311
16450TIP3    H270842   5.910   3.321   3.572  0.4137  1.7614  2.2264
16451TIP3   OH270843   0.504   6.217   1.239  0.2691 -0.0915  0.4257
16451TIP3    H170844   0.475   6.283   1.302  1.3816 -0.5815  1.5037
16451TIP3    H270845   0.553   6.267   1.173 -1.8503  0.5716 -0.7209
16452TIP3   OH270846   1.139   3.906   4.386  0.1978 -0.0837  0.0269
16452TIP3    H170847   1.134   4.001   4.379 -0.4499 -0.1480 -0.4541
16452TIP3    H270848   1.197   3.880   4.314 -0.8615 -0.1676 -0.8240
16453TIP3   OH270849   5.624   2.317  14.430 -0.2641  0.1419 -0.4092
16453TIP3    H170850   5.534   2.307  14.398 -0.9642 -2.0126  1.8713
16453TIP3    H270851   5.658   2.394  14.383 -3.0779  0.7100 -1.7507
16454TIP3   OH270852   4.941   2.005   4.363 -0.1839  0.0691  0.4932
16454TIP3    H170853   4.909   2.094   4.380  0.2668  0.4666 -0.6740
16454TIP3    H270854   4.891   1.976   4.287  0.5176 -0.2178  0.1354
16455TIP3   OH270855   4.942   0.356  13.515 -0.6851 -0.1421  0.3260
16455TIP3    H170856   5.015   0.299  13.489  0.6709  1.3202  0.7725
16455TIP3    H270857   4.879   0.297  13.555  0.5976 -1.3691  0.6251
16456TIP3   OH270858   1.585   0.610   2.145  0.4671 -0.0318  0.0085
16456TIP3    H170859   1.666   0.651   2.175  0.4156 -0.0079  0.1138
16456TIP3    H270860   1.536   0.681   2.103  0.7911 -0.1862 -0.6442
16457TIP3   OH270861   5.078   1.976   3.347  0.8349  0.5255  0.0033
16457TIP3    H170862   5.092   1.890   3.306 -0.9172  1.2407 -2.3154
16457TIP3    H270863   5.024   1.957   3.424  0.5496 -0.4817 -0.4245
16458TIP3   OH270864   5.902   4.518   5.962  0.2071 -0.5846  0.1645
16458TIP3    H170865   5.929   4.432   5.995 -1.7813 -0.6923  1.7255
16458TIP3    H270866   5.859   4.499   5.879  3.3057 -0.5684 -1.5663
16459TIP3   OH270867   3.218   6.014   1.239 -0.0354 -0.3595 -0.1955
16459TIP3    H170868   3.282   6.046   1.175 -0.0048 -1.0605 -0.5268
16459TIP3    H270869   3.178   6.093   1.274  1.4110  0.1317  0.4375
16460TIP3   OH270870   0.937   5.123  17.014 -1.0251 -0.4401  0.3454
16460TIP3    H170871   0.920   5.096  17.104  0.6216  1.1231  1.1868
16460TIP3    H270872   1.025   5.091  16.995 -0.9454  0.1336 -0.3234
16461TIP3   OH270873   4.760   0.400  16.746  0.1654  0.0426  0.0214
16461TIP3    H170874   4.766   0.493  16.727  1.4771 -0.3559 -1.8950
16461TIP3    H270875   4.669   0.386  16.769 -0.3938  1.5752 -1.0954
16462TIP3   OH270876   5.762   3.298   1.544  0.8299 -0.3328 -0.6125
16462TIP3    H170877   5.854   3.319   1.561  0.5845 -0.4660  1.0363
16462TIP3    H270878   5.730   3.262   1.627 -1.4289  2.1604 -0.2770
16463TIP3   OH270879   0.774   5.414   2.236 -0.3919 -0.1015  0.1366
16463TIP3    H170880   0.706   5.348   2.220 -0.8702  0.6028 -0.8450
16463TIP3    H270881   0.731   5.497   2.215  0.1214  0.5649  1.5903
16464TIP3   OH270882   5.466   4.393   2.993 -0.7565 -0.6485 -0.4423
16464TIP3    H170883   5.429   4.399   2.904 -1.9724 -0.3787  0.0596
16464TIP3    H270884   5.392   4.364   3.047 -0.2736  0.1094  0.6430
16465TIP3   OH270885   4.726   4.794  11.342 -0.0446 -0.5122 -0.1629
16465TIP3    H170886   4.751   4.879  11.308  0.8709 -1.3806 -1.7734
16465TIP3    H270887   4.706   4.810  11.434  0.4893  1.3487 -0.3317
16466TIP3   OH270888   1.031   6.697   6.054  0.0173  0.0255 -0.3020
16466TIP3    H170889   1.048   6.751   6.132  0.3927  0.3023 -0.5718
16466TIP3    H270890   0.947   6.656   6.072 -0.2854  0.7143 -0.0987
16467TIP3   OH270891   0.805   5.040  15.237 -0.3801  0.5197  0.2447
16467TIP3    H170892   0.787   4.971  15.301  1.1589  0.4714  0.6910
16467TIP3    H270893   0.725   5.091  15.232 -1.0815 -0.4843  0.9540
16468TIP3   OH270894   2.527   1.314   3.176 -0.5480 -0.0762  0.0291
16468TIP3    H170895   2.580   1.370   3.233 -1.9015  2.6278 -1.2112
16468TIP3    H270896   2.589   1.281   3.110  0.0240  1.2319 -0.1130
16469TIP3   OH270897   1.890   1.092   1.515 -0.3191 -0.0663 -0.4254
16469TIP3    H170898   1.850   1.005   1.513  1.4812 -0.9749  0.1546
16469TIP3    H270899   1.888   1.122   1.424 -1.0164 -0.6846 -0.6226
16470TIP3   OH270900   5.379   4.879   2.274 -0.1619 -0.4763  0.2634
16470TIP3    H170901   5.429   4.802   2.302 -0.5766 -0.8308  0.0516
16470TIP3    H270902   5.338   4.911   2.355 -1.7077 -1.7597  0.0356
16471TIP3   OH270903   4.013   6.229   1.981  0.2451 -0.2045  0.5510
16471TIP3    H170904   4.005   6.310   2.031 -2.7855  0.0520 -0.1840
16471TIP3    H270905   4.026   6.258   1.891 -1.6124 -0.4694  0.1707
16472TIP3   OH270906   3.674   2.108   2.947 -0.3302  0.2041 -0.0567
16472TIP3    H170907   3.587   2.101   2.987 -0.1158 -1.9859  0.1332
16472TIP3    H270908   3.668   2.059   2.865  0.1167  2.0253 -1.2486
16473TIP3   OH270909   2.260   2.306  13.781  0.3460  0.0820  0.0515
16473TIP3    H170910   2.288   2.234  13.838 -2.6046 -1.5393 -0.3624
16473TIP3    H270911   2.326   2.307  13.711 -0.0672 -3.0863 -0.5655
16474TIP3   OH270912   3.475   2.730   1.294 -0.0749  0.1974 -0.9664
16474TIP3    H170913   3.536   2.658   1.302  0.4031  0.6169 -0.8019
16474TIP3    H270914   3.417   2.705   1.222 -0.2951 -0.6183 -0.5120
16475TIP3   OH270915   4.870   5.453   4.049 -0.0633  0.5034  0.1280
16475TIP3    H170916   4.862   5.470   4.143  1.0668  0.3988  0.2477
16475TIP3    H270917   4.891   5.360   4.043 -1.0530  0.2869 -0.2918
16476TIP3   OH270918   0.768   0.145  11.719 -0.4487  0.2851  0.6838
16476TIP3    H170919   0.686   0.107  11.751 -0.1452 -0.5354  0.5065
16476TIP3    H270920   0.828   0.071  11.713 -0.1211  0.6290 -0.5673
16477TIP3   OH270921   0.746   2.218  14.645 -0.4154  0.1029  0.1282
16477TIP3    H170922   0.709   2.254  14.725 -0.3103  1.4184 -0.3904
16477TIP3    H270923   0.675   2.169  14.605 -1.0557  1.0363  0.0844
16478TIP3   OH270924   1.614   4.102  13.870  0.1373 -0.4526 -0.5389
16478TIP3    H170925   1.655   4.017  13.887 -0.0667 -0.5489 -0.5247
16478TIP3    H270926   1.665   4.164  13.923  0.5498 -0.4997 -0.8715
16479TIP3   OH270927   1.526   4.894   1.251 -0.1472  0.1068  0.8641
16479TIP3    H170928   1.519   4.987   1.270  2.4266  0.9391 -1.6272
16479TIP3    H270929   1.455   4.876   1.190  1.2792  1.3620 -1.3105
16480TIP3   OH270930   3.573   5.348  10.318  0.1420  0.9105 -0.6741
16480TIP3    H170931   3.565   5.410  10.391  2.3369  1.5373 -0.9002
16480TIP3    H270932   3.664   5.356  10.289  0.4868 -2.3510 -0.8165
16481TIP3   OH270933   1.846   2.656   6.249 -0.2020 -0.0329  0.1316
16481TIP3    H170934   1.820   2.748   6.251  2.3480  0.7565  1.4800
16481TIP3    H270935   1.927   2.653   6.299  0.2892 -2.8906 -0.6591
16482TIP3   OH270936   2.742   3.993  16.044 -0.2700 -0.6025  0.2540
16482TIP3    H170937   2.648   4.001  16.028 -0.5599 -0.6197  1.8036
16482TIP3    H270938   2.782   4.002  15.957 -1.5862  1.0601 -0.2347
16483TIP3   OH270939   5.546   6.487   5.873  0.5786  0.3636  0.0915
16483TIP3    H170940   5.522   6.486   5.781  1.0863  1.3412 -0.0648
16483TIP3    H270941   5.534   6.578   5.900  1.8193  0.3894  0.6156
16484TIP3   OH270942   1.633   0.539   3.786  0.6785 -0.7621 -0.1392
16484TIP3    H170943   1.578   0.524   3.709 -0.7563  0.0586  0.6952
16484TIP3    H270944   1.610   0.627   3.815  0.6180 -1.3446  1.6875
16485TIP3   OH270945   4.411   4.507  14.431 -0.4058 -0.2124  0.1840
16485TIP3    H170946   4.447   4.418  14.435 -0.8226 -0.3642  0.6128
16485TIP3    H270947   4.354   4.507  14.355 -0.7331 -0.4396  0.4255
16486TIP3   OH270948   2.679   2.590  13.676 -0.3506  0.4684  0.1315
16486TIP3    H170949   2.674   2.668  13.621  0.9672  1.3026  1.1132
16486TIP3    H270950   2.772   2.569  13.679 -0.7219 -1.4071 -0.4193
16487TIP3   OH270951   0.214   4.398   0.914 -0.1611  0.2806  0.0411
16487TIP3    H170952   0.286   4.461   0.910 -0.0350  0.1089 -0.4516
16487TIP3    H270953   0.236   4.343   0.990  0.4258 -0.0068 -0.3286
16488TIP3   OH270954   3.133   1.989   5.048 -0.2037 -0.0934  0.5492
16488TIP3    H170955   3.054   2.017   5.001  0.0997 -1.6523 -0.9786
16488TIP3    H270956   3.204   2.002   4.985  0.9256  1.8678  2.1067
16489TIP3   OH270957   6.314   1.414  14.560  0.0998 -0.3975  0.1248
16489TIP3    H170958   6.227   1.394  14.595  0.2457 -2.8926 -0.7663
16489TIP3    H270959   6.374   1.363  14.614  1.1406  1.6098  0.9985
16490TIP3   OH270960   5.321   5.089  15.161 -0.8974  0.0203 -0.1733
16490TIP3    H170961   5.234   5.103  15.199 -0.2654  1.8643  0.7239
16490TIP3    H270962   5.344   5.174  15.123  0.9858 -0.0881  0.6385
16491TIP3   OH270963   0.734   0.664  14.142 -0.2149 -0.2138  0.1810
16491TIP3    H170964   0.810   0.683  14.087 -1.2235  0.4674 -1.0408
16491TIP3    H270965   0.720   0.570  14.131  0.3552 -0.3186  0.3007
16492TIP3   OH270966   1.150   4.167  12.959  0.4249  0.3585  0.1193
16492TIP3    H170967   1.238   4.177  12.925  1.1581 -0.1645  1.7342
16492TIP3    H270968   1.134   4.072  12.957  0.1601  0.3928  0.4144
16493TIP3   OH270969   5.439   1.504   6.316  0.1523 -0.4972  0.1969
16493TIP3    H170970   5.406   1.439   6.379  0.4009 -3.2823 -2.3436
16493TIP3    H270971   5.465   1.453   6.240  2.2298  2.4541 -1.2747
16494TIP3   OH270972   3.827   1.459   0.467  0.0696  0.4146 -0.2101
16494TIP3    H170973   3.851   1.545   0.434 -0.0957  0.7187  0.4384
16494TIP3    H270974   3.747   1.436   0.419  0.6544  0.1848 -1.0891
16495TIP3   OH270975   0.172   4.926  11.154  0.1032  0.4888  0.2654
16495TIP3    H170976   0.248   4.883  11.114 -0.5384 -0.9960  0.5761
16495TIP3    H270977   0.208   4.972  11.230  0.3868 -2.2898  1.9138
16496TIP3   OH270978   0.312   6.026  14.573  0.2377 -0.0325  0.4972
16496TIP3    H170979   0.383   6.051  14.514 -0.3759  1.7501  0.4345
16496TIP3    H270980   0.346   5.951  14.621  2.2439  0.8642  0.5812
16497TIP3   OH270981   1.154   0.795   2.966  0.4114  0.3198 -0.0551
16497TIP3    H170982   1.092   0.830   2.902  0.4273  0.0787 -0.2049
16497TIP3    H270983   1.117   0.710   2.991  0.1974  0.5884  0.5539
16498TIP3   OH270984   0.399   0.404   1.339  0.3151 -0.0441 -0.1077
16498TIP3    H170985   0.363   0.326   1.296  0.3083 -1.0775  1.6547
16498TIP3    H270986   0.334   0.425   1.406 -1.0313  3.1470 -2.1780
16499TIP3   OH270987   3.022   5.734  16.317  0.6377 -0.3579  0.1864
16499TIP3    H170988   3.076   5.809  16.290 -0.3907  0.9092  1.4515
16499TIP3    H270989   2.934   5.756  16.287  0.1053 -0.4780  1.5857
16500TIP3   OH270990   5.423   0.366  17.219  0.1133 -0.5436 -0.1804
16500TIP3    H170991   5.455   0.363  17.310 -0.9760 -2.4374  0.1985
16500TIP3    H270992   5.466   0.293  17.176 -0.4936 -0.5377 -0.8064
16501TIP3   OH270993   1.833   5.954   1.180  0.3433  0.5149 -0.1271
16501TIP3    H170994   1.762   5.916   1.231 -0.0340  0.5522 -0.6071
16501TIP3    H270995   1.877   5.880   1.139  2.4664  0.2186  2.4749
16502TIP3   OH270996   1.610   3.364   0.345 -0.1555 -0.1851  0.5433
16502TIP3    H170997   1.568   3.426   0.286  2.3751 -0.2923 -1.5748
16502TIP3    H270998   1.668   3.418   0.399  1.0423 -0.4801 -0.3863
16503TIP3   OH270999   4.680   5.887  11.705  0.1452  0.0186 -0.0731
16503TIP3    H171000   4.713   5.832  11.634  0.6789 -0.3869  0.4833
16503TIP3    H271001   4.711   5.844  11.785  0.0800  0.8127  0.3849
16504TIP3   OH271002   4.296   5.253   1.686 -0.8425 -0.3436 -0.2304
16504TIP3    H171003   4.292   5.186   1.754  1.5664  0.6874  1.0332
16504TIP3    H271004   4.367   5.224   1.629 -0.5167  0.5883 -0.3029
16505TIP3   OH271005   6.544   5.641  16.442  0.1241 -0.0333  0.0161
16505TIP3    H171006   6.621   5.652  16.387  0.6614 -0.3609  0.6754
16505TIP3    H271007   6.517   5.550  16.427 -0.1960  0.1106 -0.2868
16506TIP3   OH271008   0.455   0.611  12.390 -0.3096  0.1095  0.0751
16506TIP3    H171009   0.419   0.653  12.312 -0.8744  0.6980  0.6267
16506TIP3    H271010   0.405   0.530  12.400 -1.0414  0.5891  0.4490
16507TIP3   OH271011   5.966   4.823  15.501 -0.3446 -0.2032  0.3788
16507TIP3    H171012   5.928   4.756  15.558 -0.8436 -1.0941 -0.9718
16507TIP3    H271013   6.060   4.818  15.517 -0.6204  2.0487  3.8016
16508TIP3   OH271014   0.972   3.275   2.982  0.0881  0.5150 -0.1579
16508TIP3    H171015   0.909   3.228   2.928  0.6739  1.5277 -1.7980
16508TIP3    H271016   0.921   3.309   3.055 -0.5444 -1.6649  0.4885
16509TIP3   OH271017   3.254   1.430   4.829  0.3842  0.1827  0.3762
16509TIP3    H171018   3.214   1.349   4.859 -0.6579 -1.5564 -4.7005
16509TIP3    H271019   3.318   1.403   4.764 -0.4126  3.3192 -1.9611
16510TIP3   OH271020   2.552   1.655   0.804 -1.1297  0.3567 -0.1708
16510TIP3    H171021   2.610   1.584   0.777 -0.7874  1.0798 -1.4183
16510TIP3    H271022   2.489   1.613   0.862  0.1803 -0.5962  0.6367
16511TIP3   OH271023   2.720   5.168  11.922 -0.5301 -0.2418  0.1135
16511TIP3    H171024   2.629   5.198  11.921 -0.3425  0.3571 -0.9442
16511TIP3    H271025   2.763   5.219  11.853  0.0560 -2.2238 -1.0823
16512TIP3   OH271026   0.771   3.693  16.240  0.4456 -0.2098 -0.4127
16512TIP3    H171027   0.841   3.668  16.180  2.9647  3.3995  0.7015
16512TIP3    H271028   0.721   3.758  16.192  2.0158  2.1320  0.9446
16513TIP3   OH271029   2.573   0.451  12.443  0.8030  0.3563 -0.0810
16513TIP3    H171030   2.527   0.418  12.520  2.0314 -1.2788  0.0084
16513TIP3    H271031   2.509   0.444  12.372 -0.3273  1.8487  0.7306
16514TIP3   OH271032   2.718   3.026   5.478  0.3123  0.2427  0.4037
16514TIP3    H171033   2.716   3.076   5.559 -0.5517  3.4516 -1.4379
16514TIP3    H271034   2.678   3.083   5.413 -0.7147 -2.8911 -1.9743
16515TIP3   OH271035   6.464   4.404   0.130  0.1005 -0.4048  0.4792
16515TIP3    H171036   6.443   4.476   0.071  1.2521  0.8260  1.5134
16515TIP3    H271037   6.444   4.325   0.079 -0.6685  0.6266 -0.8774
16516TIP3   OH271038   5.568   6.050  15.033  0.1417 -0.9115 -0.1300
16516TIP3    H171039   5.474   6.029  15.028  0.0666 -1.0020  1.3038
16516TIP3    H271040   5.573   6.125  15.092  0.7952  0.6199 -2.0109
16517TIP3   OH271041   0.095   1.947  10.296  0.0899 -0.1097  0.2635
16517TIP3    H171042   0.081   1.865  10.247  0.0742  0.0078  0.0700
16517TIP3    H271043   0.183   1.938  10.333  0.2958  0.0048 -0.1899
16518TIP3   OH271044   3.680   5.578  14.246  0.1857 -0.0317  0.2391
16518TIP3    H171045   3.645   5.513  14.307 -2.3897  1.0080 -0.0513
16518TIP3    H271046   3.641   5.555  14.162 -0.9604  1.9728  0.1762
16519TIP3   OH271047   2.320   0.266  13.632  0.2027 -0.1229 -0.4352
16519TIP3    H171048   2.305   0.176  13.604  1.5174 -0.6598  0.5074
16519TIP3    H271049   2.267   0.276  13.711  2.1492 -1.0064  1.0662
16520TIP3   OH271050   6.491   4.639   4.912 -0.0318  0.1290  0.0585
16520TIP3    H171051   6.557   4.636   4.843  0.3548  1.5033  0.3201
16520TIP3    H271052   6.497   4.554   4.955  0.1261 -0.5229 -1.2211
16521TIP3   OH271053   2.117   0.287  15.497 -0.3270  0.0152 -0.4107
16521TIP3    H171054   2.103   0.196  15.472  0.0752 -0.4050  0.8155
16521TIP3    H271055   2.122   0.285  15.593 -2.2243  1.6075 -0.2311
16522TIP3   OH271056   3.797   4.401  16.735 -0.2269 -0.6809 -0.2093
16522TIP3    H171057   3.858   4.360  16.795  0.6125 -0.3602 -0.8322
16522TIP3    H271058   3.819   4.494  16.738 -0.6667 -0.5636 -0.4705
16523TIP3   OH271059   4.605   3.550  12.977 -0.4257  0.2787 -0.4059
16523TIP3    H171060   4.618   3.566  13.071 -0.5722  1.6133 -0.6064
16523TIP3    H271061   4.629   3.458  12.966  0.4417  0.3362  0.7826
16524TIP3   OH271062   1.510   6.006   2.577  0.1754  0.0514 -0.7908
16524TIP3    H171063   1.418   5.979   2.576 -0.4612  1.4396  2.9763
16524TIP3    H271064   1.556   5.933   2.618  0.1489  0.5846  0.2305
16525TIP3   OH271065   1.132   0.962  11.993  0.3933 -0.4722 -0.4937
16525TIP3    H171066   1.065   0.897  11.972 -0.3259 -0.1224  0.6389
16525TIP3    H271067   1.098   1.007  12.071  1.6337  0.1631 -0.3032
16526TIP3   OH271068   2.875   4.165  10.764 -0.0145  0.0398  0.1791
16526TIP3    H171069   2.948   4.105  10.783  0.1149  0.5904  1.5563
16526TIP3    H271070   2.915   4.252  10.767 -0.5309  0.2868 -0.0891
16527TIP3   OH271071   5.538   4.044   1.793  0.4295 -0.2327 -0.1517
16527TIP3    H171072   5.512   4.086   1.875 -1.1007 -0.2013 -0.6260
16527TIP3    H271073   5.604   3.980   1.819 -0.0435 -0.2307  1.1076
16528TIP3   OH271074   2.148   5.386   3.055  0.3510  0.2624  0.2584
16528TIP3    H171075   2.078   5.321   3.063  0.2012  0.2831 -0.7018
16528TIP3    H271076   2.103   5.464   3.020  0.9106  0.1519 -0.7460
16529TIP3   OH271077   5.768   6.727  16.771  0.6756  0.1245 -0.2566
16529TIP3    H171078   5.681   6.694  16.746  0.5563  0.6916 -0.6015
16529TIP3    H271079   5.757   6.822  16.776  1.0055  0.1250  0.7698
16530TIP3   OH271080   1.865   2.124   1.992  0.3954  0.2163  0.0257
16530TIP3    H171081   1.799   2.089   1.933 -0.8360 -0.3829  1.6766
16530TIP3    H271082   1.819   2.135   2.076  2.0958  0.8736  0.9243
16531TIP3   OH271083   4.976   1.924   4.716  0.0264 -0.5257 -0.0045
16531TIP3    H171084   4.967   1.947   4.623  0.2994 -0.9016 -0.1234
16531TIP3    H271085   5.060   1.878   4.721  1.0706  1.3632  0.7869
16532TIP3   OH271086   3.615   5.735   3.856 -0.1899 -0.1367  0.2575
16532TIP3    H171087   3.655   5.814   3.822  3.0677 -1.2889  1.0399
16532TIP3    H271088   3.583   5.759   3.943  2.1255  0.0649  1.1198
16533TIP3   OH271089   0.059   5.447   2.056 -0.4559  0.5937 -0.3781
16533TIP3    H171090   0.133   5.477   2.109 -0.0225  0.3786 -0.8482
16533TIP3    H271091   0.001   5.523   2.052  0.3147  1.1818 -0.9934
16534TIP3   OH271092   0.294   3.355   0.521 -0.2130  0.1296  0.1534
16534TIP3    H171093   0.332   3.395   0.598  0.1882 -0.2577  0.1562
16534TIP3    H271094   0.271   3.266   0.548  2.3422 -0.9226 -0.8729
16535TIP3   OH271095   4.683   6.518  11.163  0.4267  0.3413  0.0834
16535TIP3    H171096   4.595   6.548  11.185  1.2519  2.9807  0.1300
16535TIP3    H271097   4.672   6.471  11.081 -1.1458 -0.2818  0.6058
16536TIP3   OH271098   0.309   4.595   5.421 -0.2157 -0.1290  0.8231
16536TIP3    H171099   0.401   4.569   5.414  0.1707  1.1236  0.9112
16536TIP3    H271100   0.265   4.519   5.458  0.5588 -1.1807 -0.3375
16537TIP3   OH271101   1.334   4.931  15.157 -0.1313  0.2219  0.0394
16537TIP3    H171102   1.320   5.021  15.127  1.8895  0.5851  0.0361
16537TIP3    H271103   1.299   4.877  15.087 -0.5956  1.0149 -0.3601
16538TIP3   OH271104   6.713   3.643   0.384  0.5697  0.0237 -0.0622
16538TIP3    H171105   6.770   3.681   0.318  0.7798 -0.9320 -0.4426
16538TIP3    H271106   6.763   3.570   0.420  0.2969  0.2846  0.8761
16539TIP3   OH271107   0.700   2.594  11.076 -1.3160  0.5825 -0.6342
16539TIP3    H171108   0.758   2.668  11.061 -0.7229  0.2073 -0.2200
16539TIP3    H271109   0.727   2.558  11.160 -1.6309 -0.0725 -0.8046
16540TIP3   OH271110   2.475   5.730  13.567  0.4268 -0.1687  0.5087
16540TIP3    H171111   2.407   5.663  13.577 -1.5138  1.4041 -1.1127
16540TIP3    H271112   2.517   5.734  13.653 -2.0151 -0.7619  1.8352
16541TIP3   OH271113   1.106   6.495   3.385  0.2689 -0.3353  0.3577
16541TIP3    H171114   1.087   6.560   3.317  0.2556  0.2251  0.8873
16541TIP3    H271115   1.139   6.419   3.337  0.7178  0.2267 -0.2381
16542TIP3   OH271116   4.522   0.127   6.134  0.4466  0.2853 -0.6448
16542TIP3    H171117   4.512   0.091   6.222 -0.7876  1.6715 -0.1619
16542TIP3    H271118   4.434   0.123   6.097  0.7102  0.8275 -1.3529
16543TIP3   OH271119   1.215   5.685  14.013 -0.5558 -0.2185  0.3652
16543TIP3    H171120   1.271   5.677  14.091  0.9878 -0.7575 -0.7348
16543TIP3    H271121   1.207   5.596  13.980 -1.9687 -0.1190  0.3987
16544TIP3   OH271122   0.546   3.865   2.211  0.0938 -0.0925 -0.1091
16544TIP3    H171123   0.572   3.773   2.216 -0.5171 -0.2183  1.3035
16544TIP3    H271124   0.459   3.868   2.251 -0.3286  0.9521 -1.0351
16545TIP3   OH271125   4.013   6.292  12.496 -0.1230  0.2091  0.0164
16545TIP3    H171126   4.024   6.275  12.402  1.0885 -0.2978  0.2413
16545TIP3    H271127   3.977   6.210  12.531 -1.1179  0.5852 -0.0761
16546TIP3   OH271128   0.755   6.059  15.903 -0.0255 -0.1074  0.5158
16546TIP3    H171129   0.834   6.004  15.901 -0.3860 -0.6101  0.0634
16546TIP3    H271130   0.693   6.015  15.845 -0.5734  0.3971  0.7104
16547TIP3   OH271131   1.064   2.830   2.139 -0.7487  0.3468 -0.0855
16547TIP3    H171132   1.063   2.737   2.160  1.5656  0.5271  1.1852
16547TIP3    H271133   1.095   2.835   2.049  0.0006 -0.1070  0.1393
16548TIP3   OH271134   0.811   0.079   4.047 -0.3174 -0.4915 -0.6100
16548TIP3    H171135   0.883   0.073   4.110 -0.0117 -0.2975 -0.9458
16548TIP3    H271136   0.823   0.163   4.003 -1.1493 -0.1254 -0.1762
16549TIP3   OH271137   0.322   1.460  15.937  0.7006 -0.8058 -0.6065
16549TIP3    H171138   0.270   1.396  15.986  0.1191 -0.5541 -0.8891
16549TIP3    H271139   0.407   1.460  15.981 -0.2859  0.6503  1.5033
16550TIP3   OH271140   6.210   4.516   3.036 -0.3957 -0.3376  0.3696
16550TIP3    H171141   6.211   4.440   2.978 -1.5855 -0.7053  0.8263
16550TIP3    H271142   6.163   4.488   3.114  1.4732  0.0450  1.7118
16551TIP3   OH271143   5.650   3.887  10.757 -0.4615  0.3590 -0.3247
16551TIP3    H171144   5.573   3.865  10.810  0.1958 -0.6226  0.2760
16551TIP3    H271145   5.623   3.869  10.667 -0.3375 -2.0341  0.0319
16552TIP3   OH271146   1.109   3.159  12.749  0.0304  0.4774  0.1668
16552TIP3    H171147   1.176   3.091  12.753  0.4875  0.9496  1.0160
16552TIP3    H271148   1.035   3.118  12.705 -0.3873 -1.1659  2.2548
16553TIP3   OH271149   4.391   5.646  14.596 -0.1193 -0.0476  0.5598
16553TIP3    H171150   4.303   5.623  14.567 -0.2149  0.3919  0.4909
16553TIP3    H271151   4.377   5.689  14.681 -0.3972  3.5208 -1.0857
16554TIP3   OH271152   5.195   1.087  11.881  0.2267 -0.5311 -0.1834
16554TIP3    H171153   5.102   1.110  11.875  0.8743  2.5367 -0.1643
16554TIP3    H271154   5.217   1.102  11.973  0.6023 -2.1222  0.0218
16555TIP3   OH271155   3.369   5.384   1.362 -0.4924  0.2359 -0.2396
16555TIP3    H171156   3.370   5.447   1.290  4.0938 -1.7220 -2.3015
16555TIP3    H271157   3.432   5.418   1.425  0.3517 -1.0669 -0.3235
16556TIP3   OH271158   1.654   1.385  15.948 -0.4064 -0.7407  0.6116
16556TIP3    H171159   1.636   1.328  16.022 -0.6353  0.7242  1.7459
16556TIP3    H271160   1.739   1.356  15.915  0.4240 -0.4934  2.4084
16557TIP3   OH271161   4.444   5.411  16.846  0.0401 -0.1561  0.3142
16557TIP3    H171162   4.433   5.321  16.876 -0.3107  0.1270  1.0768
16557TIP3    H271163   4.388   5.419  16.769  1.5404 -1.1194 -0.9290
16558TIP3   OH271164   5.911   4.990   3.571  0.0980 -0.1320 -0.2510
16558TIP3    H171165   5.933   5.078   3.602 -0.8084  0.2135 -0.5504
16558TIP3    H271166   5.934   4.933   3.644  3.7156 -0.0872 -1.1407
16559TIP3   OH271167   1.045   3.838  14.913  0.7019 -0.7234  0.2447
16559TIP3    H171168   1.066   3.757  14.959  3.3873  0.1428  0.7175
16559TIP3    H271169   1.012   3.810  14.827 -0.5674 -2.2912  1.1928
16560TIP3   OH271170   0.077   6.817   2.283 -0.3189  0.6570  0.3209
16560TIP3    H171171   0.101   6.853   2.198 -0.3467  1.6447  0.7182
16560TIP3    H271172  -0.016   6.839   2.293 -0.1853  1.0103  0.8311
16561TIP3   OH271173   6.234   4.665   0.649 -0.0340 -0.1933  0.0383
16561TIP3    H171174   6.146   4.682   0.615  0.1101 -0.6535 -0.5944
16561TIP3    H271175   6.232   4.697   0.739 -1.0553 -0.7843  0.2443
16562TIP3   OH271176   3.342   2.714   5.787  0.1548 -0.4018 -0.1461
16562TIP3    H171177   3.254   2.727   5.823 -0.0892 -2.2054 -0.0274
16562TIP3    H271178   3.369   2.628   5.818  1.0515 -0.8629 -2.0471
16563TIP3   OH271179   3.330   0.973   4.631  0.2575  0.2749 -0.1406
16563TIP3    H171180   3.334   1.037   4.561  1.3302 -1.0857 -1.3763
16563TIP3    H271181   3.303   0.891   4.589 -1.1967 -0.1223  1.4063
16564TIP3   OH271182   2.151   0.175   6.268  0.0920 -0.2997 -0.1846
16564TIP3    H171183   2.069   0.178   6.317  0.8358  0.5894  1.0610
16564TIP3    H271184   2.184   0.086   6.284 -1.3828 -1.2539 -2.0634
16565TIP3   OH271185   1.808   2.704  11.361 -0.3657 -0.1930 -0.2957
16565TIP3    H171186   1.741   2.722  11.428 -0.3183 -0.6817 -0.1193
16565TIP3    H271187   1.889   2.695  11.410 -0.4779 -1.4524 -0.3219
16566TIP3   OH271188   3.534   2.875   0.296  0.5460  0.4581  0.2317
16566TIP3    H171189   3.509   2.855   0.387 -1.1756  0.5255 -0.1877
16566TIP3    H271190   3.603   2.940   0.304  0.6001  0.2741  1.5028
16567TIP3   OH271191   5.469   5.557  12.214 -0.0976 -0.9745  0.6488
16567TIP3    H171192   5.427   5.476  12.244 -1.6886 -0.5595 -0.3345
16567TIP3    H271193   5.533   5.577  12.282  0.2977 -3.0126  0.9579
16568TIP3   OH271194   3.358   5.896  13.575  0.2949  0.7221 -0.0357
16568TIP3    H171195   3.288   5.960  13.568  0.5642  1.0550  0.2383
16568TIP3    H271196   3.410   5.926  13.650  1.3159  1.0715 -0.8575
16569TIP3   OH271197   1.770   4.837  12.621  0.0918 -0.2835 -0.4404
16569TIP3    H171198   1.855   4.857  12.582  0.8537 -2.4268 -0.0528
16569TIP3    H271199   1.714   4.816  12.546  0.2325 -0.0072 -0.6260
16570TIP3   OH271200   2.529   1.126  13.720  0.0711 -0.0215 -0.0497
16570TIP3    H171201   2.533   1.031  13.730 -2.0123 -0.0373  1.1873
16570TIP3    H271202   2.456   1.141  13.660  0.3646  0.8172 -0.2071
16571TIP3   OH271203   0.889   0.038   5.048  0.9609 -0.2729  0.5178
16571TIP3    H171204   0.976   0.047   5.086  1.1747  0.5511 -0.1382
16571TIP3    H271205   0.830   0.072   5.115  1.3861  1.7839 -0.0866
16572TIP3   OH271206   2.977   0.376  11.710 -0.0965 -0.2624  0.0373
16572TIP3    H171207   3.071   0.372  11.724 -0.1494 -0.0224  0.4785
16572TIP3    H271208   2.955   0.291  11.672  0.3512 -0.1788 -0.4177
16573TIP3   OH271209   1.068   5.126   5.273 -0.4258 -0.4265 -0.1649
16573TIP3    H171210   1.012   5.096   5.345 -3.1904  1.5251 -1.3164
16573TIP3    H271211   1.135   5.179   5.316 -1.4606 -0.0700  1.0866
16574TIP3   OH271212   6.665   2.065  14.103 -0.3742  0.2337  0.4489
16574TIP3    H171213   6.581   2.050  14.060  0.1310 -2.0368  0.1458
16574TIP3    H271214   6.650   2.143  14.157 -3.1654 -0.9726  1.6110
16575TIP3   OH271215   3.605   2.005   1.383 -0.4398 -0.5068  0.5758
16575TIP3    H171216   3.632   1.970   1.298  1.8437 -0.3447  1.1669
16575TIP3    H271217   3.619   2.100   1.375  0.2043 -0.5375  1.2474
16576TIP3   OH271218   4.907   0.893   4.919  0.2748  0.0031  0.3358
16576TIP3    H171219   4.937   0.803   4.931 -0.0589 -0.0061  1.1714
16576TIP3    H271220   4.980   0.946   4.950  1.1233  0.0749 -1.6471
16577TIP3   OH271221   6.213   0.439  13.253 -0.7321 -0.0682 -0.2627
16577TIP3    H171222   6.165   0.382  13.313 -0.1658  0.4731  0.7310
16577TIP3    H271223   6.305   0.424  13.274 -0.5250  0.2031 -0.9344
16578TIP3   OH271224   0.092   6.518  13.551 -0.3565  0.2583 -0.2452
16578TIP3    H171225   0.036   6.531  13.627  0.0591 -1.4944  0.4025
16578TIP3    H271226   0.042   6.460  13.494 -1.2861  2.6517 -2.0617
16579TIP3   OH271227   4.649   4.905   4.852  0.3555  0.1149  0.5329
16579TIP3    H171228   4.613   4.869   4.771  0.9723 -1.6931  1.0220
16579TIP3    H271229   4.594   4.982   4.870 -0.9783 -0.5203 -0.6060
16580TIP3   OH271230   3.922   0.743   4.012  0.2218  0.1732  0.3719
16580TIP3    H171231   4.003   0.732   3.962  1.1172  0.1678  1.7738
16580TIP3    H271232   3.868   0.668   3.986  0.7034  0.1131 -0.5003
16581TIP3   OH271233   0.899   6.292  16.012 -0.3428  0.0769  0.2731
16581TIP3    H171234   0.848   6.216  15.987 -0.1407 -0.3546  1.1293
16581TIP3    H271235   0.977   6.257  16.054 -0.4625  0.7438  1.0966
16582TIP3   OH271236   4.403   5.959  10.588 -0.5754  0.4862  0.7734
16582TIP3    H171237   4.310   5.955  10.569 -0.4396  1.6652 -0.2587
16582TIP3    H271238   4.432   5.868  10.586 -1.3238  0.2623 -0.9143
16583TIP3   OH271239   1.326   0.280  13.848 -0.4003 -0.3167  0.2616
16583TIP3    H171240   1.356   0.359  13.803  1.0734 -0.7669  0.4156
16583TIP3    H271241   1.289   0.312  13.930 -1.1919  0.3246 -0.3214
16584TIP3   OH271242   1.303   6.057  12.880  0.0628 -0.8228 -0.4682
16584TIP3    H171243   1.235   6.125  12.869  0.7240  0.1529  1.1330
16584TIP3    H271244   1.341   6.075  12.966 -0.1676 -3.6560  0.3227
16585TIP3   OH271245   0.478   6.732   5.831  0.7527  0.1307 -0.4155
16585TIP3    H171246   0.474   6.767   5.920  0.5044 -0.6325 -0.1200
16585TIP3    H271247   0.409   6.780   5.784 -0.9614 -1.3230  0.4914
16586TIP3   OH271248   1.587   6.780  14.126  0.0782  0.0554  0.3719
16586TIP3    H171249   1.609   6.743  14.211 -3.5773 -2.2746  0.5648
16586TIP3    H271250   1.641   6.731  14.064 -0.7256 -1.8994  1.1013
16587TIP3   OH271251   4.723   4.488  14.524 -0.1691 -0.0118 -0.1604
16587TIP3    H171252   4.730   4.449  14.437  0.5860  0.9914 -0.5707
16587TIP3    H271253   4.629   4.497  14.539 -0.2972  0.2773 -1.0944
16588TIP3   OH271254   5.502   4.800  15.373  0.0988  0.0386 -0.1972
16588TIP3    H171255   5.539   4.883  15.403  0.5553 -1.3288  3.4955
16588TIP3    H271256   5.578   4.746  15.352 -0.0676 -0.4680  0.4868
16589TIP3   OH271257   6.013   5.084   0.201  0.0136 -0.7316 -0.4537
16589TIP3    H171258   6.057   5.104   0.284 -0.8184 -0.2540 -0.1230
16589TIP3    H271259   6.007   4.989   0.200  0.9596 -0.7987 -0.4527
16590TIP3   OH271260   0.289   1.043  13.186  0.8572 -0.0397 -0.0944
16590TIP3    H171261   0.311   0.955  13.218  0.9873 -0.0343 -0.1680
16590TIP3    H271262   0.269   1.093  13.265  0.2773 -0.2744 -0.0909
16591TIP3   OH271263   3.712   1.205  16.359  0.1255  0.5611  0.2334
16591TIP3    H171264   3.635   1.149  16.366  0.2055  0.5775  1.3737
16591TIP3    H271265   3.766   1.181  16.434  1.1987  0.6153 -0.4975
16592TIP3   OH271266   5.340   1.740  16.470 -0.1325 -0.0476 -0.0249
16592TIP3    H171267   5.410   1.695  16.423  1.7899  1.7058  0.9908
16592TIP3    H271268   5.322   1.685  16.546  0.5618 -0.2615 -0.0079
16593TIP3   OH271269   0.227   6.729   4.647  0.7016 -0.1841  0.2272
16593TIP3    H171270   0.241   6.676   4.569  1.0217 -0.6453  0.5936
16593TIP3    H271271   0.271   6.681   4.717  0.8091  0.4533  0.6053
16594TIP3   OH271272   4.882   4.044  16.351  0.4275  0.4424  0.2195
16594TIP3    H171273   4.872   4.058  16.257  0.3580  1.3730  0.3528
16594TIP3    H271274   4.805   3.993  16.376  0.2358  0.5388 -0.1649
16595TIP3   OH271275   4.046   3.620  12.208  0.2185  0.5703 -0.6180
16595TIP3    H171276   3.969   3.667  12.176 -2.2626 -0.2273  3.3689
16595TIP3    H271277   4.090   3.683  12.266  0.1062 -0.2120  0.3582
16596TIP3   OH271278   0.319   3.953   1.854 -0.2647 -0.0542 -0.3615
16596TIP3    H171279   0.361   3.936   1.770  0.9021  0.7027  0.0509
16596TIP3    H271280   0.376   4.016   1.898 -1.7656  0.9244  0.2851
16597TIP3   OH271281   0.019   5.048   0.878 -0.0045  0.4135  0.0079
16597TIP3    H171282  -0.054   5.037   0.816  1.2716 -0.1154 -1.4520
16597TIP3    H271283   0.069   4.967   0.870  0.1360  0.2757  1.8682
16598TIP3   OH271284   2.838   1.787  16.298  0.7849  0.9997  0.0145
16598TIP3    H171285   2.933   1.790  16.288  1.0798 -2.0703  1.0670
16598TIP3    H271286   2.824   1.741  16.380 -1.5757 -1.6450 -1.6999
16599TIP3   OH271287   3.876   6.419  13.878 -0.1231  0.1368  0.1148
16599TIP3    H171288   3.851   6.335  13.916  1.1636 -0.7920 -0.9894
16599TIP3    H271289   3.890   6.400  13.785  1.7292  1.1908  0.1278
16600TIP3   OH271290   6.081   5.458   0.140 -0.1858 -0.3984 -0.1550
16600TIP3    H171291   6.059   5.444   0.232  4.0010 -1.4516  0.8892
16600TIP3    H271292   6.106   5.550   0.135  1.9393 -0.8926  0.4515
16601TIP3   OH271293   0.081   2.791  14.011  0.2090  0.1427 -0.3130
16601TIP3    H171294   0.031   2.731  13.956  2.9158 -1.1576 -1.5839
16601TIP3    H271295   0.095   2.743  14.092 -0.7708  0.6115  0.1453
16602TIP3   OH271296   6.079   5.582  12.040  0.1219  0.4958 -0.1814
16602TIP3    H171297   6.101   5.603  11.949 -1.2444  0.4460 -0.5371
16602TIP3    H271298   6.094   5.487  12.046  0.9518  0.6224 -0.1265
16603TIP3   OH271299   5.637   3.111   5.492 -0.2603  0.2176  0.6858
16603TIP3    H171300   5.698   3.126   5.420  1.8646 -2.1552  1.8295
16603TIP3    H271301   5.678   3.154   5.567 -1.2215  0.6040  1.0090
16604TIP3   OH271302   2.824   1.271   3.515  0.6790 -0.8302 -0.0091
16604TIP3    H171303   2.788   1.217   3.585 -0.7751  1.1732  0.8651
16604TIP3    H271304   2.751   1.327   3.487  1.6389 -0.5062 -2.0792
16605TIP3   OH271305   2.378   4.650   4.006  0.7614  0.6555  0.1304
16605TIP3    H171306   2.372   4.722   4.069  0.0150 -0.3302  1.2175
16605TIP3    H271307   2.287   4.626   3.988  0.9827  0.5270 -0.8726
16606TIP3   OH271308   0.227   0.038  14.241  0.3281 -0.2616 -0.0567
16606TIP3    H171309   0.317   0.005  14.239  0.3001 -0.3382 -1.9374
16606TIP3    H271310   0.235   0.132  14.227  0.2544  0.2460  2.8318
16607TIP3   OH271311   4.520   2.652  16.973  0.4078 -0.3660 -0.2908
16607TIP3    H171312   4.526   2.653  17.069  0.4651 -2.1326 -0.2486
16607TIP3    H271313   4.428   2.636  16.954  0.3019  0.5018 -0.5560
16608TIP3   OH271314   5.664   3.222   2.425 -0.7980  0.3235 -0.6244
16608TIP3    H171315   5.621   3.147   2.382 -1.3619  0.4020 -0.1960
16608TIP3    H271316   5.695   3.187   2.508 -1.7272  0.7474 -0.0865
16609TIP3   OH271317   0.789   3.992   0.185  0.3660 -0.9116  0.0560
16609TIP3    H171318   0.827   4.038   0.260 -3.7470 -0.6092  2.2312
16609TIP3    H271319   0.794   4.055   0.113  1.7735 -0.0748  0.8558
16610TIP3   OH271320   3.429   4.242   3.454 -0.4640 -0.0229 -0.2045
16610TIP3    H171321   3.525   4.247   3.448 -0.5456  2.4408 -0.8133
16610TIP3    H271322   3.410   4.150   3.474  2.0548 -0.4137  0.7350
16611TIP3   OH271323   1.962   6.720  17.036  0.2011  0.6824 -0.0893
16611TIP3    H171324   1.909   6.702  16.958  0.2314  0.4748 -0.0622
16611TIP3    H271325   1.990   6.634  17.067  1.2217  0.8337 -0.5581
16612TIP3   OH271326   0.349   6.192   3.252 -0.1847  0.5377  0.0638
16612TIP3    H171327   0.332   6.281   3.219 -1.8502  0.4304  0.5400
16612TIP3    H271328   0.386   6.206   3.339 -0.8452  0.7800  0.3139
16613TIP3   OH271329   1.514   2.164  14.717 -0.1169 -0.1425 -0.6209
16613TIP3    H171330   1.489   2.073  14.733 -0.7269  0.1077 -0.1047
16613TIP3    H271331   1.434   2.204  14.682 -0.6585  0.8090  1.5579
16614TIP3   OH271332   3.205   6.447  16.479  0.2824 -0.0444 -0.6965
16614TIP3    H171333   3.253   6.415  16.555  1.8516  0.5777 -1.3857
16614TIP3    H271334   3.114   6.426  16.498  0.8905 -2.0389  0.2725
16615TIP3   OH271335   0.152   2.191  16.408  0.1823  0.4765 -0.1715
16615TIP3    H171336   0.231   2.149  16.442 -0.6496 -0.6067  0.5064
16615TIP3    H271337   0.117   2.129  16.344  0.4765  1.4629 -1.3151
16616TIP3   OH271338   4.203   6.286   0.014 -0.4544 -0.3155  0.4115
16616TIP3    H171339   4.284   6.235   0.008 -0.9442 -1.0764  0.1926
16616TIP3    H271340   4.232   6.375   0.036  0.5112 -0.3663 -0.5523
16617TIP3   OH271341   2.372   0.292   6.516  0.4953  0.0611  0.0920
16617TIP3    H171342   2.404   0.203   6.531  0.9185  0.2086  0.0803
16617TIP3    H271343   2.283   0.292   6.552  0.5416 -0.3273  0.2127
16618TIP3   OH271344   5.816   2.381   1.130 -0.4842 -0.6111 -0.0297
16618TIP3    H171345   5.833   2.432   1.051  2.9410 -1.6133 -0.1228
16618TIP3    H271346   5.730   2.410   1.160 -0.5524  2.0422 -2.3921
16619TIP3   OH271347   6.354   2.422   4.149  0.3055 -0.4773 -0.1245
16619TIP3    H171348   6.380   2.504   4.109  2.5455 -0.0117  2.0105
16619TIP3    H271349   6.286   2.445   4.211  1.5211 -0.0222  1.0853
16620TIP3   OH271350   4.191   2.531  11.913  0.5384 -0.3032  0.2795
16620TIP3    H171351   4.217   2.596  11.847  0.0559 -1.3616 -1.0084
16620TIP3    H271352   4.125   2.478  11.868 -0.9239 -0.1432  2.1322
16621TIP3   OH271353   0.698   2.532   0.337 -0.4458  0.0301  0.0661
16621TIP3    H171354   0.716   2.512   0.245 -1.1767 -1.0828  0.1464
16621TIP3    H271355   0.774   2.499   0.384  0.6687  1.9833 -0.2357
16622TIP3   OH271356   2.183   5.622   1.316  0.6594 -0.3171 -0.1051
16622TIP3    H171357   2.229   5.658   1.392  1.6868 -0.1392 -0.8046
16622TIP3    H271358   2.171   5.697   1.258 -2.4817  0.1634  0.9523
16623TIP3   OH271359   0.701   6.275  16.344  0.4197 -0.1330  0.4163
16623TIP3    H171360   0.666   6.233  16.266 -0.2747  2.1544 -0.5794
16623TIP3    H271361   0.791   6.241  16.351  2.0141  2.3929 -3.7402
16624TIP3   OH271362   0.874   0.284   5.621 -0.4726  0.1418  0.3281
16624TIP3    H171363   0.853   0.238   5.703 -0.8703 -2.4591 -1.1220
16624TIP3    H271364   0.789   0.297   5.579 -0.0659 -2.0413 -1.3456
16625TIP3   OH271365   0.206   1.995   1.513  0.5973 -0.2948 -0.5051
16625TIP3    H171366   0.171   2.083   1.520 -1.6007 -1.1402  0.0209
16625TIP3    H271367   0.223   1.982   1.420 -1.4086 -0.1101 -0.9415
16626TIP3   OH271368   4.627   3.517  15.488  0.4041  0.1055  0.1986
16626TIP3    H171369   4.609   3.595  15.540  0.7639  0.3697 -0.0710
16626TIP3    H271370   4.653   3.451  15.552 -1.2419 -0.2137  0.5728
16627TIP3   OH271371   2.565   6.816  13.825  0.0686  0.0683  0.2118
16627TIP3    H171372   2.496   6.798  13.762  0.9260 -0.2838 -0.6615
16627TIP3    H271373   2.533   6.891  13.876  0.4295  2.1494 -2.3901
16628TIP3   OH271374   0.730   4.047   0.846 -0.4315 -0.7381  0.2999
16628TIP3    H171375   0.684   4.010   0.771 -0.6704 -0.5809  0.3687
16628TIP3    H271376   0.818   4.008   0.842  0.3840  1.0722 -1.4719
16629TIP3   OH271377   3.209   5.284  12.305 -0.0586  0.2299 -0.5197
16629TIP3    H171378   3.299   5.295  12.336  0.2254 -0.5308 -1.0588
16629TIP3    H271379   3.217   5.231  12.226 -1.0644 -0.5720 -0.0970
16630TIP3   OH271380   2.731   2.554   1.175 -0.2524  0.1716 -1.2152
16630TIP3    H171381   2.728   2.485   1.108  0.8371 -0.9630 -0.1379
16630TIP3    H271382   2.643   2.593   1.173 -1.1297 -1.7222 -1.3614
16631TIP3   OH271383   4.792   4.194  14.183  0.2809 -0.0329 -0.6149
16631TIP3    H171384   4.813   4.104  14.160  1.9694  0.1054  0.2758
16631TIP3    H271385   4.838   4.247  14.119 -0.1765  0.2193 -0.7404
16632TIP3   OH271386   5.970   5.189   1.334 -1.2463  0.2675  0.0449
16632TIP3    H171387   5.912   5.113   1.340 -2.1283  0.8961 -0.1828
16632TIP3    H271388   6.004   5.186   1.245  1.2000 -1.5655  0.9405
16633TIP3   OH271389   1.889   1.507  13.094 -0.1089 -0.2144 -0.1583
16633TIP3    H171390   1.809   1.543  13.057 -0.4846 -1.7149 -0.8883
16633TIP3    H271391   1.957   1.531  13.030 -0.2059 -0.1077 -0.2229
16634TIP3   OH271392   2.626   1.668   2.153 -0.1252  0.5729 -0.6183
16634TIP3    H171393   2.598   1.693   2.065  0.9539  1.5531 -0.6977
16634TIP3    H271394   2.721   1.660   2.147 -0.0155  0.8703  0.5147
16635TIP3   OH271395   4.692   0.915  14.409 -0.0213 -0.2134  0.3131
16635TIP3    H171396   4.716   0.947  14.496  0.2886  1.5955 -0.3988
16635TIP3    H271397   4.772   0.877  14.374  0.7857  1.9231 -0.3605
16636TIP3   OH271398   5.691   3.783  13.540  0.4098  0.0361  0.1131
16636TIP3    H171399   5.609   3.738  13.518 -0.4222  1.2095  0.7027
16636TIP3    H271400   5.743   3.717  13.586 -0.9237 -0.2668  1.2755
16637TIP3   OH271401   6.178   1.408   4.914  0.2764 -0.2700  0.4382
16637TIP3    H171402   6.197   1.420   5.007  2.4684 -0.4532  0.0864
16637TIP3    H271403   6.231   1.332   4.890  0.5910  0.4323 -1.1788
16638TIP3   OH271404   5.861   0.289   0.664  0.4117  0.6314 -0.1248
16638TIP3    H171405   5.873   0.271   0.757 -0.3979  0.0874 -0.1057
16638TIP3    H271406   5.942   0.259   0.623  0.2523 -0.3888  0.2597
16639TIP3   OH271407   0.860   0.154   5.892 -0.0595  0.0907  0.4591
16639TIP3    H171408   0.782   0.190   5.934  0.4963  1.6349  0.2398
16639TIP3    H271409   0.919   0.133   5.965 -0.7629 -1.3455  0.6405
16640TIP3   OH271410   2.832   5.370  11.735  0.0761  0.5463 -0.8167
16640TIP3    H171411   2.795   5.451  11.700  1.5326  1.0586 -1.2112
16640TIP3    H271412   2.908   5.352  11.680  0.7476 -0.1815  0.3189
16641TIP3   OH271413   3.792   3.835   2.890 -0.0421  0.4634  0.2056
16641TIP3    H171414   3.758   3.793   2.969  1.8158 -0.8182  0.3821
16641TIP3    H271415   3.717   3.838   2.831 -1.1014  0.1084  1.4770
16642TIP3   OH271416   6.733   5.363   3.576  0.1091  0.5868  0.0971
16642TIP3    H171417   6.645   5.325   3.577 -0.0251  0.9165  1.0959
16642TIP3    H271418   6.721   5.453   3.607  0.6825  0.9021 -0.5655
16643TIP3   OH271419   3.673   5.282  11.659 -0.1992  0.7159  0.1433
16643TIP3    H171420   3.765   5.302  11.675  0.3870 -2.5321  1.7048
16643TIP3    H271421   3.628   5.311  11.738 -0.0142 -0.1676  0.5926
16644TIP3   OH271422   0.470   3.659  12.970  0.0598 -0.5967  0.0430
16644TIP3    H171423   0.541   3.653  12.906 -0.8769 -1.6866 -0.9444
16644TIP3    H271424   0.492   3.595  13.037  1.2162  0.7821  1.0565
16645TIP3   OH271425   5.858   3.487   0.605  0.4512  0.4654 -0.0195
16645TIP3    H171426   5.786   3.525   0.654  0.9981  0.6543  0.6489
16645TIP3    H271427   5.880   3.406   0.652  0.1209 -0.0382 -0.7098
16646TIP3   OH271428   0.846   0.409  14.068 -0.2170 -0.2418 -0.4658
16646TIP3    H171429   0.893   0.371  14.143 -1.2229 -0.1669  0.2212
16646TIP3    H271430   0.916   0.437  14.008  0.5705 -1.7845 -0.3079
16647TIP3   OH271431   4.460   0.707   5.576 -0.4126 -0.5871 -0.4507
16647TIP3    H171432   4.489   0.769   5.509  0.4159 -0.1532  0.2999
16647TIP3    H271433   4.514   0.629   5.561  0.9810  0.1003  0.7319
16648TIP3   OH271434   2.529   5.301   1.428  0.6047  1.3081  0.0496
16648TIP3    H171435   2.567   5.359   1.495 -2.6788  2.3542  1.2043
16648TIP3    H271436   2.546   5.345   1.345  1.1877  2.1278  0.5875
16649TIP3   OH271437   6.571   5.182  16.295  0.2643 -0.1600 -0.3946
16649TIP3    H171438   6.547   5.189  16.388 -1.9799  0.0814 -0.9529
16649TIP3    H271439   6.599   5.270  16.271 -1.3548  0.3664 -0.4781
16650TIP3   OH271440   1.407   2.677   3.357  0.0823 -0.1672  0.1875
16650TIP3    H171441   1.491   2.636   3.335 -0.4564 -1.6413  0.6919
16650TIP3    H271442   1.371   2.706   3.273  1.4500  1.2723  0.0558
16651TIP3   OH271443   0.004   1.128  11.459 -0.4370 -0.5008  0.5124
16651TIP3    H171444  -0.033   1.190  11.522  0.6284  0.0966  0.5639
16651TIP3    H271445  -0.008   1.042  11.501  1.5224 -0.0029  2.2212
16652TIP3   OH271446   1.233   0.655  16.435 -0.3855 -0.1305  0.1959
16652TIP3    H171447   1.195   0.715  16.500  0.8866  0.1991  0.6565
16652TIP3    H271448   1.282   0.712  16.376 -1.6238 -0.4214 -1.1520
16653TIP3   OH271449   6.809   1.012  13.396  0.3811  0.3798 -0.5656
16653TIP3    H171450   6.749   1.084  13.380  1.1127  1.3214  0.7804
16653TIP3    H271451   6.888   1.053  13.431  2.1895 -0.7212 -3.0335
16654TIP3   OH271452   0.372   1.480  16.261 -0.4458  0.1662  0.2754
16654TIP3    H171453   0.414   1.438  16.336 -0.4794  0.8410  0.6828
16654TIP3    H271454   0.278   1.477  16.281 -0.4338  0.6259  0.4145
16655TIP3   OH271455   4.050   5.587  14.110 -0.5512 -0.5854  0.1155
16655TIP3    H171456   4.054   5.662  14.050 -1.3703 -1.8862 -1.6331
16655TIP3    H271457   3.996   5.619  14.183 -2.7881 -0.0787 -1.6300
16656TIP3   OH271458   0.172   2.078  13.811 -0.0851 -0.2589 -0.0254
16656TIP3    H171459   0.156   2.154  13.756 -0.8624 -0.0813  0.4303
16656TIP3    H271460   0.090   2.029  13.809 -0.6030  0.4140  1.9860
16657TIP3   OH271461   5.498   5.754   4.482 -0.2719  0.1206 -0.1767
16657TIP3    H171462   5.475   5.843   4.455 -0.9727  0.3781  1.1703
16657TIP3    H271463   5.502   5.704   4.400 -1.0687  1.1224 -0.8497
16658TIP3   OH271464   2.607   5.446  14.375  0.0446  1.0228 -0.0633
16658TIP3    H171465   2.617   5.541  14.381  1.7663  0.7596  3.3559
16658TIP3    H271466   2.683   5.411  14.420 -2.4518 -1.8741  2.3126
16659TIP3   OH271467   2.029   4.452   3.318 -0.0179 -0.4964 -0.2688
16659TIP3    H171468   1.971   4.485   3.387 -0.0722  2.1883 -1.4684
16659TIP3    H271469   2.117   4.465   3.353 -0.0243  1.4064 -0.8323
16660TIP3   OH271470   0.556   1.400   4.639 -0.3869  0.4437  0.4586
16660TIP3    H171471   0.589   1.342   4.707 -0.8298  1.6819  1.7714
16660TIP3    H271472   0.591   1.363   4.557 -0.5490 -1.5652  1.2345
16661TIP3   OH271473   1.221   1.309  15.794  0.2536 -0.5069  0.4167
16661TIP3    H171474   1.251   1.388  15.838 -0.0561 -0.6741  0.9449
16661TIP3    H271475   1.197   1.250  15.866  2.1041 -1.7377  0.0971
16662TIP3   OH271476   2.271   3.735  16.004  0.1335  0.5227  0.2556
16662TIP3    H171477   2.213   3.764  16.075 -1.1810  0.3236 -0.7029
16662TIP3    H271478   2.272   3.640  16.012  0.2102  0.5174  0.1772
16663TIP3   OH271479   0.821   2.869   6.718 -0.2214  0.3181 -0.3591
16663TIP3    H171480   0.888   2.805   6.695  2.0619  2.5531 -0.3887
16663TIP3    H271481   0.839   2.943   6.660 -1.4753  1.7474  0.9944
16664TIP3   OH271482   0.025   2.720   1.363  0.0535  0.3165  0.2171
16664TIP3    H171483  -0.066   2.701   1.386 -0.8209  0.0138 -3.0494
16664TIP3    H271484   0.059   2.636   1.331  0.3767  1.1449 -1.7275
16665TIP3   OH271485   2.003   4.929  12.481 -0.3175 -0.5401 -0.3846
16665TIP3    H171486   2.095   4.955  12.472 -0.7850  0.8332 -1.4848
16665TIP3    H271487   1.962   4.959  12.400 -2.2231  1.0314  1.0924
16666TIP3   OH271488   2.615   5.372  15.694 -0.8146  0.3197  0.4315
16666TIP3    H171489   2.645   5.400  15.781  0.0490 -1.6520  0.8063
16666TIP3    H271490   2.578   5.285  15.708  0.7637 -0.7043 -1.4193
16667TIP3   OH271491   1.666   3.525  15.287  0.2661 -0.5072 -0.2443
16667TIP3    H171492   1.735   3.465  15.316  0.5509  0.8976  2.3496
16667TIP3    H271493   1.711   3.609  15.276 -0.9203  0.3566  1.1545
16668TIP3   OH271494   4.751   4.068   0.308  0.4561  0.1488  0.0722
16668TIP3    H171495   4.688   4.099   0.373  0.1384 -0.8286  0.2333
16668TIP3    H271496   4.708   3.994   0.266  1.0777  0.1301 -0.5507
16669TIP3   OH271497   2.326   4.575   3.005 -0.4931 -0.8437 -0.4570
16669TIP3    H171498   2.280   4.501   3.043 -0.3411  0.1257  1.7786
16669TIP3    H271499   2.415   4.568   3.038  0.0349 -0.6533 -1.7500
16670TIP3   OH271500   2.656   1.394  11.915 -0.1585  0.5016 -0.2115
16670TIP3    H171501   2.708   1.419  11.839 -1.3911  1.3108 -0.8142
16670TIP3    H271502   2.582   1.346  11.879  0.6986 -1.6622  0.7245
16671TIP3   OH271503   4.299   6.343   1.500 -0.5426  0.1531 -0.4200
16671TIP3    H171504   4.227   6.350   1.563  0.4529  0.4467  0.6977
16671TIP3    H271505   4.354   6.272   1.534 -1.2752 -1.4130 -2.2993
16672TIP3   OH271506   2.263   5.958   3.767 -0.0264 -0.1192  0.0405
16672TIP3    H171507   2.216   5.881   3.733 -0.0870  0.2101 -0.6447
16672TIP3    H271508   2.348   5.923   3.794  0.2211 -0.3128 -0.9505
16673TIP3   OH271509   2.394   2.899  12.978 -0.1724 -0.2658 -0.1059
16673TIP3    H171510   2.381   2.976  13.033  0.4669  0.4382 -0.9166
16673TIP3    H271511   2.485   2.874  12.994 -0.7735 -1.7870  1.2909
16674TIP3   OH271512   4.558   4.831  13.475  0.2882 -0.5886 -0.3672
16674TIP3    H171513   4.612   4.907  13.455 -1.1333  0.2665 -1.1652
16674TIP3    H271514   4.615   4.773  13.525  1.4772  0.9041  0.0765
16675TIP3   OH271515   4.949   4.993   1.809  0.1072  0.6470 -0.0984
16675TIP3    H171516   4.955   4.946   1.892  1.5863  0.0956 -0.4775
16675TIP3    H271517   4.886   5.063   1.825  0.5302  0.6873  1.5480
16676TIP3   OH271518   1.209   4.708  12.802  0.2042 -0.1959  0.1441
16676TIP3    H171519   1.209   4.803  12.807  2.6384 -0.1480  0.9301
16676TIP3    H271520   1.236   4.680  12.890  1.7519 -1.4747 -0.6881
16677TIP3   OH271521   4.781   2.440   6.388 -0.2630 -0.6159 -0.2758
16677TIP3    H171522   4.707   2.432   6.329  1.1215 -2.4181 -1.9035
16677TIP3    H271523   4.766   2.374   6.455 -1.1660  0.5021  0.6466
16678TIP3   OH271524   0.448   2.941   1.751  0.1906  0.3831  0.1231
16678TIP3    H171525   0.491   2.865   1.710 -1.3520 -1.0873  1.0733
16678TIP3    H271526   0.356   2.932   1.726 -0.1085  1.6580  0.7026
16679TIP3   OH271527   0.664   1.781   3.062  0.5791 -0.1497 -0.0799
16679TIP3    H171528   0.662   1.832   3.144 -2.2430 -0.7774  0.3409
16679TIP3    H271529   0.629   1.841   2.996  1.2106 -0.2150 -0.4814
16680TIP3   OH271530   5.624   4.069  13.500 -0.1797 -0.3638 -0.2091
16680TIP3    H171531   5.547   4.075  13.557  1.0845  0.1525  1.5167
16680TIP3    H271532   5.658   3.981  13.516 -0.8862 -0.9381 -1.6699
16681TIP3   OH271533   0.016   5.873  15.568  0.0657  0.3556  0.5731
16681TIP3    H171534   0.029   5.903  15.479  0.1746  0.9673  0.7901
16681TIP3    H271535   0.047   5.783  15.568  0.9940  0.6652  0.2326
16682TIP3   OH271536   2.606   1.171  12.786 -0.1776  0.7032 -0.6469
16682TIP3    H171537   2.628   1.092  12.835  0.2314  0.3908 -1.3353
16682TIP3    H271538   2.515   1.158  12.758 -0.9494  1.5221  1.2596
16683TIP3   OH271539   4.373   1.622  12.901 -0.1825  0.1028 -0.3204
16683TIP3    H171540   4.352   1.542  12.949  0.1076 -0.6453 -1.3925
16683TIP3    H271541   4.385   1.688  12.969 -0.5577 -0.7288  0.5854
16684TIP3   OH271542   1.101   5.123   4.588 -0.0126  0.6517  0.4338
16684TIP3    H171543   1.073   5.060   4.654  0.6933  0.3438  0.4495
16684TIP3    H271544   1.165   5.076   4.535 -1.8451  0.2999 -1.6079
16685TIP3   OH271545   3.659   5.971   0.229 -0.4992  0.2099 -0.6337
16685TIP3    H171546   3.575   5.975   0.184 -1.4592 -0.8486  0.9568
16685TIP3    H271547   3.646   6.023   0.308  0.0624 -0.6329  0.0313
16686TIP3   OH271548   2.239   4.841   5.670 -0.2277 -0.4081  0.3575
16686TIP3    H171549   2.289   4.759   5.674 -1.9278 -1.5820 -0.9284
16686TIP3    H271550   2.302   4.906   5.638  0.4397 -1.9346 -1.6563
16687TIP3   OH271551   1.931   6.588   0.812 -0.0305 -0.2359 -0.3146
16687TIP3    H171552   1.959   6.680   0.812 -0.9437  0.0968  1.9813
16687TIP3    H271553   1.836   6.593   0.821  0.0041 -1.3981  0.9031
16688TIP3   OH271554   1.769   3.094  15.921  0.0914 -0.2817  0.7409
16688TIP3    H171555   1.720   3.101  16.003  1.9983  1.3596  1.8511
16688TIP3    H271556   1.751   3.176  15.875 -0.7384 -1.0680 -0.3988
16689TIP3   OH271557   4.042   5.980   5.477  0.2457 -0.3097  0.1097
16689TIP3    H171558   4.065   5.987   5.570 -1.0555 -1.3846  0.5438
16689TIP3    H271559   4.122   5.952   5.434  1.0624  0.9115  0.7877
16690TIP3   OH271560   1.898   5.276   4.876  0.0972 -0.4540 -0.5226
16690TIP3    H171561   1.887   5.345   4.941  0.8757  1.4010 -2.2710
16690TIP3    H271562   1.816   5.226   4.881  0.0474 -0.2433  1.6838
16691TIP3   OH271563   3.006   5.105   2.587 -0.7709 -0.0899 -0.1965
16691TIP3    H171564   2.933   5.144   2.539  0.6142  1.8235 -0.8506
16691TIP3    H271565   3.065   5.073   2.518  0.4842  1.2504  0.2318
16692TIP3   OH271566   5.422   0.420   5.153 -0.0898  0.2433 -0.2229
16692TIP3    H171567   5.341   0.376   5.179 -0.2532  1.2924  1.1951
16692TIP3    H271568   5.476   0.350   5.114 -2.2765 -0.1490 -2.8093
16693TIP3   OH271569   6.560   2.354  14.140 -0.6305 -0.1362  0.6217
16693TIP3    H171570   6.524   2.341  14.228  0.3282 -1.0582  0.9033
16693TIP3    H271571   6.483   2.352  14.083 -1.1318 -1.1942  1.2829
16694TIP3   OH271572   4.677   5.512   0.897 -0.0351 -0.5922  0.1228
16694TIP3    H171573   4.615   5.456   0.943 -0.1138 -0.0647  0.6789
16694TIP3    H271574   4.666   5.598   0.938  1.2198 -0.5459  0.3936
16695TIP3   OH271575   5.749   1.012  11.118  0.0388 -0.3012  0.2119
16695TIP3    H171576   5.654   1.015  11.103 -0.0712 -1.8392  0.4468
16695TIP3    H271577   5.768   1.092  11.166 -1.1045  0.1407 -0.0382
16696TIP3   OH271578   0.828   2.484   6.426 -0.3324 -0.4606  0.4670
16696TIP3    H171579   0.857   2.566   6.466 -0.9743 -0.7546  1.5837
16696TIP3    H271580   0.904   2.427   6.429 -0.1978 -0.2676  0.7101
16697TIP3   OH271581   4.325   1.973   3.431  0.0746  0.0759  0.1185
16697TIP3    H171582   4.234   1.943   3.436 -0.1623  0.5951 -0.7357
16697TIP3    H271583   4.356   1.971   3.521 -0.4430 -1.1322  0.2927
16698TIP3   OH271584   2.764   4.825   2.450  0.1162  0.3311  0.4109
16698TIP3    H171585   2.778   4.919   2.443 -0.4656  0.2893 -2.5930
16698TIP3    H271586   2.670   4.816   2.468  0.5370  0.2847  2.9549
16699TIP3   OH271587   5.601   0.745   5.658 -0.7841  0.3000 -0.0428
16699TIP3    H171588   5.678   0.761   5.713 -1.1878  2.8029 -0.1112
16699TIP3    H271589   5.527   0.776   5.710 -1.5711 -0.4973 -0.6555
16700TIP3   OH271590   5.938   5.306  16.761  0.6217  0.3689 -0.7760
16700TIP3    H171591   5.943   5.251  16.839  1.1405  0.1131 -0.9831
16700TIP3    H271592   5.978   5.389  16.787 -2.7512  1.7911  0.4522
16701TIP3   OH271593   6.038   1.258  12.144 -0.8578 -0.2114  0.4664
16701TIP3    H171594   6.030   1.344  12.185 -0.2200  1.3113 -2.3906
16701TIP3    H271595   5.989   1.265  12.062  0.4217 -2.0832 -0.5491
16702TIP3   OH271596   6.589   2.565   6.431 -0.0702  0.5441 -0.3054
16702TIP3    H171597   6.628   2.574   6.518 -0.0045 -0.9914 -0.1458
16702TIP3    H271598   6.630   2.633   6.378  1.2125  0.3447  0.4170
16703TIP3   OH271599   3.111   4.139   4.304  0.9748 -0.2606 -0.4175
16703TIP3    H171600   3.080   4.194   4.233 -0.2615 -0.9382 -0.4335
16703TIP3    H271601   3.031   4.105   4.345  1.6462 -2.5453 -0.8119
16704TIP3   OH271602   0.010   2.577   1.903 -0.4410 -0.2673  0.2846
16704TIP3    H171603  -0.042   2.534   1.835 -0.4867 -0.1410  0.2391
16704TIP3    H271604   0.099   2.547   1.887 -0.6333 -1.2191  0.9357
16705TIP3   OH271605   1.962   1.843  12.224  0.4680  0.5975 -0.0310
16705TIP3    H171606   2.010   1.894  12.159 -0.1910  0.1279 -0.9111
16705TIP3    H271607   1.870   1.866  12.209  0.1651 -0.7928 -0.4255
16706TIP3   OH271608   1.893   2.090   2.788  0.0937 -0.6277 -0.0252
16706TIP3    H171609   1.905   2.174   2.746  0.3135 -1.2619 -1.2657
16706TIP3    H271610   1.981   2.063   2.814  0.0596 -0.6134  0.1071
16707TIP3   OH271611   1.775   4.087  16.225  0.1143 -0.8290  0.1363
16707TIP3    H171612   1.749   4.026  16.294 -1.8897 -1.8946 -1.4272
16707TIP3    H271613   1.839   4.039  16.173 -1.3911 -1.6843 -1.0369
16708TIP3   OH271614   2.783   0.611   6.207  0.7110 -0.1493  0.2175
16708TIP3    H171615   2.731   0.531   6.198 -0.6532  0.6847  0.4166
16708TIP3    H271616   2.748   0.655   6.284  0.9987  0.9601 -0.2594
16709TIP3   OH271617   3.545   6.718  15.374 -0.5452 -0.0753  0.1509
16709TIP3    H171618   3.583   6.659  15.439 -1.5656  0.2888  1.1098
16709TIP3    H271619   3.592   6.801  15.387  0.0666 -0.3266 -0.3937
16710TIP3   OH271620   2.437   3.896   2.190 -0.4950  0.1185  0.0030
16710TIP3    H171621   2.439   3.963   2.122 -0.8499  2.9454  2.5762
16710TIP3    H271622   2.346   3.896   2.221 -0.1442 -0.4832  1.0779
16711TIP3   OH271623   4.400   2.067  11.967 -0.0078  0.1900  0.1708
16711TIP3    H171624   4.465   2.108  12.024  2.6711 -0.3038 -2.2893
16711TIP3    H271625   4.366   2.139  11.913  1.1779 -0.0461 -0.9300
16712TIP3   OH271626   0.771   1.099  12.831  0.2484 -0.1182 -0.0944
16712TIP3    H171627   0.704   1.166  12.817  0.7897  0.2397 -1.1085
16712TIP3    H271628   0.849   1.134  12.788  0.9827 -0.7125  0.6994
16713TIP3   OH271629   4.737   4.257   1.481 -0.0487  0.2107 -0.3003
16713TIP3    H171630   4.711   4.166   1.466  0.6028 -0.1694  0.7842
16713TIP3    H271631   4.816   4.251   1.535  0.8901  1.3845 -1.4700
16714TIP3   OH271632   5.748   4.121   5.027 -0.2521 -0.4034 -0.2035
16714TIP3    H171633   5.729   4.028   5.041  0.7805 -0.4113  1.2635
16714TIP3    H271634   5.684   4.148   4.960 -0.3242 -2.2411 -0.9368
16715TIP3   OH271635   1.820   0.331   3.829 -0.0931  0.2289 -0.7105
16715TIP3    H171636   1.752   0.398   3.832 -0.4663 -0.0958 -1.5736
16715TIP3    H271637   1.777   0.255   3.789  0.3759 -0.4662  0.0606
16716TIP3   OH271638   1.929   5.146   0.317 -0.7535  0.1055 -0.4480
16716TIP3    H171639   1.916   5.235   0.351 -2.3965  0.0949 -0.9574
16716TIP3    H271640   1.842   5.119   0.288 -0.6425 -2.2874  1.1451
16717TIP3   OH271641   3.994   4.096  17.196 -0.1272 -0.0262  0.1016
16717TIP3    H171642   4.035   4.010  17.202  0.4059  0.1126 -1.2692
16717TIP3    H271643   4.065   4.157  17.215 -0.6871  0.1298  1.9082
16718TIP3   OH271644   6.434   4.952   0.910  0.6073  0.2691 -0.2863
16718TIP3    H171645   6.398   5.040   0.898  0.2945  0.2206  0.2609
16718TIP3    H271646   6.360   4.894   0.891 -0.0136  0.1885  2.0704
16719TIP3   OH271647   0.818   0.886   3.604 -0.0456 -0.0218 -0.3738
16719TIP3    H171648   0.748   0.945   3.578 -0.1423  0.3666  0.7183
16719TIP3    H271649   0.781   0.798   3.595 -0.8408  0.1942  0.6382
16720TIP3   OH271650   4.611   3.799  14.256 -0.0694  0.0881  0.5355
16720TIP3    H171651   4.565   3.813  14.174  1.2534 -0.2761 -0.2884
16720TIP3    H271652   4.597   3.707  14.277  0.2314 -0.0032  0.3269
16721TIP3   OH271653   5.225   6.780   1.543 -0.0652 -0.3562  0.2446
16721TIP3    H171654   5.302   6.830   1.569  0.8763 -0.3235 -2.2993
16721TIP3    H271655   5.236   6.695   1.585  0.7408  0.0507  0.8790
16722TIP3   OH271656   1.561   6.479  16.024  0.0024  0.3201  0.0771
16722TIP3    H171657   1.628   6.462  16.091  0.8065  1.1626 -0.4879
16722TIP3    H271658   1.508   6.399  16.023  1.4400 -0.6830  0.0503
16723TIP3   OH271659   5.816   0.446  14.629 -0.1671  0.5404  0.4631
16723TIP3    H171660   5.820   0.537  14.659 -0.7825  0.9843 -0.7130
16723TIP3    H271661   5.886   0.401  14.676  0.0200  1.5779  1.2000
16724TIP3   OH271662   0.847   2.254   3.616 -0.1725 -0.8882 -0.5074
16724TIP3    H171663   0.832   2.160   3.606 -0.1402 -0.7754 -1.7662
16724TIP3    H271664   0.796   2.294   3.545 -0.5890  0.0844  0.3112
16725TIP3   OH271665   4.683   0.273  10.161 -0.2551  0.2916 -0.0257
16725TIP3    H171666   4.595   0.236  10.149 -0.8184  1.5466  0.1337
16725TIP3    H271667   4.676   0.363  10.129  1.2385  0.1240 -0.9428
16726TIP3   OH271668   5.527   5.828  14.032 -0.4631 -0.5140 -0.1904
16726TIP3    H171669   5.603   5.780  13.998  0.1848  1.5937 -2.0382
16726TIP3    H271670   5.457   5.763  14.036  1.4794 -2.6687  2.0823
16727TIP3   OH271671   3.191   6.744  14.341  0.3306 -0.5911 -0.7931
16727TIP3    H171672   3.174   6.654  14.366 -1.2143 -0.2111 -0.3376
16727TIP3    H271673   3.111   6.791  14.365  1.8440  1.3053  0.8869
16728TIP3   OH271674   3.133   3.359  16.838  0.3794  0.0709  0.2215
16728TIP3    H171675   3.214   3.401  16.870  0.8158  0.3468 -1.1854
16728TIP3    H271676   3.065   3.423  16.855  0.7999  0.7212 -0.4984
16729TIP3   OH271677   0.196   3.079  11.206 -0.4198  0.1399  0.5652
16729TIP3    H171678   0.251   3.135  11.261  0.3901 -1.0551  1.0267
16729TIP3    H271679   0.111   3.078  11.251  0.4881 -1.5730  2.4230
16730TIP3   OH271680   5.475   0.756  16.089 -0.1883  0.7629  0.4629
16730TIP3    H171681   5.563   0.769  16.123 -0.0026 -0.1429  0.3452
16730TIP3    H271682   5.487   0.729  15.998 -0.4429 -1.9441  1.1633
16731TIP3   OH271683   5.260   1.614   2.565 -0.2707 -0.0719  0.4264
16731TIP3    H171684   5.254   1.520   2.579  0.0317 -0.2121 -0.3699
16731TIP3    H271685   5.243   1.626   2.472  0.3132  0.6065  0.4009
16732TIP3   OH271686   6.234   6.404   2.386 -0.5315 -0.1759 -0.0848
16732TIP3    H171687   6.223   6.498   2.404 -0.5297 -0.3671  0.9873
16732TIP3    H271688   6.192   6.361   2.461  3.0556 -0.9849  1.6809
16733TIP3   OH271689   1.658   2.691   5.347 -0.3496 -0.0683  0.8787
16733TIP3    H171690   1.679   2.701   5.440 -0.5304  1.5462  0.7708
16733TIP3    H271691   1.638   2.779   5.317 -1.1814 -0.6865 -0.4968
16734TIP3   OH271692   3.330   1.750   1.609  0.1211 -0.7762 -0.1312
16734TIP3    H171693   3.276   1.794   1.675 -0.7933 -0.0765 -1.2930
16734TIP3    H271694   3.413   1.798   1.610 -1.2181  1.9605 -2.1665
16735TIP3   OH271695   1.518   0.801   3.725  0.2036  0.3604 -0.2260
16735TIP3    H171696   1.564   0.842   3.652 -0.5484  0.9087 -0.4066
16735TIP3    H271697   1.539   0.855   3.801 -0.0031  0.5132 -0.2766
16736TIP3   OH271698   3.059   2.108   3.620 -0.0168  0.1140  0.4708
16736TIP3    H171699   3.080   2.184   3.673  0.3093 -0.2020  0.7973
16736TIP3    H271700   3.089   2.033   3.671 -1.7790 -0.3583  0.8894
16737TIP3   OH271701   6.761   1.899   3.394 -0.2088 -0.0154  0.0178
16737TIP3    H171702   6.713   1.981   3.401 -0.9997 -0.4893  0.4435
16737TIP3    H271703   6.775   1.872   3.485  3.6895  1.6432  0.0918
16738TIP3   OH271704   1.904   5.396  10.655 -0.1072  0.9740 -0.0685
16738TIP3    H171705   1.942   5.483  10.656 -1.0371  1.4013 -0.3180
16738TIP3    H271706   1.975   5.338  10.682  0.7634  1.7100 -0.7182
16739TIP3   OH271707   3.047   4.312  16.971 -0.1070  0.4734  0.1478
16739TIP3    H171708   3.040   4.217  16.985  0.7452  0.2976 -0.5261
16739TIP3    H271709   3.041   4.322  16.876 -0.9620  1.1770  0.2687
16740TIP3   OH271710   1.040   0.751  12.685 -0.1480 -0.7889  0.4184
16740TIP3    H171711   0.975   0.720  12.747  1.3221 -0.8332  2.0134
16740TIP3    H271712   1.048   0.680  12.621  0.3198 -2.0120  1.7861
16741TIP3   OH271713   4.169   6.210  11.959 -0.0087  0.8569 -0.3749
16741TIP3    H171714   4.213   6.227  11.875  0.6534  0.5865 -0.0859
16741TIP3    H271715   4.239   6.182  12.017 -0.4713  1.0269  0.2697
16742TIP3   OH271716   4.500   3.961  16.335 -0.0989 -0.6213 -0.2569
16742TIP3    H171717   4.483   3.966  16.241 -0.7752 -1.1513 -0.1626
16742TIP3    H271718   4.487   3.869  16.358  2.7982 -1.0923 -0.1506
16743TIP3   OH271719   5.445   6.664   0.924  0.3467 -0.3039 -0.1431
16743TIP3    H171720   5.448   6.692   0.833  1.3515  0.1102 -0.0035
16743TIP3    H271721   5.506   6.722   0.969  1.6717 -1.9801  0.3656
16744TIP3   OH271722   1.692   6.048   0.871  0.3270  0.6724 -0.3794
16744TIP3    H171723   1.639   5.970   0.857  1.3910  0.1267 -1.6493
16744TIP3    H271724   1.653   6.091   0.947  0.1957 -1.5021  0.8575
16745TIP3   OH271725   0.503   2.645  17.206 -0.2441  0.3616  0.0153
16745TIP3    H171726   0.565   2.713  17.178  0.8578 -0.0263  1.3856
16745TIP3    H271727   0.472   2.675  17.292 -0.8615 -0.1723 -0.0087
16746TIP3   OH271728   0.346   1.803   6.310 -0.3262  0.0664 -0.0060
16746TIP3    H171729   0.267   1.762   6.345 -0.7736 -0.1126 -1.2010
16746TIP3    H271730   0.335   1.896   6.332 -0.8091  0.0281 -0.0647
16747TIP3   OH271731   6.370   2.504   0.778 -0.1730 -0.4180  0.0317
16747TIP3    H171732   6.325   2.457   0.849 -0.3949  0.3038  0.3727
16747TIP3    H271733   6.352   2.451   0.700 -0.9585 -0.5691  0.2999
16748TIP3   OH271734   1.248   0.219  11.254 -0.1353  0.2397 -0.3910
16748TIP3    H171735   1.157   0.216  11.225 -1.6813  1.6177  3.6546
16748TIP3    H271736   1.273   0.127  11.265 -2.3475 -0.2118  1.6670
16749TIP3   OH271737   1.285   1.249   4.882 -0.4433  0.2971  0.1415
16749TIP3    H171738   1.360   1.215   4.833 -1.1031  0.4292 -0.9850
16749TIP3    H271739   1.223   1.176   4.883 -1.1869  0.8959 -0.8457
16750TIP3   OH271740   0.200   5.026   1.593 -0.0154  0.3265  0.0393
16750TIP3    H171741   0.112   4.990   1.606 -1.0897  2.1220 -1.6690
16750TIP3    H271742   0.257   4.949   1.591 -1.3922 -0.8370  1.9183
16751TIP3   OH271743   0.292   0.159   5.840  0.1288 -0.1480  0.1633
16751TIP3    H171744   0.344   0.174   5.919  0.8885 -0.1866 -0.3134
16751TIP3    H271745   0.215   0.215   5.851 -0.4646 -1.1853  1.5449
16752TIP3   OH271746   5.752   6.054  13.071  0.4684  0.1738  0.1968
16752TIP3    H171747   5.806   6.106  13.012  1.0940  0.1389  0.7264
16752TIP3    H271748   5.761   5.964  13.038 -2.4997  0.6032 -2.1831
16753TIP3   OH271749   2.205   4.129   5.496 -0.1063 -0.3358  0.3486
16753TIP3    H171750   2.185   4.217   5.528  0.1410 -0.7643  1.7640
16753TIP3    H271751   2.202   4.137   5.401  1.1476  1.4958  0.4053
16754TIP3   OH271752   3.591   6.786  14.657 -0.7764  0.3849  0.3406
16754TIP3    H171753   3.620   6.837  14.733 -0.6390  1.6100 -0.5065
16754TIP3    H271754   3.623   6.697  14.674  1.4228  1.1529  0.5753
16755TIP3   OH271755   3.693   0.619  16.477  0.2523 -0.4500  0.3352
16755TIP3    H171756   3.619   0.593  16.532  0.0575 -0.8670 -0.1138
16755TIP3    H271757   3.770   0.600  16.530  0.0224  1.4108  1.4202
16756TIP3   OH271758   1.227   3.912   1.936  0.4892  0.4515 -0.0597
16756TIP3    H171759   1.186   3.942   2.017 -0.5056  0.9816 -0.7310
16756TIP3    H271760   1.314   3.953   1.937  0.4535  0.5316  0.6862
16757TIP3   OH271761   4.360   0.141  13.106 -0.5415 -0.1734 -0.1641
16757TIP3    H171762   4.293   0.078  13.131  0.5023 -1.0911  0.3788
16757TIP3    H271763   4.403   0.166  13.188  0.7640 -0.7468 -0.6424
16758TIP3   OH271764   5.226   5.486   4.666  0.0856  0.0614  0.8441
16758TIP3    H171765   5.228   5.458   4.758 -0.1122  0.0424  0.8447
16758TIP3    H271766   5.155   5.550   4.663  0.6031  0.6357  0.8583
16759TIP3   OH271767   4.637   0.521   2.915  0.1023 -0.3832  0.1635
16759TIP3    H171768   4.697   0.557   2.850  1.3164 -0.1806  1.3466
16759TIP3    H271769   4.550   0.538   2.880  0.6959 -1.5996 -2.1029
16760TIP3   OH271770   5.967   1.183  16.664  0.3998 -0.2782  0.4914
16760TIP3    H171771   5.941   1.127  16.591 -0.4719 -2.4296  2.3239
16760TIP3    H271772   6.041   1.234  16.631 -0.3290 -0.7368 -2.0276
16761TIP3   OH271773   2.888   4.721   1.073  0.4538 -0.0657 -0.1419
16761TIP3    H171774   2.804   4.704   1.031  1.3955  0.5988 -2.4096
16761TIP3    H271775   2.875   4.695   1.164 -1.5119 -2.1102 -0.9373
16762TIP3   OH271776   5.088   1.314  16.709 -0.1326 -0.5020 -0.4634
16762TIP3    H171777   5.169   1.324  16.659  0.8966  0.0042  1.2507
16762TIP3    H271778   5.116   1.298  16.799 -1.9148  1.5382  0.5434
16763TIP3   OH271779   5.872   6.264  15.548  0.2993 -0.0963 -0.5692
16763TIP3    H171780   5.833   6.341  15.508 -0.5895 -0.8757 -1.2637
16763TIP3    H271781   5.901   6.293  15.634 -1.8223  0.5549 -0.0151
16764TIP3   OH271782   0.415   4.494  13.823  0.5681  0.2022  0.1883
16764TIP3    H171783   0.359   4.467  13.895  1.2160  2.0057  1.4733
16764TIP3    H271784   0.479   4.553  13.864  1.5375  0.5604 -1.7150
16765TIP3   OH271785   3.283   3.217  10.948 -0.1095 -0.6084  0.1375
16765TIP3    H171786   3.197   3.249  10.976 -0.0730  0.5878 -1.0206
16765TIP3    H271787   3.273   3.122  10.944 -1.4424 -0.4781 -0.1431
16766TIP3   OH271788   6.701   2.621   4.522 -0.1030 -0.0551  0.3478
16766TIP3    H171789   6.668   2.544   4.475 -1.2122  0.9021 -0.4884
16766TIP3    H271790   6.796   2.618   4.507 -0.4174  0.3961 -2.3467
16767TIP3   OH271791   4.070   2.873  14.420 -0.6295  0.1201 -0.2311
16767TIP3    H171792   4.082   2.967  14.403 -1.1135  0.1081 -0.6617
16767TIP3    H271793   4.031   2.870  14.508  2.5213  0.1481  1.3063
16768TIP3   OH271794   0.417   4.880  11.730  0.7185  0.5865 -0.1010
16768TIP3    H171795   0.370   4.864  11.812  0.4233  2.5234  0.1365
16768TIP3    H271796   0.351   4.870  11.661  0.1128  2.4843  0.1716
16769TIP3   OH271797   3.151   3.908   1.577 -0.2209 -0.4601 -0.2151
16769TIP3    H171798   3.244   3.929   1.586 -0.7492  1.4487  1.3399
16769TIP3    H271799   3.119   3.965   1.507 -0.9474  1.7895  1.7984
16770TIP3   OH271800   0.594   1.547  11.303 -0.5574 -0.0510  0.1841
16770TIP3    H171801   0.562   1.498  11.227 -1.0978 -0.6649  0.7981
16770TIP3    H271802   0.640   1.622  11.265  0.1933 -0.9594 -0.7860
16771TIP3   OH271803   3.765   2.606  11.885  0.3217 -0.3578  0.3160
16771TIP3    H171804   3.817   2.526  11.876 -0.9090 -1.1773  0.2803
16771TIP3    H271805   3.680   2.584  11.846 -0.3051  0.7011  1.0463
16772TIP3   OH271806   5.119   6.444   6.404  0.3765 -0.2960  0.3619
16772TIP3    H171807   5.180   6.468   6.473  1.2869 -1.9414  0.1882
16772TIP3    H271808   5.043   6.501   6.417  0.2306 -1.0109  3.1565
16773TIP3   OH271809   4.136   3.863  17.204 -0.2954  0.1362  0.1515
16773TIP3    H171810   4.103   3.779  17.171 -0.2556  0.3340 -0.3906
16773TIP3    H271811   4.209   3.885  17.146 -0.8107  0.9379 -0.1954
16774TIP3   OH271812   3.969   1.718  11.081 -0.5502  0.0949 -0.1187
16774TIP3    H171813   3.918   1.655  11.132 -0.6442 -0.2456 -0.6242
16774TIP3    H271814   4.006   1.665  11.010  2.2232 -0.1409  1.3723
16775TIP3   OH271815   1.939   3.251   2.288 -0.2919 -0.0051  0.3168
16775TIP3    H171816   1.953   3.261   2.194 -1.7717  1.2051  0.1713
16775TIP3    H271817   1.860   3.197   2.295  0.0880 -0.4938  0.8741
16776TIP3   OH271818   1.593   2.013   0.285  0.1644 -1.1930  0.5414
16776TIP3    H171819   1.550   1.959   0.351  0.0661 -1.2378  0.4425
16776TIP3    H271820   1.685   1.991   0.293  0.2218 -0.7873  1.0350
16777TIP3   OH271821   3.652   3.365  10.670  0.0551  0.0632 -0.3346
16777TIP3    H171822   3.717   3.359  10.740  0.2596  1.2403 -0.3991
16777TIP3    H271823   3.605   3.447  10.687 -0.1975  0.1396 -1.3085
16778TIP3   OH271824   2.291   2.969  10.558 -0.2852 -0.3281 -0.0956
16778TIP3    H171825   2.380   2.982  10.591 -0.8923  1.9001  0.8698
16778TIP3    H271826   2.240   3.040  10.597 -2.0700 -0.3274 -2.2037
16779TIP3   OH271827   4.892   0.833   6.173 -0.0554  0.4018 -0.1073
16779TIP3    H171828   4.896   0.920   6.133  1.9548  0.1703 -0.5056
16779TIP3    H271829   4.849   0.778   6.108  0.1193  0.7606 -0.5287
16780TIP3   OH271830   1.747   2.096  14.420 -0.2056  0.2154  0.2941
16780TIP3    H171831   1.721   2.017  14.466 -0.8428 -0.4837 -1.1943
16780TIP3    H271832   1.669   2.152  14.422  0.3404  0.9754  1.6187
16781TIP3   OH271833   1.673   0.584   1.396 -0.1038 -0.5097  0.3152
16781TIP3    H171834   1.647   0.534   1.318 -0.9611 -0.3054  0.4617
16781TIP3    H271835   1.769   0.575   1.399 -0.2231 -2.0314  0.2604
16782TIP3   OH271836   1.822   0.051  13.160 -0.3945  0.3256  0.2745
16782TIP3    H171837   1.862   0.088  13.081 -2.0606  1.1952 -0.2193
16782TIP3    H271838   1.803   0.126  13.215  0.5282 -0.2580  1.4312
16783TIP3   OH271839   3.281   0.444   5.753 -0.0406  0.5407  0.1077
16783TIP3    H171840   3.255   0.353   5.742  1.9983 -0.2593  1.4002
16783TIP3    H271841   3.225   0.477   5.823  0.7563 -0.4665  1.2658
16784TIP3   OH271842   0.905   2.692  13.628  0.0211  0.3012 -0.1160
16784TIP3    H171843   0.906   2.625  13.559 -0.5114 -1.9923  1.9395
16784TIP3    H271844   0.859   2.650  13.700  0.0680  2.7937  1.4571
16785TIP3   OH271845   3.810   0.435   4.929  0.4161 -0.4627  0.3036
16785TIP3    H171846   3.722   0.450   4.897  1.1976  0.2691 -1.6695
16785TIP3    H271847   3.813   0.477   5.015 -1.3520 -1.2068  0.7661
16786TIP3   OH271848   6.215   2.133   5.219  0.1263 -0.4032 -0.6216
16786TIP3    H171849   6.147   2.125   5.153 -1.5368 -0.1944  0.9770
16786TIP3    H271850   6.291   2.089   5.181 -1.1601 -1.4303 -2.1256
16787TIP3   OH271851   3.314   4.977  11.666  0.1195 -0.0719 -0.2095
16787TIP3    H171852   3.309   4.969  11.761  0.2011 -0.8930 -0.2656
16787TIP3    H271853   3.283   5.066  11.648 -1.2551 -0.3748  0.4818
16788TIP3   OH271854   3.743   1.704  11.331  0.2715  0.4279 -0.0653
16788TIP3    H171855   3.665   1.745  11.294 -0.2629  0.7375  1.3213
16788TIP3    H271856   3.712   1.617  11.360  0.5890  0.3152 -0.0597
16789TIP3   OH271857   6.286   1.569   2.204 -0.3253  0.2528  0.2354
16789TIP3    H171858   6.201   1.610   2.224 -0.3221  0.7955 -0.8185
16789TIP3    H271859   6.278   1.480   2.239 -0.8752  0.6740  1.2368
16790TIP3   OH271860   3.234   1.162  13.341 -0.5353  0.0149 -0.2954
16790TIP3    H171861   3.150   1.196  13.311 -0.6210 -0.3772 -0.5009
16790TIP3    H271862   3.251   1.086  13.285 -0.4810 -0.4545  0.3469
16791TIP3   OH271863   4.075   1.603   5.615 -0.1282 -0.4784  0.7627
16791TIP3    H171864   4.080   1.678   5.675  1.4488 -0.2761  0.4438
16791TIP3    H271865   4.133   1.537   5.654 -1.6242 -1.6199  1.1181
16792TIP3   OH271866   4.355   3.983  12.691 -0.9664 -0.0045 -0.2330
16792TIP3    H171867   4.423   4.007  12.753  0.3052  2.1814 -2.3254
16792TIP3    H271868   4.340   3.890  12.707  1.9059 -0.3753  0.8482
16793TIP3   OH271869   4.071   6.452   4.475  0.3804 -0.0519  0.2751
16793TIP3    H171870   3.986   6.418   4.447 -1.3800  2.2950  2.3242
16793TIP3    H271871   4.095   6.395   4.548 -0.8368  0.8622  1.4416
16794TIP3   OH271872   4.502   2.081   2.761 -0.6776  0.2002  0.1160
16794TIP3    H171873   4.476   2.143   2.830  0.8121  1.6981 -0.6213
16794TIP3    H271874   4.579   2.120   2.721 -1.1069 -0.9822 -1.9763
16795TIP3   OH271875   0.944   6.779   1.116  0.0806  0.3401  0.4977
16795TIP3    H171876   0.953   6.866   1.155 -0.4975  0.5908  0.0864
16795TIP3    H271877   0.907   6.724   1.185 -0.6451  0.7045  0.4073
16796TIP3   OH271878   4.354   1.416  15.617 -0.1605  0.5461  0.1602
16796TIP3    H171879   4.444   1.417  15.585  0.2038 -0.6259  1.0705
16796TIP3    H271880   4.308   1.358  15.557  0.9775 -3.3380  2.6736
16797TIP3   OH271881   6.513   1.301   3.443 -0.5689 -0.2407  0.7215
16797TIP3    H171882   6.597   1.264   3.416 -1.1208  0.3508 -2.0671
16797TIP3    H271883   6.448   1.247   3.398 -1.6291  0.5262  1.2970
16798TIP3   OH271884   5.019   2.639   0.120  0.7410  0.1964 -0.1182
16798TIP3    H171885   5.054   2.631   0.209 -0.2303  0.8500  0.3390
16798TIP3    H271886   4.953   2.570   0.114  0.7456  0.2074 -0.3097
16799TIP3   OH271887   0.456   1.293   1.910  0.1162 -0.0994  0.5160
16799TIP3    H171888   0.521   1.290   1.980 -1.1084  0.2444  1.6870
16799TIP3    H271889   0.480   1.370   1.858  2.3376 -1.5666 -0.7897
16800TIP3   OH271890   5.680   3.323   2.959  0.2767 -0.2498 -0.5229
16800TIP3    H171891   5.757   3.365   2.998  0.3906 -0.7608 -0.1829
16800TIP3    H271892   5.608   3.349   3.015 -0.1138  1.6664 -1.8362
16801TIP3   OH271893   0.981   6.405   2.623 -0.2154  0.9606  0.6395
16801TIP3    H171894   1.004   6.317   2.595  0.2244  1.2723  0.0136
16801TIP3    H271895   1.028   6.463   2.563 -2.5129  1.6356 -0.6206
16802TIP3   OH271896   3.915   4.899  16.223  0.0429  0.7027 -0.0747
16802TIP3    H171897   3.839   4.896  16.281 -0.8658 -2.2591 -1.2318
16802TIP3    H271898   3.915   4.814  16.178  3.0409  1.2681 -1.4341
16803TIP3   OH271899   1.400   4.547   6.825 -0.0966 -0.0102  0.0318
16803TIP3    H171900   1.354   4.558   6.742 -0.1357  0.7252  0.1421
16803TIP3    H271901   1.442   4.632   6.841 -0.0426 -0.1598  0.7286
16804TIP3   OH271902   1.787   5.603  17.203 -0.8633 -0.2030  0.9298
16804TIP3    H171903   1.727   5.529  17.189  0.4643 -1.0667 -0.6161
16804TIP3    H271904   1.871   5.561  17.221  0.1224  0.8631 -0.8789
16805TIP3   OH271905   4.356   0.757   1.758 -0.9487 -0.0120  0.0518
16805TIP3    H171906   4.400   0.672   1.765  2.0851  1.5068  1.2897
16805TIP3    H271907   4.397   0.799   1.683 -2.5439  0.3618 -0.6535
16806TIP3   OH271908   2.685   6.102   1.375 -0.0990  0.3456 -0.1675
16806TIP3    H171909   2.742   6.178   1.381  0.1964  0.1215 -0.0984
16806TIP3    H271910   2.603   6.135   1.338  0.1589  0.6289 -0.4838
16807TIP3   OH271911   6.324   2.549   3.703 -0.5175 -0.0847 -0.0078
16807TIP3    H171912   6.357   2.544   3.792 -0.2196  1.3679 -0.0075
16807TIP3    H271913   6.231   2.569   3.713 -0.5795 -0.3560 -0.0282
16808TIP3   OH271914   5.578   3.154   0.761  0.1969  0.0718  0.2607
16808TIP3    H171915   5.522   3.217   0.717  0.6741 -0.7108 -1.5703
16808TIP3    H271916   5.666   3.193   0.757  0.0796  0.5448  1.6599
16809TIP3   OH271917   1.799   0.267   1.143 -0.1406  0.2060  0.2408
16809TIP3    H171918   1.774   0.229   1.059  3.5579  0.2960 -1.0875
16809TIP3    H271919   1.754   0.213   1.208 -0.4401 -2.1077 -1.7244
16810TIP3   OH271920   2.587   2.188   3.661  0.3043  0.4881 -0.0328
16810TIP3    H171921   2.570   2.192   3.567 -0.6054  0.8242  0.1428
16810TIP3    H271922   2.579   2.095   3.682 -0.2007  0.4989 -0.1613
16811TIP3   OH271923   3.567   1.129  14.295  0.7802 -0.3386  0.2428
16811TIP3    H171924   3.499   1.078  14.338 -0.8941  2.1401  0.7638
16811TIP3    H271925   3.533   1.146  14.208  0.7894  0.7962  0.4500
16812TIP3   OH271926   4.614   4.441  14.778  0.3798 -0.2163  0.7618
16812TIP3    H171927   4.647   4.396  14.857  2.6222  0.4354  0.2677
16812TIP3    H271928   4.678   4.510  14.761  0.6676 -1.0788 -2.3116
16813TIP3   OH271929   5.676   6.692  14.221 -0.7654 -0.1122 -0.2682
16813TIP3    H171930   5.715   6.774  14.191  0.6354 -0.6757 -0.0625
16813TIP3    H271931   5.590   6.690  14.178  0.0329  0.4513 -2.0112
16814TIP3   OH271932   1.645   2.634   0.622  0.2013  0.1484 -0.6305
16814TIP3    H171933   1.726   2.681   0.643  0.4349 -1.0971  1.6662
16814TIP3    H271934   1.644   2.628   0.527  1.9478  1.6566 -0.7963
16815TIP3   OH271935   6.254   3.433   3.628  0.1445 -0.1239 -0.7167
16815TIP3    H171936   6.159   3.419   3.618  0.3223 -2.0914 -0.1435
16815TIP3    H271937   6.262   3.471   3.716 -0.0411 -1.8387  0.1057
16816TIP3   OH271938   3.459   2.428  16.434 -0.5458 -0.1636  0.1574
16816TIP3    H171939   3.419   2.343  16.415  0.2317 -0.7341  0.9787
16816TIP3    H271940   3.468   2.429  16.530 -0.8473  0.9889  0.1940
16817TIP3   OH271941   3.467   5.595  12.917  0.1975 -0.0473 -0.2283
16817TIP3    H171942   3.520   5.613  12.995 -0.4087 -1.0166  0.4223
16817TIP3    H271943   3.504   5.514  12.882 -1.4388 -1.3009  0.8042
16818TIP3   OH271944   3.521   6.544  16.394  0.5588  0.6811  0.3104
16818TIP3    H171945   3.482   6.456  16.398  0.9515  0.4733 -0.4122
16818TIP3    H271946   3.601   6.537  16.446 -1.6829  1.8619  4.4047
16819TIP3   OH271947   2.108   0.701   0.323 -0.0727 -0.3366 -0.1121
16819TIP3    H171948   2.060   0.623   0.350  0.8268 -0.5335  0.9804
16819TIP3    H271949   2.189   0.699   0.374  1.1594 -0.0621 -1.9253
16820TIP3   OH271950   2.801   5.577  14.959  0.0871 -0.0476  0.3401
16820TIP3    H171951   2.745   5.572  15.037 -1.3481  1.6728 -0.5131
16820TIP3    H271952   2.798   5.669  14.934 -2.6327 -0.9999 -3.8924
16821TIP3   OH271953   5.517   3.162  16.591 -0.2923  0.1154  0.2098
16821TIP3    H171954   5.524   3.091  16.654 -3.5047 -0.0680  0.5212
16821TIP3    H271955   5.526   3.120  16.506 -2.5947 -0.8174  0.3788
16822TIP3   OH271956   4.295   0.509   3.096 -0.4411 -0.1029  0.3357
16822TIP3    H171957   4.213   0.469   3.126  0.0493  0.8299  3.1798
16822TIP3    H271958   4.271   0.600   3.076 -0.4355 -0.3123 -0.6882
16823TIP3   OH271959   5.018   6.781   3.998  0.1187  0.2643  0.0541
16823TIP3    H171960   5.102   6.783   4.044  1.0609 -0.1411 -1.5736
16823TIP3    H271961   5.041   6.789   3.906 -1.5298 -1.2756 -0.5453
16824TIP3   OH271962   2.452   0.348   0.805 -0.0408 -0.0770 -0.0234
16824TIP3    H171963   2.521   0.412   0.822  0.8957 -1.0615 -0.0452
16824TIP3    H271964   2.481   0.301   0.727  0.7546 -2.4903  1.6380
16825TIP3   OH271965   3.107   3.230  16.233 -0.1974  0.0009  0.2001
16825TIP3    H171966   3.044   3.165  16.265  0.0108 -0.0529  0.4987
16825TIP3    H271967   3.193   3.195  16.255 -0.0657  0.1815 -0.0102
16826TIP3   OH271968   0.750   5.682  13.905  0.5916 -0.8169  0.4801
16826TIP3    H171969   0.819   5.616  13.909  0.5593 -0.9920 -1.2859
16826TIP3    H271970   0.794   5.761  13.874  0.4604 -0.2045  1.7723
16827TIP3   OH271971   6.314   3.917  15.165  0.4544 -0.8156  0.1771
16827TIP3    H171972   6.257   3.975  15.114  1.5735 -1.8297 -2.4078
16827TIP3    H271973   6.287   3.931  15.256 -1.3003  1.5219 -0.5970
16828TIP3   OH271974   4.271   5.335  12.919 -0.0796  0.4921  0.7261
16828TIP3    H171975   4.261   5.258  12.863 -0.0603  0.5755  0.6075
16828TIP3    H271976   4.362   5.331  12.948 -0.7801 -1.0883  3.0076
16829TIP3   OH271977   3.899   6.553   1.739 -0.1024  0.5190 -0.0301
16829TIP3    H171978   3.864   6.622   1.795  1.1300  1.1034  0.0454
16829TIP3    H271979   3.852   6.562   1.656 -2.5785 -0.8895  1.0914
16830TIP3   OH271980   0.400   2.911  16.094  0.1145 -0.1066  0.6619
16830TIP3    H171981   0.465   2.981  16.086  0.9982 -0.9371  0.4725
16830TIP3    H271982   0.426   2.863  16.172 -1.7071  0.9856  2.0260
16831TIP3   OH271983   3.887   3.993  16.966 -0.7305 -0.3872  0.5795
16831TIP3    H171984   3.857   3.907  16.995 -0.8656 -0.6789 -0.3984
16831TIP3    H271985   3.928   4.031  17.043 -1.3044 -1.0358  1.2212
16832TIP3   OH271986   2.244   5.800   4.777 -0.8542  0.1717 -0.2539
16832TIP3    H171987   2.334   5.832   4.779 -1.1451  0.9704  0.4381
16832TIP3    H271988   2.208   5.836   4.696 -0.9924  1.0969  0.2120
16833TIP3   OH271989   4.885   3.347  15.379 -0.0852 -0.0756 -0.7975
16833TIP3    H171990   4.930   3.363  15.296  1.9494 -1.1380  0.0116
16833TIP3    H271991   4.941   3.389  15.444 -2.2305  1.7362  0.0079
16834TIP3   OH271992   3.685   1.329   2.220  0.0664 -0.7914  0.9778
16834TIP3    H171993   3.706   1.239   2.245 -0.5001 -1.2756 -0.1963
16834TIP3    H271994   3.707   1.334   2.127  1.0019  0.5932  1.2416
16835TIP3   OH271995   2.596   5.006   5.179  0.0200 -0.6771  0.0882
16835TIP3    H171996   2.642   5.021   5.262  0.2050 -0.0841 -0.1214
16835TIP3    H271997   2.557   5.091   5.158  1.3545 -0.3712 -1.2852
16836TIP3   OH271998   4.399   2.688  13.671  0.4964 -0.1763  0.1793
16836TIP3    H171999   4.411   2.780  13.645 -2.0756  0.7158  1.7924
16836TIP3    H272000   4.368   2.645  13.591 -4.4795  1.8823  0.6378
16837TIP3   OH272001   0.469   4.636   6.223 -0.3697 -0.0419  0.8360
16837TIP3    H172002   0.426   4.702   6.278  0.5361  1.5346 -0.2925
16837TIP3    H272003   0.535   4.684   6.175  0.6644 -1.8891  0.3248
16838TIP3   OH272004   2.423   5.347  11.667  0.1406 -1.0570 -0.0053
16838TIP3    H172005   2.486   5.385  11.728 -0.2457  0.6811 -0.6374
16838TIP3    H272006   2.458   5.369  11.580 -1.3411  0.0432 -0.3727
16839TIP3   OH272007   2.405   5.455   1.649  0.3024 -0.2000  0.0343
16839TIP3    H172008   2.499   5.450   1.666  0.2097 -0.4172  0.5066
16839TIP3    H272009   2.391   5.544   1.616  0.5440  0.1406  0.8261
16840TIP3   OH272010   4.937   1.748   3.839  0.5740 -0.3092  0.3023
16840TIP3    H172011   4.994   1.777   3.911  1.7920 -0.3703 -0.6143
16840TIP3    H272012   4.917   1.657   3.861 -1.0436  0.3310  1.7761
16841TIP3   OH272013   0.769   4.669  13.150  0.3764 -0.2716 -0.3580
16841TIP3    H172014   0.800   4.625  13.071  0.9160 -0.0959 -0.2445
16841TIP3    H272015   0.839   4.731  13.173  0.3728 -0.5495  0.4401
16842TIP3   OH272016   4.934   3.950  15.212 -0.3067 -0.5999 -0.5974
16842TIP3    H172017   4.903   3.961  15.122 -1.8247 -1.6320 -0.2266
16842TIP3    H272018   4.875   4.004  15.264 -1.4842 -2.5007  0.1136
16843TIP3   OH272019   4.163   1.961   0.424 -0.1856  0.2100  0.5928
16843TIP3    H172020   4.251   1.985   0.395 -1.1198  0.9150 -1.9828
16843TIP3    H272021   4.165   1.973   0.519  2.1557  1.3300  0.4839
16844TIP3   OH272022   1.689   2.395   2.212  0.2777 -0.2261  0.6304
16844TIP3    H172023   1.652   2.420   2.127  0.8956  1.0950  0.7271
16844TIP3    H272024   1.732   2.311   2.196  2.9686  1.3377 -1.1683
16845TIP3   OH272025   3.622   2.055   6.443  0.2236  0.4297 -0.0965
16845TIP3    H172026   3.609   2.146   6.416  1.1200  0.6928  0.3134
16845TIP3    H272027   3.690   2.022   6.385 -0.8317 -0.3162 -0.9357
16846TIP3   OH272028   6.314   3.462   3.173  0.3353 -0.4218  0.3452
16846TIP3    H172029   6.382   3.423   3.118  0.6638  0.6923 -0.0746
16846TIP3    H272030   6.298   3.548   3.133 -1.5241 -0.7669  0.2577
16847TIP3   OH272031   4.297   4.397  13.849 -0.1070 -0.4970  0.0781
16847TIP3    H172032   4.240   4.325  13.876  0.2425 -0.9620 -0.3991
16847TIP3    H272033   4.247   4.444  13.782  0.7832 -2.0881 -1.8347
16848TIP3   OH272034   4.025   0.733   2.444 -0.1861  0.3224 -0.0046
16848TIP3    H172035   4.106   0.686   2.427 -0.3160 -0.3180  1.0467
16848TIP3    H272036   3.956   0.671   2.420 -0.4244  1.3772 -2.3166
16849TIP3   OH272037   3.956   0.108  14.852 -0.3095 -0.2789  0.5324
16849TIP3    H172038   3.887   0.042  14.849 -0.6621  0.1233 -1.1478
16849TIP3    H272039   3.947   0.157  14.769  1.1576  0.6214  0.8612
16850TIP3   OH272040   4.618   0.493   5.631  0.5409  0.1394  0.0316
16850TIP3    H172041   4.609   0.536   5.716 -1.7296 -0.6955  0.2913
16850TIP3    H272042   4.659   0.409   5.651  1.4951  0.5956  0.0481
16851TIP3   OH272043   2.871   5.464   2.594 -0.0556 -0.0547 -0.4542
16851TIP3    H172044   2.854   5.494   2.504  0.4285 -2.1761 -1.3290
16851TIP3    H272045   2.966   5.471   2.604 -0.0793 -0.0843 -0.2119
16852TIP3   OH272046   6.030   2.910   4.987 -0.1010  0.4028  0.1316
16852TIP3    H172047   6.029   3.001   4.958  2.4512  0.6297  0.5536
16852TIP3    H272048   6.098   2.868   4.934  0.5352 -0.6104  1.6773
16853TIP3   OH272049   3.432   5.144   4.184 -0.0040  0.1240  0.3078
16853TIP3    H172050   3.360   5.092   4.218 -0.0411  0.1793  0.3141
16853TIP3    H272051   3.498   5.080   4.159 -0.0153  0.0789  0.3942
16854TIP3   OH272052   1.387   3.377  16.233  0.2091 -0.2340 -0.0468
16854TIP3    H172053   1.406   3.427  16.153  0.4985  1.5091  1.0709
16854TIP3    H272054   1.297   3.348  16.222 -0.0221  0.6857 -0.6556
16855TIP3   OH272055   5.113   3.913  17.244  0.6316  1.1784  0.2288
16855TIP3    H172056   5.100   3.940  17.334  0.6661  1.2645  0.2080
16855TIP3    H272057   5.032   3.868  17.221  0.8976  0.5405  0.5246
16856TIP3   OH272058   6.190   0.912   6.195 -0.0101  0.6254 -0.4292
16856TIP3    H172059   6.252   0.926   6.123 -0.6618  0.7638 -0.9801
16856TIP3    H272060   6.226   0.963   6.268  1.2388 -0.3921 -0.2921
16857TIP3   OH272061   4.451   6.500  10.944  0.1560 -0.2404 -0.3611
16857TIP3    H172062   4.459   6.464  10.855  2.6737 -2.2729  0.5786
16857TIP3    H272063   4.414   6.428  10.996 -3.0716  1.5130  0.0199
16858TIP3   OH272064   0.904   4.284  17.019  0.4149 -0.3617 -0.2711
16858TIP3    H172065   0.912   4.287  16.924 -1.9052 -2.5144 -0.6121
16858TIP3    H272066   0.831   4.343  17.039  0.3840 -0.5243  0.1002
16859TIP3   OH272067   3.933   4.630  17.045 -0.0263  0.0900 -0.3001
16859TIP3    H172068   3.851   4.594  17.012  0.1313 -0.1836 -0.4017
16859TIP3    H272069   3.915   4.723  17.059  0.3708  0.6215 -2.8144
16860TIP3   OH272070   4.880   4.644   1.100  0.0202 -0.3799  0.2393
16860TIP3    H172071   4.846   4.557   1.080  0.1820  0.2048 -3.2696
16860TIP3    H272072   4.940   4.664   1.028  1.0865  2.0814  1.6681
16861TIP3   OH272073   2.681   6.088   0.857 -0.1173 -0.1758 -0.3505
16861TIP3    H172074   2.636   6.162   0.818  3.0510  0.9213 -2.2426
16861TIP3    H272075   2.698   6.028   0.785  0.1275 -1.2886  0.5866
16862TIP3   OH272076   0.013   5.515   4.996  0.5142  0.3129 -0.5416
16862TIP3    H172077  -0.077   5.543   5.013  0.4223 -0.5160  0.4404
16862TIP3    H272078   0.052   5.589   4.949 -0.5927  0.8005 -0.7286
16863TIP3   OH272079   4.870   2.096  15.672  0.0239 -0.4587  0.6652
16863TIP3    H172080   4.869   2.131  15.582  2.8730  0.4130  0.8692
16863TIP3    H272081   4.824   2.162  15.723 -1.4632 -0.8697 -0.0800
16864TIP3   OH272082   5.567   2.475   1.162 -0.3176  0.2751  0.3749
16864TIP3    H172083   5.505   2.461   1.234 -1.0765  3.1248  0.3826
16864TIP3    H272084   5.515   2.468   1.083 -0.0974  0.0599  0.2485
16865TIP3   OH272085   1.112   1.120   3.216 -0.2601  0.2835 -0.2438
16865TIP3    H172086   1.112   1.125   3.120  1.5206 -0.5734 -0.3320
16865TIP3    H272087   1.146   1.204   3.245 -0.0457  0.2510 -0.4014
16866TIP3   OH272088   0.699   2.309   1.240 -0.9203 -0.3945  0.4566
16866TIP3    H172089   0.644   2.380   1.272  0.0910 -0.6420  2.9661
16866TIP3    H272090   0.771   2.353   1.195 -0.3370  0.2005  1.9348
16867TIP3   OH272091   1.242   1.554   2.214 -0.2334  0.7651  0.4252
16867TIP3    H172092   1.248   1.649   2.218  1.3420  0.9756 -3.1735
16867TIP3    H272093   1.185   1.537   2.139  0.5002 -1.0971  0.2399
16868TIP3   OH272094   4.894   0.175  16.383  0.2622 -0.1539  0.0291
16868TIP3    H172095   4.907   0.155  16.476 -4.8609  0.2759  1.1447
16868TIP3    H272096   4.872   0.268  16.381  0.3932 -0.1296 -1.6446
16869TIP3   OH272097   1.311   2.858  11.765 -0.0355  0.0297 -0.4074
16869TIP3    H172098   1.395   2.905  11.767  0.5014 -0.8583 -1.1997
16869TIP3    H272099   1.258   2.907  11.703  0.0553  0.3266 -0.2569
16870TIP3   OH272100   0.406   0.913   3.618  0.3685  0.2474 -0.1254
16870TIP3    H172101   0.463   0.929   3.543  2.1587 -0.4884  1.0157
16870TIP3    H272102   0.456   0.944   3.693 -0.7450 -0.4246  0.9276
16871TIP3   OH272103   2.575   5.450  15.454  0.6742  0.6900 -0.4840
16871TIP3    H172104   2.507   5.513  15.478 -0.6457 -0.1879 -1.7519
16871TIP3    H272105   2.593   5.402  15.535 -0.2873  0.8844 -0.1446
16872TIP3   OH272106   3.660   1.711   2.643 -0.2589 -0.8276  0.6065
16872TIP3    H172107   3.604   1.635   2.656  0.3153 -1.1831  1.0000
16872TIP3    H272108   3.725   1.683   2.579 -0.9891 -0.1655 -0.4657
16873TIP3   OH272109   4.482   5.934  16.684 -0.4327 -0.4772 -0.0549
16873TIP3    H172110   4.563   5.953  16.637 -0.0985  1.7131  1.2743
16873TIP3    H272111   4.497   5.847  16.723  2.3635  0.8154  2.1597
16874TIP3   OH272112   1.885   1.744  11.380 -0.1415 -0.3724 -1.3797
16874TIP3    H172113   1.943   1.801  11.431  0.1185 -2.1119  0.3908
16874TIP3    H272114   1.895   1.774  11.290  0.9007  1.5605 -0.6787
16875TIP3   OH272115   1.984   1.577  13.591 -0.4196  0.4490 -0.1728
16875TIP3    H172116   2.079   1.561  13.595 -0.2825  0.9720 -1.0705
16875TIP3    H272117   1.957   1.541  13.507 -1.0555  0.1580  0.1519
16876TIP3   OH272118   1.627   1.606   5.569 -0.2537 -0.1191  0.1858
16876TIP3    H172119   1.564   1.545   5.529 -0.7675  0.4185  0.1618
16876TIP3    H272120   1.575   1.684   5.589  0.1610 -0.0981  1.2377
16877TIP3   OH272121   5.754   3.639   2.076 -0.1373 -0.1436 -0.3670
16877TIP3    H172122   5.779   3.567   2.017 -1.4126  0.8927 -2.2977
16877TIP3    H272123   5.780   3.718   2.029 -1.9998  0.7561  0.0346
16878TIP3   OH272124   2.487   4.959   1.332 -0.5000 -0.4231  0.1144
16878TIP3    H172125   2.449   5.046   1.340 -1.9313 -0.8230 -1.6909
16878TIP3    H272126   2.533   4.960   1.248 -1.4793 -1.6855 -0.4854
16879TIP3   OH272127   5.355   3.949   4.467 -0.4076 -0.4070 -0.6132
16879TIP3    H172128   5.273   3.907   4.495 -0.2075 -0.9383 -0.8077
16879TIP3    H272129   5.414   3.938   4.541 -0.1003 -1.1899 -0.9672
16880TIP3   OH272130   0.167   1.255  16.060 -0.0550 -0.3830  1.0316
16880TIP3    H172131   0.076   1.235  16.081 -0.2502 -1.0121 -0.3236
16880TIP3    H272132   0.212   1.170  16.067  0.2448 -0.2421  0.8334
16881TIP3   OH272133   3.604   6.571   4.841  0.7062 -0.4634  0.1539
16881TIP3    H172134   3.532   6.562   4.903  0.4412  0.5922  0.0256
16881TIP3    H272135   3.637   6.660   4.855  0.8119 -0.2994 -1.0287
16882TIP3   OH272136   3.256   6.732  14.654 -0.4885  0.3205 -0.0249
16882TIP3    H172137   3.208   6.815  14.656 -1.4382 -0.1184 -2.4094
16882TIP3    H272138   3.320   6.743  14.584  1.0337 -0.1640  1.2103
16883TIP3   OH272139   6.052   0.274  15.300  0.6186  0.0240 -0.7893
16883TIP3    H172140   6.017   0.209  15.239  1.6242 -1.6152  0.2876
16883TIP3    H272141   5.987   0.345  15.300 -2.1817 -2.3115  0.2674
16884TIP3   OH272142   5.253   6.226   0.619 -0.0730  0.1342 -0.7020
16884TIP3    H172143   5.250   6.172   0.699  0.9954  1.2431  0.1148
16884TIP3    H272144   5.168   6.211   0.578 -0.1961 -1.3769  0.0300
16885TIP3   OH272145   6.263   4.521  17.200  0.1563  0.4644  0.3118
16885TIP3    H172146   6.292   4.464  17.129  0.1832 -1.6568  1.9065
16885TIP3    H272147   6.213   4.590  17.157  0.0983 -0.7877 -1.7448
16886TIP3   OH272148   0.728   3.543   0.280  0.3861 -0.6707  0.1653
16886TIP3    H172149   0.713   3.631   0.315  3.1403  0.7516 -1.8383
16886TIP3    H272150   0.778   3.498   0.348  0.7211  0.0349  0.3932
16887TIP3   OH272151   5.769   2.397  13.547 -0.3368 -0.6246  0.1438
16887TIP3    H172152   5.841   2.382  13.485 -1.2409 -1.9007 -0.6468
16887TIP3    H272153   5.690   2.381  13.496 -1.3098  2.3730  0.5547
16888TIP3   OH272154   5.710   1.057   0.862  0.3274  0.2165  0.2061
16888TIP3    H172155   5.768   1.098   0.927  1.5655  0.4275 -0.9942
16888TIP3    H272156   5.621   1.075   0.895  0.9015  1.3157  1.2340
16889TIP3   OH272157   4.525   4.348  13.499 -0.4025  0.5825 -0.8771
16889TIP3    H172158   4.469   4.417  13.463 -1.6092  0.6185  0.9314
16889TIP3    H272159   4.463   4.281  13.530  0.6141  0.0172  0.0017
16890TIP3   OH272160   3.693   2.873  12.579  0.1098 -0.3773 -0.5823
16890TIP3    H172161   3.738   2.798  12.541 -1.8189 -0.7207 -2.4120
16890TIP3    H272162   3.664   2.843  12.665  0.2311 -1.3946 -0.8844
16891TIP3   OH272163   6.211   1.365  12.896  0.2850 -0.6921 -0.0290
16891TIP3    H172164   6.220   1.380  12.802  0.2622  0.3714  0.1278
16891TIP3    H272165   6.137   1.306  12.904 -1.3765  1.2182 -0.5524
16892TIP3   OH272166   4.509   2.161  15.006  0.3449  0.1166  0.4636
16892TIP3    H172167   4.574   2.095  15.029  1.0856  0.8086  0.3895
16892TIP3    H272168   4.431   2.111  14.983  0.2661 -0.6806  2.2969
16893TIP3   OH272169   0.954   5.246   3.412 -0.0609  0.0881 -0.6774
16893TIP3    H172170   0.864   5.280   3.411  0.9459  3.1462  0.5089
16893TIP3    H272171   0.949   5.167   3.465 -1.8613  0.9861  0.5995
16894TIP3   OH272172   0.109   6.716  15.596  0.5197 -0.4950  0.0060
16894TIP3    H172173   0.135   6.769  15.671  0.9538  0.6670 -0.9322
16894TIP3    H272174   0.132   6.769  15.520 -1.6131 -0.8084 -0.9382
16895TIP3   OH272175   3.331   3.215   5.457 -0.0358 -0.0955  0.5229
16895TIP3    H172176   3.299   3.129   5.485  0.8509 -0.9298 -0.8964
16895TIP3    H272177   3.262   3.251   5.402  0.0995 -0.4632  0.1061
16896TIP3   OH272178   0.448   3.966   3.701  0.5010  0.0712 -0.3623
16896TIP3    H172179   0.413   3.878   3.715  1.9168 -0.3474  0.7524
16896TIP3    H272180   0.373   4.017   3.673 -0.0384 -1.8664 -2.7848
16897TIP3   OH272181   4.344   3.889  13.772  0.1121  0.0412 -0.2709
16897TIP3    H172182   4.282   3.851  13.834  0.6069  3.7164  2.8523
16897TIP3    H272183   4.289   3.926  13.702 -0.5387 -3.0110 -1.5411
16898TIP3   OH272184   1.481   5.564  12.253 -0.8966  0.4516 -0.0478
16898TIP3    H172185   1.475   5.649  12.298 -1.7658  0.8221 -0.8319
16898TIP3    H272186   1.546   5.515  12.304  0.4280  1.9611 -0.1861
16899TIP3   OH272187   2.660   3.845   2.452  0.6038 -0.5102 -0.1806
16899TIP3    H172188   2.707   3.862   2.371  0.0708  1.2685 -0.1495
16899TIP3    H272189   2.584   3.904   2.450 -0.7652 -2.1386  0.5117
16900TIP3   OH272190   2.122   4.705   0.195  0.2696 -0.1455  0.0575
16900TIP3    H172191   2.047   4.660   0.233 -0.1673  0.9616  0.5435
16900TIP3    H272192   2.130   4.668   0.107  0.7350 -2.0786  0.8805
16901TIP3   OH272193   2.704   2.004   4.372  0.0464 -0.3241  0.0230
16901TIP3    H172194   2.724   2.040   4.286  1.3592  1.5597  1.0450
16901TIP3    H272195   2.754   1.923   4.376  4.6430  2.2040  0.9116
16902TIP3   OH272196   4.539   4.641  14.105 -0.1707  0.5401 -0.2279
16902TIP3    H172197   4.493   4.566  14.067  1.8056 -0.4753 -0.7793
16902TIP3    H272198   4.566   4.611  14.192  1.2306  0.3008 -0.7165
16903TIP3   OH272199   1.033   2.633   4.897 -0.2658 -0.2819  0.0781
16903TIP3    H172200   0.947   2.590   4.904 -0.3337 -0.0477  0.7907
16903TIP3    H272201   1.064   2.638   4.988  1.0303 -1.4173 -0.2682
16904TIP3   OH272202   0.231   1.701   4.002 -0.7592  0.2599 -0.2613
16904TIP3    H172203   0.145   1.662   4.020 -1.2471  1.5215  0.2665
16904TIP3    H272204   0.251   1.751   4.081  1.4178 -1.5969  0.4730
16905TIP3   OH272205   3.233   5.334  15.217 -0.3428 -0.1170 -0.4278
16905TIP3    H172206   3.153   5.289  15.246  0.4972 -1.6655 -0.4058
16905TIP3    H272207   3.206   5.385  15.141 -1.6217  0.4170  0.3526
16906TIP3   OH272208   5.241   4.689   5.722 -0.0993 -0.1332 -0.2511
16906TIP3    H172209   5.196   4.756   5.671 -1.2379  0.2246  1.1731
16906TIP3    H272210   5.184   4.672   5.797  1.5380 -0.5826  0.9626
16907TIP3   OH272211   1.345   5.710  11.639 -0.0069  0.5586  0.1484
16907TIP3    H172212   1.267   5.708  11.694 -0.4870 -1.6300 -0.5140
16907TIP3    H272213   1.324   5.655  11.564  1.9748  0.3294 -0.3137
16908TIP3   OH272214   3.447   1.808   3.929 -0.6163 -0.3359  0.1026
16908TIP3    H172215   3.523   1.853   3.892 -0.9605 -0.7960 -1.2554
16908TIP3    H272216   3.444   1.725   3.881 -2.5082  0.0710 -0.5743
16909TIP3   OH272217   1.501   1.514  14.378 -0.0079  0.2328  0.1016
16909TIP3    H172218   1.544   1.597  14.399  0.6120  0.0948 -0.5722
16909TIP3    H272219   1.488   1.472  14.462 -0.2097  0.9535  0.4406
16910TIP3   OH272220   1.751   5.798  11.548 -0.2935 -0.3351  0.0091
16910TIP3    H172221   1.701   5.772  11.625  0.6183  1.3714  1.2343
16910TIP3    H272222   1.689   5.846  11.493 -0.5155 -0.0088  0.5374
16911TIP3   OH272223   4.409   6.496   1.048 -0.1182 -0.4602 -0.1150
16911TIP3    H172224   4.362   6.547   0.982  1.0897 -0.1674 -0.7658
16911TIP3    H272225   4.366   6.519   1.130  0.8102  2.1452 -0.2761
16912TIP3   OH272226   0.413   3.396  14.529 -0.0000  0.1891 -0.0372
16912TIP3    H172227   0.442   3.439  14.449 -0.1708  2.1102  0.8734
16912TIP3    H272228   0.489   3.397  14.587 -0.2370 -0.0082  0.2833
16913TIP3   OH272229   2.317   6.127  11.953  0.5912  0.3522  0.0824
16913TIP3    H172230   2.354   6.044  11.923  0.2310 -0.9233  2.7981
16913TIP3    H272231   2.222   6.111  11.955  0.6622 -0.6880  4.1244
16914TIP3   OH272232   4.209   2.024  11.565 -0.3358 -0.0730  0.0101
16914TIP3    H172233   4.161   1.970  11.628 -0.4465 -1.4903 -1.2177
16914TIP3    H272234   4.199   1.977  11.482  3.4113 -0.6697 -0.2745
16915TIP3   OH272235   1.758   3.738  15.894  0.5473 -0.3278  0.0216
16915TIP3    H172236   1.846   3.723  15.930  0.4318 -0.7187  0.1448
16915TIP3    H272237   1.702   3.679  15.944  0.1467  0.2351  0.2359
16916TIP3   OH272238   5.402   0.456  16.454 -0.1588 -0.2685  0.5784
16916TIP3    H172239   5.486   0.467  16.498  0.7898 -0.0363 -1.2186
16916TIP3    H272240   5.424   0.439  16.363 -2.0363  3.5321 -0.8138
16917TIP3   OH272241   2.680   1.585   1.373  0.0823  0.1133 -0.0896
16917TIP3    H172242   2.666   1.674   1.405 -0.1480  0.6233 -1.5174
16917TIP3    H272243   2.760   1.590   1.321  0.0663 -0.5183 -0.1925
16918TIP3   OH272244   4.636   4.795  12.323 -0.3771  0.1858  0.3204
16918TIP3    H172245   4.666   4.880  12.290  0.2097  0.4408  1.4858
16918TIP3    H272246   4.547   4.788  12.290 -0.0453  0.7328 -0.7524
16919TIP3   OH272247   3.500   4.440  16.803  0.3809 -0.3964 -0.6930
16919TIP3    H172248   3.533   4.462  16.716 -0.1554  2.1821 -0.3365
16919TIP3    H272249   3.531   4.511  16.859 -0.9443 -0.9402  0.8147
16920TIP3   OH272250   4.026   5.168   1.680  0.4656 -0.2325 -0.4190
16920TIP3    H172251   3.972   5.180   1.602 -1.2058  0.4711  0.7924
16920TIP3    H272252   4.105   5.220   1.664 -1.7670  3.6707  0.1012
16921TIP3   OH272253   3.695   1.759   0.483 -0.2907 -0.4047  0.7173
16921TIP3    H172254   3.668   1.850   0.473  1.2714  0.0157  0.0301
16921TIP3    H272255   3.641   1.726   0.556 -1.0399  0.9844  0.8294
16922TIP3   OH272256   6.267   6.548   3.420 -0.4712  0.4069 -0.0003
16922TIP3    H172257   6.269   6.455   3.441  1.0437  0.6458  1.1350
16922TIP3    H272258   6.284   6.553   3.326 -0.9621 -0.4612 -0.1411
16923TIP3   OH272259   1.612   0.289  16.494 -0.0419  0.2915 -0.3876
16923TIP3    H172260   1.567   0.354  16.439 -2.7403 -1.2164 -0.1570
16923TIP3    H272261   1.577   0.205  16.464  1.5693 -0.8882  0.8954
16924TIP3   OH272262   0.096   4.688   3.858 -0.0545 -0.0180  0.3512
16924TIP3    H172263   0.138   4.640   3.787 -0.6334 -0.7633  0.5020
16924TIP3    H272264   0.002   4.677   3.843 -0.2108  1.2169  0.2930
16925TIP3   OH272265   0.202   2.842   0.544 -0.3612  0.1084  0.3796
16925TIP3    H172266   0.183   2.805   0.458 -1.4946  0.2584  0.5411
16925TIP3    H272267   0.192   2.768   0.604  1.6576 -0.2875  0.2828
16926TIP3   OH272268   4.540   3.772  14.699 -0.0785 -0.9337 -0.3882
16926TIP3    H172269   4.510   3.700  14.644 -0.4847 -0.3080 -0.9992
16926TIP3    H272270   4.603   3.732  14.758  1.0234 -1.4813 -1.8733
16927TIP3   OH272271   1.072   4.899  15.586 -0.3408  0.0295 -0.1596
16927TIP3    H172272   1.083   4.851  15.504 -0.1689  0.3425 -0.3195
16927TIP3    H272273   1.090   4.834  15.654 -0.7149 -0.2923 -0.3644
16928TIP3   OH272274   3.787   4.447   1.060  0.0702 -0.7996  0.4675
16928TIP3    H172275   3.835   4.495   0.992 -0.1101  0.5522  1.2730
16928TIP3    H272276   3.789   4.356   1.029 -1.2929 -0.0627 -2.1210
16929TIP3   OH272277   3.540   4.946  13.389 -0.8987  0.8794  0.3817
16929TIP3    H172278   3.622   4.926  13.435 -0.7584 -1.6659 -0.8014
16929TIP3    H272279   3.558   5.029  13.345  1.3557  0.1021 -0.3440
16930TIP3   OH272280   3.589   2.984  11.036 -0.0552  0.4613  0.4272
16930TIP3    H172281   3.494   2.976  11.026  0.0065 -2.7176  1.3591
16930TIP3    H272282   3.624   2.903  10.999  2.4357  1.9375 -0.7393
16931TIP3   OH272283   5.731   0.320   1.214  0.5567 -0.0469 -0.5756
16931TIP3    H172284   5.706   0.378   1.287  0.9995 -1.8917  1.1153
16931TIP3    H272285   5.826   0.327   1.210  0.4878  0.5999 -1.5111
16932TIP3   OH272286   6.408   3.294   2.381 -0.1736 -0.8179  0.6156
16932TIP3    H172287   6.410   3.365   2.446 -2.4913 -0.7907  0.7380
16932TIP3    H272288   6.338   3.236   2.411  0.8830 -2.5693 -0.1264
16933TIP3   OH272289   4.499   0.436   3.284  0.8901  0.2487  0.2679
16933TIP3    H172290   4.459   0.368   3.338 -0.8996  0.7296 -0.3802
16933TIP3    H272291   4.443   0.442   3.207  1.3710  2.0133 -0.0004
16934TIP3   OH272292   4.059   6.649  11.213 -0.0456  0.4067 -0.0545
16934TIP3    H172293   4.108   6.573  11.184  1.3443  1.3249 -0.2406
16934TIP3    H272294   4.001   6.670  11.141 -1.1465 -1.0106  0.3712
16935TIP3   OH272295   3.981   1.087  11.942 -0.0639  0.6716 -0.7400
16935TIP3    H172296   3.955   1.046  11.859 -0.8339 -1.1125  0.3122
16935TIP3    H272297   3.931   1.168  11.945 -1.6112 -0.2169 -1.1216
16936TIP3   OH272298   1.681   2.498  10.657 -0.0762 -1.1405 -0.2274
16936TIP3    H172299   1.668   2.573  10.714  1.3350 -2.5824  2.1645
16936TIP3    H272300   1.762   2.516  10.611  0.6324 -1.4330  0.8594
16937TIP3   OH272301   1.794   0.186   0.518 -0.1564 -0.1402 -0.1210
16937TIP3    H172302   1.884   0.217   0.524 -0.1651  0.1711 -1.3196
16937TIP3    H272303   1.777   0.179   0.424 -0.9115 -1.5757  0.0802
16938TIP3   OH272304   6.195   1.885   0.170 -0.2944  0.2276  0.1640
16938TIP3    H172305   6.252   1.957   0.145 -0.4418  1.1076  2.1837
16938TIP3    H272306   6.115   1.927   0.201 -1.7551 -0.9534 -1.7712
16939TIP3   OH272307   6.348   0.812  12.166  0.0587  0.2681  0.5333
16939TIP3    H172308   6.424   0.817  12.223  0.3576  1.0010  0.0793
16939TIP3    H272309   6.331   0.902  12.139  0.2211 -0.1051 -0.9104
16940TIP3   OH272310   4.087   6.086  17.107 -0.5931 -0.7310 -0.0503
16940TIP3    H172311   4.163   6.028  17.110  0.1535  0.1657 -0.9569
16940TIP3    H272312   4.098   6.144  17.183  0.0265 -0.1340 -0.5880
16941TIP3   OH272313   0.961   3.233  15.422 -0.5580 -0.0718  0.4044
16941TIP3    H172314   0.939   3.188  15.341 -1.6857 -0.2622  0.7941
16941TIP3    H272315   1.045   3.276  15.404 -1.0518  0.3437 -1.0240
16942TIP3   OH272316   5.862   4.171  16.909  0.1924 -0.1123  0.3553
16942TIP3    H172317   5.791   4.112  16.881  0.3415  1.3051 -3.7395
16942TIP3    H272318   5.817   4.253  16.930  0.4177 -0.0089  0.4294
16943TIP3   OH272319   1.675   1.652  12.644 -0.4947  0.2429 -0.2184
16943TIP3    H172320   1.722   1.651  12.561 -0.7827 -1.4870 -0.3974
16943TIP3    H272321   1.583   1.668  12.620 -0.4954  0.3031 -0.1768
16944TIP3   OH272322   5.615   0.709   1.734 -0.2120 -0.1963  0.6508
16944TIP3    H172323   5.703   0.734   1.761  0.1323  0.0825 -0.6471
16944TIP3    H272324   5.609   0.615   1.754  0.1104 -0.0618  1.4001
16945TIP3   OH272325   0.716   1.823   2.087  0.1970 -0.1155 -0.0988
16945TIP3    H172326   0.761   1.847   2.168  0.8893 -2.3235  0.2577
16945TIP3    H272327   0.624   1.811   2.113  0.1593  0.5138  0.0577
16946TIP3   OH272328   4.076   1.750   1.373  0.3612 -0.6747 -0.2489
16946TIP3    H172329   4.109   1.676   1.422  1.9676  0.5821  0.6454
16946TIP3    H272330   3.984   1.729   1.357  0.6476 -2.5977  0.4217
16947TIP3   OH272331   2.719   6.749  15.516 -0.0622 -0.0375 -0.0825
16947TIP3    H172332   2.802   6.720  15.478  0.6969  1.6637  0.1619
16947TIP3    H272333   2.703   6.689  15.588  1.5458  0.2287  0.5405
16948TIP3   OH272334   5.634   0.613  13.087  0.0425 -0.1320 -0.3272
16948TIP3    H172335   5.581   0.656  13.155  1.0129 -1.6906  1.5018
16948TIP3    H272336   5.585   0.534  13.066  0.4684 -0.3850 -0.3743
16949TIP3   OH272337   2.682   3.339   4.449 -0.4417  0.5390  0.5804
16949TIP3    H172338   2.775   3.341   4.472 -0.3595 -0.4202  0.3440
16949TIP3    H272339   2.679   3.378   4.362 -0.0354 -0.9056 -0.1096
16950TIP3   OH272340   4.880   3.727   1.040 -0.1420 -1.0492 -0.2779
16950TIP3    H172341   4.818   3.795   1.067  0.0839 -0.9432 -0.0238
16950TIP3    H272342   4.836   3.681   0.968 -0.3001 -0.6440 -0.4402
16951TIP3   OH272343   5.767   4.247  13.696  0.1795 -0.4084 -0.2130
16951TIP3    H172344   5.743   4.219  13.608 -0.6628 -1.6262  0.3830
16951TIP3    H272345   5.839   4.309  13.682 -0.6435  0.2701 -1.8145
16952TIP3   OH272346   4.872   1.109  16.417  0.2917  0.1366 -0.3816
16952TIP3    H172347   4.802   1.114  16.351 -0.0637 -0.3896 -0.0510
16952TIP3    H272348   4.845   1.170  16.485  0.2625  0.1009 -0.3611
16953TIP3   OH272349   2.176   1.485   2.641  1.1854  0.0216  0.5482
16953TIP3    H172350   2.251   1.520   2.690  0.8147 -0.4987  1.5106
16953TIP3    H272351   2.133   1.426   2.702  0.3452 -0.1734 -0.2135
16954TIP3   OH272352   5.274   0.766   4.624 -0.1585 -0.6097  0.0833
16954TIP3    H172353   5.345   0.706   4.601  2.9565  3.0288 -0.8694
16954TIP3    H272354   5.318   0.840   4.668 -2.6425  3.4442 -3.4291
16955TIP3   OH272355   5.229   4.624   2.671  0.2813  0.2113 -0.2136
16955TIP3    H172356   5.262   4.541   2.706  0.1569  0.1541 -0.2321
16955TIP3    H272357   5.272   4.691   2.725  1.0133  0.1643 -0.7310
16956TIP3   OH272358   4.754   1.072  16.893  0.1239 -0.6659 -0.1200
16956TIP3    H172359   4.723   1.018  16.966 -1.1355 -1.3428 -1.1268
16956TIP3    H272360   4.741   1.162  16.922 -1.2299 -0.9376  0.1432
16957TIP3   OH272361   0.094   3.636   4.239  0.4472 -0.0295 -0.1572
16957TIP3    H172362   0.161   3.628   4.172  1.3532 -1.1608  0.8334
16957TIP3    H272363   0.075   3.545   4.266 -0.3876  0.3534  0.6275
16958TIP3   OH272364   0.119   4.181  12.447 -0.4348 -0.1518  0.4903
16958TIP3    H172365   0.103   4.154  12.357  0.0096  0.4061  0.2349
16958TIP3    H272366   0.064   4.258  12.460 -0.5335 -0.2586  0.7099
16959TIP3   OH272367   0.088   6.057   5.527 -0.6122  0.7302 -0.3610
16959TIP3    H172368   0.124   6.143   5.549  1.1287  0.4726 -1.9412
16959TIP3    H272369   0.146   5.994   5.570 -1.6171  0.3155  0.4264
16960TIP3   OH272370   6.626   5.017  14.775  0.4541 -0.4230  0.1862
16960TIP3    H172371   6.583   5.027  14.690  2.8392  0.2273 -1.0309
16960TIP3    H272372   6.574   5.071  14.835  1.1753  2.8372 -1.8568
16961TIP3   OH272373   0.382   1.757  16.249 -0.1918 -0.5491 -0.2166
16961TIP3    H172374   0.471   1.788  16.270 -0.6392 -0.9920  2.9184
16961TIP3    H272375   0.393   1.666  16.223  0.3494 -0.2878 -0.9312
16962TIP3   OH272376   5.078   5.354   6.056 -0.1140 -0.0916  0.3881
16962TIP3    H172377   5.063   5.355   6.151 -0.5965  1.3335  0.3291
16962TIP3    H272378   5.143   5.424   6.042 -0.6254  0.2314 -0.4097
16963TIP3   OH272379   2.961   2.404   0.847  0.0335  0.3098  0.0370
16963TIP3    H172380   2.901   2.440   0.781  1.6087 -0.9200 -2.1753
16963TIP3    H272381   2.923   2.319   0.869 -0.4349  0.6755  0.6897
16964TIP3   OH272382   6.814   0.750  17.006 -0.0513  0.0406  0.0380
16964TIP3    H172383   6.845   0.732  16.917  0.2859 -1.1545  0.3777
16964TIP3    H272384   6.752   0.822  16.996 -0.0001 -0.0642 -1.1601
16965TIP3   OH272385   1.171   0.314  13.264 -0.3289 -0.1854  0.3630
16965TIP3    H172386   1.161   0.405  13.291 -1.6595  0.8332 -2.9696
16965TIP3    H272387   1.265   0.298  13.267  0.0380  1.6832  0.0313
16966TIP3   OH272388   6.252   2.239  16.725  0.2803 -0.3059  0.1042
16966TIP3    H172389   6.248   2.303  16.654  1.9591  1.0884  1.1852
16966TIP3    H272390   6.172   2.253  16.776  0.6394  0.9745  0.3347
16967TIP3   OH272391   0.339   4.425   2.558 -0.0550 -0.5315 -0.1715
16967TIP3    H172392   0.372   4.349   2.607 -0.3746 -0.6559 -0.1438
16967TIP3    H272393   0.355   4.500   2.615  3.2142 -0.0749 -1.4618
16968TIP3   OH272394   4.964   6.326   4.167  0.1215 -0.1344 -0.6107
16968TIP3    H172395   5.001   6.293   4.085  1.5261  0.2332 -0.1605
16968TIP3    H272396   4.956   6.421   4.154  0.2864 -0.0830 -0.3536
16969TIP3   OH272397   1.129   3.673  17.077 -0.1545  0.1856  0.5388
16969TIP3    H172398   1.084   3.757  17.089 -0.7637 -0.0682  0.0787
16969TIP3    H272399   1.062   3.615  17.041  0.8232  0.0810 -1.1774
16970TIP3   OH272400   1.213   5.700  11.090  0.1275  0.5878  0.3210
16970TIP3    H172401   1.198   5.607  11.108  2.0269 -0.1098 -1.2402
16970TIP3    H272402   1.128   5.734  11.063 -0.2860 -1.1747 -0.7915
16971TIP3   OH272403   6.252   0.773  17.234 -0.0467 -0.3874 -0.1697
16971TIP3    H172404   6.298   0.856  17.221 -0.7496  0.2691  1.3142
16971TIP3    H272405   6.177   0.778  17.176  0.1073 -0.1397 -0.3476
16972TIP3   OH272406   4.255   1.287  15.209 -0.2080 -0.0703  0.9863
16972TIP3    H172407   4.329   1.329  15.165  1.5750 -2.5950  1.4319
16972TIP3    H272408   4.290   1.255  15.292 -1.7191 -1.6342  1.0708
16973TIP3   OH272409   0.906   4.262  15.646  0.0026  0.1387  0.2465
16973TIP3    H172410   0.880   4.255  15.738 -0.0416  0.1202  0.2325
16973TIP3    H272411   0.942   4.350  15.639 -0.4114  0.3034  0.1751
16974TIP3   OH272412   0.566   2.648   4.141 -0.2316  0.1065 -0.0465
16974TIP3    H172413   0.524   2.568   4.111 -0.2089 -0.0255  0.2711
16974TIP3    H272414   0.641   2.618   4.193 -0.6165  0.3171  0.6537
16975TIP3   OH272415   3.991   2.385  12.443 -0.0181  0.2821  0.0517
16975TIP3    H172416   3.896   2.396  12.446  0.0217  1.3157 -1.4173
16975TIP3    H272417   4.015   2.409  12.354  1.4293 -1.7465 -0.1506
16976TIP3   OH272418   6.781   4.388  12.509  0.4315  0.2757 -0.6869
16976TIP3    H172419   6.773   4.483  12.502 -0.7963  0.3995  1.6166
16976TIP3    H272420   6.692   4.355  12.496  0.0380 -0.1787  2.4008
16977TIP3   OH272421   0.614   1.722  17.015 -0.2396 -0.0614  0.4473
16977TIP3    H172422   0.602   1.784  16.943  0.4604 -0.3027  0.1164
16977TIP3    H272423   0.546   1.656  17.001  0.3213 -0.4837 -0.4092
16978TIP3   OH272424   2.581   6.136  14.389 -0.7104 -0.2546  0.6334
16978TIP3    H172425   2.540   6.115  14.473 -0.0829 -0.4072  0.9031
16978TIP3    H272426   2.658   6.189  14.412 -1.3796  1.0318  0.0671
16979TIP3   OH272427   2.029   6.048   4.012  0.0837  0.6506  0.5399
16979TIP3    H172428   1.944   6.005   4.007  0.2620  0.3780 -0.3565
16979TIP3    H272429   2.087   5.994   3.958  0.5447  1.4720  0.1934
16980TIP3   OH272430   4.057   2.877   2.157 -0.2899 -0.0467  0.1103
16980TIP3    H172431   3.967   2.905   2.141 -0.8064  1.2215  4.1324
16980TIP3    H272432   4.108   2.958   2.158  0.1791 -0.3410  1.5304
16981TIP3   OH272433   0.479   1.184  14.393  0.2857  0.5132 -0.4078
16981TIP3    H172434   0.547   1.249  14.374  0.3387  0.6388  0.2135
16981TIP3    H272435   0.528   1.102  14.405  0.3150  0.5746 -0.1062
16982TIP3   OH272436   6.748   3.060  11.260  0.3103 -0.1477  0.2501
16982TIP3    H172437   6.733   2.967  11.281  1.3161 -0.3309  0.1799
16982TIP3    H272438   6.742   3.064  11.164 -1.5407  0.2029  0.3385
16983TIP3   OH272439   0.535   5.520  13.771 -0.1090  0.2484  0.0097
16983TIP3    H172440   0.566   5.441  13.815 -0.0738  0.9869  1.3620
16983TIP3    H272441   0.604   5.585  13.787 -0.1823  0.5895 -0.9987
16984TIP3   OH272442   1.808   6.386  11.108 -0.1322  0.3770 -0.0054
16984TIP3    H172443   1.734   6.442  11.085 -0.9385 -0.4212  0.5826
16984TIP3    H272444   1.786   6.300  11.071  0.5811  0.1702  0.0315
16985TIP3   OH272445   6.481   0.786  11.397 -0.0324 -0.0669  0.1309
16985TIP3    H172446   6.435   0.744  11.469  0.0723 -0.1203  0.1661
16985TIP3    H272447   6.416   0.847  11.360 -0.2733 -0.4574 -0.0951
16986TIP3   OH272448   3.998   4.026  13.181 -0.4913  0.2061 -0.1109
16986TIP3    H172449   3.941   3.994  13.251  0.6641  0.8669  1.1741
16986TIP3    H272450   4.074   3.969  13.184 -0.4747  0.1845 -0.9027
16987TIP3   OH272451   3.192   3.267  16.530 -0.1782 -0.1175  0.0922
16987TIP3    H172452   3.160   3.298  16.615  1.9851 -1.4120  1.4726
16987TIP3    H272453   3.119   3.218  16.494 -0.5919 -1.1067  2.0971
16988TIP3   OH272454   2.690   5.253  14.709 -0.2859  0.0533 -0.1160
16988TIP3    H172455   2.612   5.282  14.757 -0.3235 -0.5703  0.2099
16988TIP3    H272456   2.673   5.161  14.689  0.0814  0.0896 -0.6320
16989TIP3   OH272457   1.441   4.783  12.670  0.3127 -0.2791  0.0467
16989TIP3    H172458   1.370   4.843  12.693  1.1784  0.6990  0.2329
16989TIP3    H272459   1.432   4.711  12.732 -0.0754  0.1906  0.5484
16990TIP3   OH272460   3.689   4.687   2.142  0.4759  0.0391  0.1897
16990TIP3    H172461   3.648   4.626   2.204  0.7156  0.4685  0.7779
16990TIP3    H272462   3.782   4.669   2.149  0.4811 -0.1417 -0.3007
16991TIP3   OH272463   5.003   0.863   3.384  0.5956 -0.1138  0.5388
16991TIP3    H172464   5.009   0.801   3.311 -0.2419  0.1649  0.2240
16991TIP3    H272465   4.918   0.847   3.423 -0.1299  1.5575 -0.2293
16992TIP3   OH272466   4.463   6.099   4.967 -0.5558 -0.1859  0.3531
16992TIP3    H172467   4.407   6.032   5.005 -1.5920  0.3333 -0.2258
16992TIP3    H272468   4.498   6.147   5.043 -1.3176 -0.1758  0.7044
16993TIP3   OH272469   5.459   1.495  15.356  0.7357  0.4277 -0.0033
16993TIP3    H172470   5.552   1.510  15.338  1.2706 -2.0940  0.2747
16993TIP3    H272471   5.422   1.474  15.270  0.6353  0.4297  0.0396
16994TIP3   OH272472   5.699   2.857   4.573  0.0195  0.4128  0.4822
16994TIP3    H172473   5.771   2.908   4.537 -0.1774  0.2648 -0.1399
16994TIP3    H272474   5.741   2.791   4.628  0.3665  0.2634  0.0407
16995TIP3   OH272475   3.521   0.553  14.688 -0.0084 -0.2278  1.0553
16995TIP3    H172476   3.571   0.515  14.616 -1.5778 -0.2484 -0.0600
16995TIP3    H272477   3.556   0.510  14.766 -0.1506 -2.2885  0.0542
16996TIP3   OH272478   2.221   5.030  14.628  0.7066 -0.1184  0.1141
16996TIP3    H172479   2.196   4.938  14.626  0.7207 -0.1144 -1.9339
16996TIP3    H272480   2.289   5.035  14.695 -0.6943 -1.1870  1.6979
16997TIP3   OH272481   2.778   6.790   1.905 -0.9124  0.2520 -0.2803
16997TIP3    H172482   2.808   6.733   1.834 -0.0542 -2.3565  1.9912
16997TIP3    H272483   2.858   6.832   1.937 -1.2926  1.4119 -0.8181
16998TIP3   OH272484   6.566   0.093  12.676 -0.6478  0.0527 -0.0486
16998TIP3    H172485   6.491   0.113  12.732  0.8844 -0.4540  2.3141
16998TIP3    H272486   6.597   0.007  12.707  1.2836  0.5352 -0.5066
16999TIP3   OH272487   2.257   5.094   1.506 -0.0596  0.1030 -0.1252
16999TIP3    H172488   2.279   5.028   1.440 -4.1837  0.0336 -1.7261
16999TIP3    H272489   2.279   5.177   1.464  2.9517  0.0126  0.9883
17000TIP3   OH272490   4.133   4.119  12.151  0.2829 -0.0675 -0.2373
17000TIP3    H172491   4.216   4.139  12.108  0.1039  0.6523 -0.2698
17000TIP3    H272492   4.099   4.044  12.102  1.4155 -1.0867  0.4787
17001TIP3   OH272493   1.288   3.808   0.094 -0.2673 -0.2657  0.3376
17001TIP3    H172494   1.270   3.716   0.078  1.5073 -0.3388 -1.6962
17001TIP3    H272495   1.381   3.819   0.074 -0.2487  1.8258  1.2594
17002TIP3   OH272496   3.838   5.762  16.007 -0.0085 -0.2535 -0.2509
17002TIP3    H172497   3.905   5.696  15.991  0.3261  0.1291 -0.4526
17002TIP3    H272498   3.880   5.845  15.985 -0.6210 -0.0261 -0.5897
17003TIP3   OH272499   1.541   5.076   4.074 -0.6036 -0.0189 -0.2238
17003TIP3    H172500   1.576   5.046   4.158  1.4249  2.1478 -0.2029
17003TIP3    H272501   1.452   5.105   4.094 -0.4374 -0.2924  0.9891
17004TIP3   OH272502   2.822   2.733   2.147 -0.5054 -0.2938 -0.8715
17004TIP3    H172503   2.788   2.645   2.157 -0.7032 -0.2419 -1.0857
17004TIP3    H272504   2.896   2.723   2.087  1.1809 -0.7287  1.1550
17005TIP3   OH272505   2.949   1.436   6.024  0.3782 -0.1949  0.6839
17005TIP3    H172506   2.981   1.432   5.934  1.1125  0.9169  0.8823
17005TIP3    H272507   2.867   1.485   6.018  1.4752  1.7665  0.8530
17006TIP3   OH272508   0.997   2.097   5.971 -0.5092 -0.2680 -0.1586
17006TIP3    H172509   1.060   2.078   6.041 -0.3670  1.1427  0.1306
17006TIP3    H272510   0.943   2.169   6.006 -0.3011  0.6163 -1.5633
17007TIP3   OH272511   1.160   1.439   0.628  0.2854 -0.0032 -0.7794
17007TIP3    H172512   1.229   1.493   0.667  0.7089  1.6432 -3.5685
17007TIP3    H272513   1.207   1.371   0.580 -0.0440  0.5306 -1.8803
17008TIP3   OH272514   6.702   2.744   0.002 -0.6120  0.2299  0.2147
17008TIP3    H172515   6.645   2.753  -0.075  1.0962 -1.4424 -1.3331
17008TIP3    H272516   6.768   2.812  -0.008 -0.6115  0.2640  0.4329
17009TIP3   OH272517   5.260   0.237  15.275 -0.2399  0.4965  0.6549
17009TIP3    H172518   5.283   0.313  15.329 -1.6961  0.4814  1.3575
17009TIP3    H272519   5.165   0.242  15.267 -0.2672 -0.7867 -0.0029
17010TIP3   OH272520   2.493   2.711  12.040  0.1563 -0.2692 -0.5597
17010TIP3    H172521   2.433   2.784  12.028  0.7455  0.4717  0.6869
17010TIP3    H272522   2.456   2.661  12.113  0.5133 -0.3700 -0.4432
17011TIP3   OH272523   1.635   1.416   0.490 -0.1578  0.0647 -0.1730
17011TIP3    H172524   1.545   1.392   0.513 -0.1013 -0.2238 -0.2454
17011TIP3    H272525   1.670   1.457   0.569  0.1422 -1.2109  0.3697
17012TIP3   OH272526   0.663   3.045   6.004 -0.5258  0.1359  0.5098
17012TIP3    H172527   0.678   3.008   6.091 -0.7754 -1.0366  0.0651
17012TIP3    H272528   0.715   2.991   5.945 -1.2684  0.1890 -0.2166
17013TIP3   OH272529   6.286   5.944  11.712 -0.0842 -0.0837  0.5631
17013TIP3    H172530   6.235   5.868  11.683 -1.0232  0.5109  0.6217
17013TIP3    H272531   6.307   5.991  11.631 -0.2024  0.0313  0.5999
17014TIP3   OH272532   1.812   0.700   2.253  0.1974  0.0945  0.4202
17014TIP3    H172533   1.831   0.790   2.280  1.0876  0.5663 -1.5972
17014TIP3    H272534   1.860   0.646   2.316  0.2242  1.0489  1.2402
17015TIP3   OH272535   4.571   4.019  14.834 -0.2853  0.5724 -0.4198
17015TIP3    H172536   4.665   4.003  14.843 -0.5453 -1.4139 -0.6489
17015TIP3    H272537   4.542   3.954  14.770 -2.0617  0.0607  0.8161
17016TIP3   OH272538   4.722   0.272  15.567 -0.7844 -0.1482  0.3583
17016TIP3    H172539   4.736   0.262  15.473 -0.0039 -1.4687  0.5972
17016TIP3    H272540   4.642   0.223  15.585 -0.5187 -0.5414  0.4905
17017TIP3   OH272541   2.851   1.320   2.075 -0.5684 -0.0977 -0.1871
17017TIP3    H172542   2.834   1.232   2.042 -1.4420  0.1002 -0.2980
17017TIP3    H272543   2.789   1.332   2.147  0.2190  0.0715  0.4833
17018TIP3   OH272544   1.452   0.564  13.770  0.5389  0.9068  0.2864
17018TIP3    H172545   1.499   0.542  13.851  2.3621 -1.3647 -1.2420
17018TIP3    H272546   1.510   0.627  13.726  1.0156 -0.0665 -0.5146
17019TIP3   OH272547   4.246   6.732  12.746 -0.0423 -0.2229 -0.0981
17019TIP3    H172548   4.157   6.751  12.715 -1.3295 -2.2313  2.0276
17019TIP3    H272549   4.285   6.679  12.677  0.0645  1.7154 -1.6337
17020TIP3   OH272550   4.495   5.510  16.371  0.1869 -0.4530  0.2339
17020TIP3    H172551   4.575   5.526  16.420 -0.1134  0.5621  0.4204
17020TIP3    H272552   4.467   5.597  16.341 -1.1820 -0.6968  0.7207
17021TIP3   OH272553   4.417   0.695  16.227  0.6038 -0.7657  0.2537
17021TIP3    H172554   4.373   0.644  16.296  0.7639 -0.7454  0.3718
17021TIP3    H272555   4.382   0.660  16.145 -0.1356 -0.3095  0.3556
17022TIP3   OH272556   6.429   2.268  13.098  0.0372  0.7582  0.5027
17022TIP3    H172557   6.490   2.282  13.026 -1.1280  1.2984 -0.4117
17022TIP3    H272558   6.342   2.274  13.058 -0.6364 -1.1534  1.5258
17023TIP3   OH272559   3.059   1.800  11.203  0.2622  0.0876  0.0430
17023TIP3    H172560   3.070   1.777  11.295  1.5629  3.2347  0.8167
17023TIP3    H272561   3.106   1.732  11.155  0.5413 -0.9907  1.7696
17024TIP3   OH272562   2.439   0.093  16.621 -0.1536 -0.6804 -0.1048
17024TIP3    H172563   2.396   0.134  16.695  1.5965  1.8604 -0.3495
17024TIP3    H272564   2.518   0.053  16.658  0.3370 -0.0508 -0.4350
17025TIP3   OH272565   1.017   3.086  16.627  0.8238  0.4348 -0.6702
17025TIP3    H172566   1.069   3.162  16.652  0.7372 -0.1343  1.4217
17025TIP3    H272567   0.995   3.102  16.535 -0.5519  3.7411  0.0758
17026TIP3   OH272568   3.114   0.307   4.866 -0.1262 -0.3655 -0.5680
17026TIP3    H172569   3.019   0.313   4.859 -0.1087  4.2856  0.0682
17026TIP3    H272570   3.129   0.281   4.957 -0.6530 -2.6492 -1.0635
17027TIP3   OH272571   3.858   3.176   3.869 -0.7115  0.4473  0.1217
17027TIP3    H172572   3.850   3.083   3.891 -2.3386  0.0126 -1.9551
17027TIP3    H272573   3.953   3.190   3.860 -0.3981 -0.8178  1.0761
17028TIP3   OH272574   1.227   1.640  14.695 -0.4593  1.0109  0.5988
17028TIP3    H172575   1.229   1.674  14.785 -0.8055 -1.0861  1.4520
17028TIP3    H272576   1.279   1.703  14.645 -0.6526  2.4913  2.1576
17029TIP3   OH272577   0.633   3.862  16.081  0.0429  0.8029  0.2545
17029TIP3    H172578   0.673   3.923  16.143  0.0818  0.9111  0.1233
17029TIP3    H272579   0.584   3.918  16.021 -0.2314  0.6772  0.3615
17030TIP3   OH272580   5.921   0.521   3.677  0.2337 -0.1357  0.3456
17030TIP3    H172581   5.936   0.438   3.630  0.4562  0.4493 -0.6468
17030TIP3    H272582   6.002   0.535   3.726  0.0894 -0.6380  0.7430
17031TIP3   OH272583   6.343   0.598  13.455 -0.0978 -0.5193 -0.1855
17031TIP3    H172584   6.283   0.651  13.403  0.2186  0.2944  0.2513
17031TIP3    H272585   6.424   0.649  13.456  0.0775 -0.8052  0.6166
17032TIP3   OH272586   0.269   2.038   0.623  0.0419  0.1386  1.1940
17032TIP3    H172587   0.358   2.072   0.614 -0.3083  0.5915 -1.2257
17032TIP3    H272588   0.218   2.112   0.655  0.5258 -0.1804  2.7930
17033TIP3   OH272589   5.598   6.533   2.805 -0.0646 -0.1466  0.0213
17033TIP3    H172590   5.652   6.612   2.805 -0.6335  0.2496  0.5896
17033TIP3    H272591   5.626   6.485   2.883 -0.0131 -0.3110 -0.0963
17034TIP3   OH272592   0.692   4.748   3.952  0.2814 -0.0314  0.5769
17034TIP3    H172593   0.684   4.672   3.895  0.4820  0.5840 -0.2965
17034TIP3    H272594   0.752   4.720   4.021 -0.7507 -1.1111  1.0653
17035TIP3   OH272595   1.533   0.232   0.641 -0.0327  0.5765 -0.1261
17035TIP3    H172596   1.597   0.177   0.597 -0.0160  0.4991 -0.0057
17035TIP3    H272597   1.465   0.247   0.576 -0.1123  0.2886 -0.1124
17036TIP3   OH272598   5.380   0.308   4.051  0.2766  0.2518 -0.1160
17036TIP3    H172599   5.325   0.271   4.120  0.2562 -0.6113 -0.5760
17036TIP3    H272600   5.356   0.400   4.047 -0.8321 -0.0209 -0.0262
17037TIP3   OH272601   0.447   6.774  13.908 -0.4325 -0.0636 -0.2787
17037TIP3    H172602   0.389   6.699  13.926 -2.2619  1.7014  1.8585
17037TIP3    H272603   0.531   6.748  13.945 -1.3518 -0.6879  1.4920
17038TIP3   OH272604   1.233   5.489   1.568  0.3441 -0.0622 -0.2465
17038TIP3    H172605   1.228   5.439   1.649 -0.6692  0.2139 -0.1175
17038TIP3    H272606   1.195   5.432   1.501  1.2850 -0.3352 -0.5593
17039TIP3   OH272607   0.079   0.671  15.401 -0.2421 -1.3584  0.3441
17039TIP3    H172608   0.102   0.687  15.310 -0.4609 -2.2872  0.1065
17039TIP3    H272609  -0.016   0.680  15.404 -0.0757  0.5725  0.9086
17040TIP3   OH272610   5.003   2.764   3.041  0.0145  0.3409  0.2598
17040TIP3    H172611   4.926   2.712   3.065  0.9465 -1.6493 -0.8345
17040TIP3    H272612   5.025   2.811   3.121 -2.0270  0.6076  0.7388
17041TIP3   OH272613   3.665   4.457   6.030 -0.3067 -0.1608 -0.8638
17041TIP3    H172614   3.575   4.481   6.007 -0.7020 -1.1111 -0.3706
17041TIP3    H272615   3.667   4.458   6.125  0.3390  0.2882 -0.8736
17042TIP3   OH272616   5.338   3.276  12.668 -0.3021 -0.6188 -0.0645
17042TIP3    H172617   5.289   3.328  12.604 -1.8337  1.4874  2.6157
17042TIP3    H272618   5.302   3.188  12.661 -3.7150  0.5596  0.8758
17043TIP3   OH272619   4.380   4.168   2.968 -0.2653  0.1598 -0.7114
17043TIP3    H172620   4.414   4.208   3.048  0.6614  1.0210 -1.5107
17043TIP3    H272621   4.296   4.211   2.954 -1.3985 -1.4313  0.8603
17044TIP3   OH272622   2.421   2.407   4.389 -0.3377 -0.4601  0.2476
17044TIP3    H172623   2.439   2.331   4.332 -0.9662 -1.2368  1.0582
17044TIP3    H272624   2.420   2.481   4.329 -0.8613 -1.2387 -0.7493
17045TIP3   OH272625   3.985   4.633   4.138 -0.3464 -0.4291 -0.3047
17045TIP3    H172626   3.903   4.584   4.144  1.2012 -3.0735  1.4803
17045TIP3    H272627   3.976   4.704   4.200 -1.3791 -0.5060 -0.3532
17046TIP3   OH272628   6.600   4.527  13.205 -0.1384 -0.1383  0.4831
17046TIP3    H172629   6.590   4.445  13.158 -0.4839 -0.4474  1.0986
17046TIP3    H272630   6.668   4.510  13.270 -0.7253 -0.1523  1.0969
17047TIP3   OH272631   0.143   3.312   6.137 -0.4034 -0.6812  0.0080
17047TIP3    H172632   0.119   3.225   6.171  1.7071 -1.1865  0.3552
17047TIP3    H272633   0.237   3.306   6.121 -0.1018  1.7420  0.5518
17048TIP3   OH272634   5.798   3.539  11.186  1.2263 -0.0197  0.0643
17048TIP3    H172635   5.870   3.528  11.248  0.4923 -0.6422  0.8188
17048TIP3    H272636   5.823   3.616  11.134  1.6245  0.7973  1.4206
17049TIP3   OH272637   6.111   0.033   2.661  0.0675 -0.3473 -0.1905
17049TIP3    H172638   6.173   0.026   2.733 -1.5551 -0.2713  1.2748
17049TIP3    H272639   6.029   0.060   2.702 -0.8909 -0.2171 -2.0838
17050TIP3   OH272640   6.508   4.404   4.176 -0.1490  0.3024 -0.5543
17050TIP3    H172641   6.526   4.322   4.130  0.5245 -0.5234  1.1127
17050TIP3    H272642   6.490   4.378   4.266 -1.6691  1.8556 -0.3683
17051TIP3   OH272643   3.675   5.780  12.987 -0.2675 -0.5223 -0.1810
17051TIP3    H172644   3.738   5.727  12.939 -1.5316 -2.0980 -0.2098
17051TIP3    H272645   3.720   5.806  13.067  1.6170  1.5200 -1.7867
17052TIP3   OH272646   3.040   2.268  11.234 -0.2207 -0.3869  0.3345
17052TIP3    H172647   3.024   2.183  11.195  0.2465 -1.7416  2.8883
17052TIP3    H272648   3.124   2.296  11.198 -0.7729 -0.5713 -1.1539
17053TIP3   OH272649   2.076   0.705  13.416  0.0205 -0.2984 -0.7248
17053TIP3    H172650   2.170   0.710  13.400  0.1310 -1.7763 -0.6745
17053TIP3    H272651   2.041   0.788  13.383  1.2869  0.1147 -1.0671
17054TIP3   OH272652   1.347   0.480  16.599 -0.0946  0.2398 -0.0778
17054TIP3    H172653   1.345   0.402  16.544  3.0404  1.1181 -1.7012
17054TIP3    H272654   1.317   0.550  16.542  1.7266  0.9142 -0.2843
17055TIP3   OH272655   4.769   4.737   5.239 -0.2425  0.1725  1.0017
17055TIP3    H172656   4.859   4.767   5.226  0.7978 -3.1972 -0.9308
17055TIP3    H272657   4.779   4.647   5.270 -2.8235 -1.1187 -1.4787
17056TIP3   OH272658   6.798   5.581  15.848 -0.1680  0.1919 -0.1610
17056TIP3    H172659   6.877   5.630  15.872  0.0185 -1.1501  2.2555
17056TIP3    H272660   6.727   5.627  15.894 -0.2851 -0.5327  0.4031
17057TIP3   OH272661   0.274   1.246   5.076 -0.0163  0.8403  0.5152
17057TIP3    H172662   0.365   1.266   5.096  0.5172 -0.2611 -0.6531
17057TIP3    H272663   0.239   1.210   5.158  1.6001 -1.9153  0.1241
17058TIP3   OH272664   2.428   4.931  11.047 -0.1247  0.6583 -0.0366
17058TIP3    H172665   2.390   4.845  11.066  1.0768  0.4431  1.5867
17058TIP3    H272666   2.383   4.991  11.107 -0.9983  1.1981 -1.2012
17059TIP3   OH272667   2.050   1.177   3.697  0.1945  0.1567 -0.0557
17059TIP3    H172668   1.994   1.194   3.772 -1.7674 -0.6431 -1.2758
17059TIP3    H272669   2.099   1.098   3.720 -1.4116 -0.8944 -0.1274
17060TIP3   OH272670   5.308   2.275  13.628  0.3550 -0.3625  0.1593
17060TIP3    H172671   5.260   2.206  13.675  0.8110 -1.6449 -1.1819
17060TIP3    H272672   5.371   2.228  13.574  0.8525  1.1327 -0.6162
17061TIP3   OH272673   2.689   1.370   4.751  0.6189  0.1478  0.3605
17061TIP3    H172674   2.706   1.460   4.778  0.9136  0.6705 -1.4746
17061TIP3    H272675   2.613   1.376   4.694  0.4867 -0.7988  0.4281
17062TIP3   OH272676   6.114   0.600  12.873 -0.0834  0.0033 -0.5530
17062TIP3    H172677   6.033   0.642  12.902 -0.6610 -1.6315  0.2759
17062TIP3    H272678   6.183   0.655  12.909 -0.8147  0.1984  0.6214
17063TIP3   OH272679   3.953   1.743  15.877 -0.3774  0.4084  0.2745
17063TIP3    H172680   4.034   1.725  15.924 -0.7117  2.4382  1.7843
17063TIP3    H272681   3.974   1.726  15.785  1.9494  1.3908  0.5474
17064TIP3   OH272682   4.925   0.057   0.786  0.3302 -0.0361 -0.3979
17064TIP3    H172683   4.853   0.119   0.794  1.8014  1.8811 -1.2640
17064TIP3    H272684   4.891  -0.024   0.825 -1.6216  1.3165  0.8979
17065TIP3   OH272685   5.165   5.876   4.041  0.3177 -0.2020  0.0170
17065TIP3    H172686   5.248   5.902   4.000  0.6362  0.6018  1.1381
17065TIP3    H272687   5.176   5.783   4.059  1.1587 -0.0114  0.5528
17066TIP3   OH272688   2.324   0.841  16.231 -0.4356 -0.1533  0.5082
17066TIP3    H172689   2.321   0.758  16.184 -0.7655 -0.2964  0.7737
17066TIP3    H272690   2.412   0.843  16.269 -0.2312 -0.1171  0.0356
17067TIP3   OH272691   1.765   6.225  13.425 -0.2445 -0.5638  0.1951
17067TIP3    H172692   1.859   6.231  13.409 -0.2576  0.5363  0.4524
17067TIP3    H272693   1.734   6.160  13.363  0.5395 -0.2621 -0.5288
17068TIP3   OH272694   5.185   6.588  13.256 -0.1693  0.2692 -0.1952
17068TIP3    H172695   5.190   6.674  13.214  0.7028  0.0061 -0.6433
17068TIP3    H272696   5.276   6.564  13.272 -0.4277 -0.4166  0.2458
17069TIP3   OH272697   6.243   4.497  15.883  0.0748 -0.1217 -0.2224
17069TIP3    H172698   6.321   4.543  15.914 -0.4008  0.0330  0.7493
17069TIP3    H272699   6.244   4.414  15.931  0.1110 -0.4988 -0.8624
17070TIP3   OH272700   5.799   5.516  15.008 -0.1812 -0.2649  0.1611
17070TIP3    H172701   5.778   5.609  14.999  0.0322 -0.3336 -1.1558
17070TIP3    H272702   5.890   5.514  15.037 -0.0942 -0.0774 -0.1053
17071TIP3   OH272703   4.816   0.455   2.674  0.2462  0.1791 -0.1348
17071TIP3    H172704   4.825   0.378   2.730 -0.6164  2.2682  3.1368
17071TIP3    H272705   4.906   0.483   2.657  0.5187 -0.2793  0.5324
17072TIP3   OH272706   2.760   4.322  12.431  0.3349  0.0073  0.3105
17072TIP3    H172707   2.840   4.273  12.412  0.7910  0.8832 -0.0738
17072TIP3    H272708   2.727   4.349  12.345 -0.2435 -0.1279  0.4816
17073TIP3   OH272709   6.382   0.160   2.792 -0.6902  0.2613 -0.0876
17073TIP3    H172710   6.416   0.150   2.703  1.0773  0.7168  0.4996
17073TIP3    H272711   6.333   0.243   2.790 -0.4711  0.3840 -0.5662
17074TIP3   OH272712   3.284   2.162  13.734 -0.5198  0.2370  0.5776
17074TIP3    H172713   3.278   2.166  13.829 -2.3011 -0.1716  0.5250
17074TIP3    H272714   3.210   2.107  13.708 -0.3834  0.7793 -1.0831
17075TIP3   OH272715   2.990   6.183   3.318  0.2517  0.0200 -0.4919
17075TIP3    H172716   3.060   6.163   3.380 -1.4399 -1.1051  1.1686
17075TIP3    H272717   2.970   6.099   3.276 -1.3083 -0.0962  0.4196
17076TIP3   OH272718   2.137   2.754   4.527  0.1435  0.0807 -0.2081
17076TIP3    H172719   2.222   2.798   4.525  0.8710 -1.3001 -1.1688
17076TIP3    H272720   2.144   2.684   4.462 -0.7030 -1.9168  1.7052
17077TIP3   OH272721   5.706   6.641  12.324 -0.5859  0.0686 -0.7684
17077TIP3    H172722   5.665   6.721  12.291  0.0116  0.6525 -0.1480
17077TIP3    H272723   5.664   6.570  12.276 -0.9388  0.7749 -1.5189
17078TIP3   OH272724   6.584   2.053   2.357  0.2914 -0.4215 -0.1983
17078TIP3    H172725   6.583   2.146   2.382 -0.3230  0.3535 -2.7482
17078TIP3    H272726   6.502   2.018   2.391 -0.5891  0.6055 -1.1834
17079TIP3   OH272727   3.855   1.052   5.132  0.1552 -0.2314 -0.3179
17079TIP3    H172728   3.851   0.974   5.188 -1.5109  0.2162  0.2311
17079TIP3    H272729   3.910   1.025   5.058  0.9322 -1.4081  0.6484
17080TIP3   OH272730   5.359   0.370  14.808  0.5755  0.8102 -0.3856
17080TIP3    H172731   5.443   0.343  14.772  1.1490 -1.2081  2.1252
17080TIP3    H272732   5.361   0.338  14.898 -2.5420  1.5201  0.0406
17081TIP3   OH272733   4.187   6.603  13.273  0.3477  0.2350  0.3865
17081TIP3    H172734   4.175   6.607  13.178  1.0365  1.7740  0.3273
17081TIP3    H272735   4.233   6.684  13.294  0.6294 -0.3123  1.9834
17082TIP3   OH272736   3.999   4.491  12.533  0.2690 -0.3061 -0.0693
17082TIP3    H172737   4.056   4.567  12.524  0.3685 -0.3680  0.0360
17082TIP3    H272738   4.058   4.419  12.557  0.2430 -0.5222 -0.6475
17083TIP3   OH272739   0.715   4.404   2.477  0.1002  0.1817  0.3564
17083TIP3    H172740   0.671   4.482   2.511 -2.1936 -1.9020  2.6090
17083TIP3    H272741   0.772   4.376   2.549  0.4891 -0.5037 -0.2066
17084TIP3   OH272742   2.301   3.383   3.536  0.0751  0.1778  0.1192
17084TIP3    H172743   2.374   3.330   3.504 -1.7540 -1.7864 -1.1029
17084TIP3    H272744   2.290   3.451   3.469 -2.7858 -3.0271 -3.0668
17085TIP3   OH272745   6.658   2.760   0.544  0.2532  0.1298 -0.1282
17085TIP3    H172746   6.651   2.722   0.456  3.5191 -0.0918 -0.3904
17085TIP3    H272747   6.661   2.684   0.602  0.2370  0.2231 -0.0069
17086TIP3   OH272748   6.088   4.648  16.109 -0.2521 -0.6034  0.3365
17086TIP3    H172749   6.032   4.580  16.148  0.6745 -2.0523 -0.7425
17086TIP3    H272750   6.063   4.649  16.016  0.6252 -0.3706  0.0951
17087TIP3   OH272751   3.776   6.008   4.383  0.0538 -0.1383 -0.2001
17087TIP3    H172752   3.840   6.066   4.341 -0.7858  0.8784 -0.1142
17087TIP3    H272753   3.710   5.994   4.316  0.1696 -0.8711 -0.1614
17088TIP3   OH272754   3.332   6.557  11.342 -0.4423  0.5515  0.0986
17088TIP3    H172755   3.284   6.550  11.424  1.5440  0.5716  1.3308
17088TIP3    H272756   3.386   6.478  11.340  1.7446  1.9698  0.3358
17089TIP3   OH272757   5.825   3.958  11.757 -0.3611  0.1557  0.0116
17089TIP3    H172758   5.851   3.976  11.666 -2.2223 -0.9277 -0.8014
17089TIP3    H272759   5.791   3.869  11.754 -1.7239  0.5968  1.4826
17090TIP3   OH272760   3.528   2.832   3.701  0.2245 -0.4870  0.2010
17090TIP3    H172761   3.485   2.751   3.729  0.1146 -0.2213  0.7997
17090TIP3    H272762   3.525   2.828   3.605  0.8348 -1.5280  0.2006
17091TIP3   OH272763   3.578   2.039   5.435 -0.2734 -0.3439 -0.2274
17091TIP3    H172764   3.584   2.115   5.376 -0.7302 -0.6902 -0.7288
17091TIP3    H272765   3.645   1.979   5.403 -1.3794 -1.0849 -1.2248
17092TIP3   OH272766   5.063   0.829  12.186  0.1438  0.4013 -0.2472
17092TIP3    H172767   5.147   0.793  12.158  1.0153  2.2696 -0.1801
17092TIP3    H272768   5.019   0.853  12.105  0.5792  1.3077 -0.2304
17093TIP3   OH272769   5.568   3.581  16.651  0.0067  0.0115  0.1212
17093TIP3    H172770   5.580   3.507  16.711  1.9124  0.8645  0.8647
17093TIP3    H272771   5.527   3.542  16.574 -0.0120 -1.6209  0.9043
17094TIP3   OH272772   4.223   0.739  12.462 -0.1912 -0.2232 -0.3084
17094TIP3    H172773   4.199   0.824  12.501 -1.9574 -0.5368 -0.6182
17094TIP3    H272774   4.251   0.761  12.373 -1.5470 -0.0169 -0.7092
17095TIP3   OH272775   2.429   1.364   1.767  0.1405 -0.5564 -0.0267
17095TIP3    H172776   2.514   1.408   1.771 -1.0646  3.0328 -4.8181
17095TIP3    H272777   2.370   1.421   1.815 -0.5175  0.4718 -1.9453
17096TIP3   OH272778   0.119   5.848  12.976 -0.4322  0.4647  0.3445
17096TIP3    H172779   0.051   5.915  12.978  0.6952  1.6358  1.7273
17096TIP3    H272780   0.174   5.872  12.902 -0.6768  0.3895  0.1375
17097TIP3   OH272781   6.446   2.506  12.588 -0.5451 -0.3505 -0.5641
17097TIP3    H172782   6.537   2.517  12.616 -0.1921  1.8417 -2.2693
17097TIP3    H272783   6.452   2.499  12.492 -2.1069 -1.4370 -0.6153
17098TIP3   OH272784   3.204   4.619  12.712  0.2553 -0.1083  0.6305
17098TIP3    H172785   3.291   4.633  12.751 -0.4335  1.8681  1.6267
17098TIP3    H272786   3.201   4.526  12.691  2.3852 -0.3391  1.1341
17099TIP3   OH272787   1.734   6.077   0.188 -0.2130  0.2494 -0.4788
17099TIP3    H172788   1.783   6.097   0.268 -1.8070  0.1906  0.5487
17099TIP3    H272789   1.776   5.998   0.153  1.1083  0.8273 -0.2549
17100TIP3   OH272790   3.409   0.127  13.852  0.0102 -0.1595 -0.7350
17100TIP3    H172791   3.330   0.099  13.806 -0.5330 -0.4334  0.3343
17100TIP3    H272792   3.472   0.056  13.836 -0.7394 -1.1076  0.3637
17101TIP3   OH272793   6.436   3.749  15.824  0.0703 -0.4095 -0.6407
17101TIP3    H172794   6.351   3.766  15.785  0.2176  0.4019 -0.6252
17101TIP3    H272795   6.452   3.655  15.808 -0.8084 -0.5641 -0.6549
17102TIP3   OH272796   0.676   1.181   4.744  0.6360 -0.2439  0.6255
17102TIP3    H172797   0.675   1.088   4.721  1.1712 -0.1475  0.1798
17102TIP3    H272798   0.683   1.182   4.839 -4.7474 -0.6855  1.3234
17103TIP3   OH272799   6.324   3.004   5.098 -0.2465 -0.2640  0.4286
17103TIP3    H172800   6.282   3.017   5.183 -0.6129  0.7638  0.1047
17103TIP3    H272801   6.348   3.092   5.070 -0.0478 -0.6063 -0.4894
17104TIP3   OH272802   3.025   4.356   4.136 -0.2483 -0.1704  0.4342
17104TIP3    H172803   3.038   4.435   4.188 -0.0204 -0.4824  0.8606
17104TIP3    H272804   2.941   4.369   4.092 -0.2112  0.3053  0.4950
17105TIP3   OH272805   4.123   2.893   3.236 -0.7450  0.9650  0.0292
17105TIP3    H172806   4.100   2.824   3.298 -0.0622  0.3266 -0.4084
17105TIP3    H272807   4.181   2.951   3.285 -1.5825  1.4300  0.4983
17106TIP3   OH272808   2.304   2.251  16.674  0.0514  0.0835  1.0944
17106TIP3    H172809   2.244   2.325  16.676  0.2203  0.2518  0.3987
17106TIP3    H272810   2.389   2.290  16.650  0.3678 -0.1920  1.7500
17107TIP3   OH272811   2.883   2.182   2.296  0.0536  0.1498 -0.0516
17107TIP3    H172812   2.866   2.138   2.379 -1.3862 -0.4694 -0.6451
17107TIP3    H272813   2.945   2.252   2.318  0.6638 -0.7694  1.2993
17108TIP3   OH272814   6.208   6.625  16.281  0.4287 -0.5390 -0.2901
17108TIP3    H172815   6.189   6.557  16.216 -1.8273  0.6656 -1.0189
17108TIP3    H272816   6.200   6.580  16.365 -1.0417 -1.2329 -0.7512
17109TIP3   OH272817   4.329   0.725  10.471 -0.0211 -0.1941 -0.4898
17109TIP3    H172818   4.281   0.803  10.499  2.2492  0.8723  0.8080
17109TIP3    H272819   4.334   0.670  10.550  1.6285  0.1850 -0.2887
17110TIP3   OH272820   5.543   0.788   1.456 -0.3417  0.2703 -0.2410
17110TIP3    H172821   5.522   0.855   1.521  0.3454 -0.5023  0.8153
17110TIP3    H272822   5.636   0.802   1.438  0.3772 -1.6329  1.5593
17111TIP3   OH272823   4.585   6.631   1.876 -0.2957 -0.3271 -0.1627
17111TIP3    H172824   4.588   6.558   1.814 -1.3397  0.2046 -0.8883
17111TIP3    H272825   4.522   6.692   1.838 -1.4590 -0.2534  1.7261
17112TIP3   OH272826   3.472   4.400  14.520 -0.1511  0.4745  0.0027
17112TIP3    H172827   3.444   4.491  14.511 -1.1767  0.1805  0.1684
17112TIP3    H272828   3.408   4.350  14.469  0.4707 -0.1504 -0.1830
17113TIP3   OH272829   6.810   1.312  16.911  0.4920 -0.2690  0.4794
17113TIP3    H172830   6.757   1.364  16.972  1.0208  1.9986 -0.8926
17113TIP3    H272831   6.872   1.374  16.873  1.4782 -2.0149 -0.9389
17114TIP3   OH272832   5.641   0.904  12.463  0.7134  0.0187 -0.0144
17114TIP3    H172833   5.632   0.809  12.471  1.4828 -0.0106  0.5782
17114TIP3    H272834   5.551   0.936  12.470  0.2042 -0.7824 -2.2099
17115TIP3   OH272835   5.798   3.834   2.421  0.1888 -0.0136  0.1229
17115TIP3    H172836   5.848   3.872   2.348 -0.0597 -0.3030 -0.1988
17115TIP3    H272837   5.766   3.750   2.387  1.6046 -1.0248  1.1699
17116TIP3   OH272838   2.872   2.024   3.304  0.0391 -0.1727 -0.3451
17116TIP3    H172839   2.903   1.952   3.359 -2.2515 -1.3731 -0.5124
17116TIP3    H272840   2.939   2.032   3.236  0.7186 -1.6514  0.0987
17117TIP3   OH272841   1.532   3.949   3.084 -0.1340  0.1415  0.1006
17117TIP3    H172842   1.537   3.949   2.988  0.5012 -0.9144  0.1141
17117TIP3    H272843   1.468   4.017   3.105  2.0836  2.7486 -0.9192
17118TIP3   OH272844   6.115   6.486   4.903 -0.0583 -0.3829 -0.0235
17118TIP3    H172845   6.051   6.465   4.835  0.5341  2.7643 -1.7735
17118TIP3    H272846   6.179   6.416   4.898 -0.6731 -0.8771 -1.8950
17119TIP3   OH272847   6.178   3.490  11.752  0.4165 -0.3840 -0.8187
17119TIP3    H172848   6.203   3.399  11.767 -0.4121 -0.6176 -0.8146
17119TIP3    H272849   6.091   3.498  11.790  0.4738  0.4140 -0.8232
17120TIP3   OH272850   1.205   5.209   3.333  0.2004  0.6000  0.0553
17120TIP3    H172851   1.238   5.146   3.397 -1.1816 -0.8137 -0.5664
17120TIP3    H272852   1.113   5.220   3.355 -0.1694  0.4870 -1.3524
17121TIP3   OH272853   3.507   1.508  16.000 -0.7955 -0.1014  0.7326
17121TIP3    H172854   3.570   1.471  16.061 -0.6587 -0.1477  0.5641
17121TIP3    H272855   3.541   1.595  15.978  0.5668 -1.0646 -1.3075
17122TIP3   OH272856   6.160   3.150  14.761  0.4352 -0.8524 -0.3266
17122TIP3    H172857   6.149   3.072  14.707 -1.5933 -0.5044 -0.4966
17122TIP3    H272858   6.162   3.223  14.698 -2.0837 -0.4328 -0.0073
17123TIP3   OH272859   5.046   0.306  13.192  0.5520 -0.1196  0.6328
17123TIP3    H172860   5.010   0.296  13.104 -0.3564 -0.3222  1.0201
17123TIP3    H272861   5.044   0.401  13.208  0.8995 -0.0668  0.3611
17124TIP3   OH272862   0.817   3.947  15.034  0.2475  0.7946  0.0603
17124TIP3    H172863   0.894   3.926  14.982 -0.2848  0.7141 -0.7119
17124TIP3    H272864   0.747   3.893  14.998 -0.0398  0.3770  1.1748
17125TIP3   OH272865   0.561   5.875  13.709 -0.1827  0.0328 -0.0809
17125TIP3    H172866   0.571   5.874  13.805  0.2582 -0.8317 -0.1297
17125TIP3    H272867   0.515   5.957  13.691  0.1309  0.4266  0.8375
17126TIP3   OH272868   1.758   1.273   2.266  0.1380 -0.5802 -0.3771
17126TIP3    H172869   1.743   1.250   2.174  0.6490 -0.3366 -0.5225
17126TIP3    H272870   1.752   1.190   2.313 -1.0414 -0.5863 -0.5049
17127TIP3   OH272871   4.748   4.162   5.863  0.2279  0.4274 -0.1047
17127TIP3    H172872   4.676   4.212   5.901  0.1172  1.0527 -1.0951
17127TIP3    H272873   4.827   4.205   5.894  0.1510  0.5970 -0.1446
17128TIP3   OH272874   5.422   1.434   3.571  0.0618  1.0003 -0.1295
17128TIP3    H172875   5.377   1.511   3.538  2.1239  2.2825 -0.1165
17128TIP3    H272876   5.390   1.423   3.660 -1.6210  0.6962 -0.7477
17129TIP3   OH272877   3.764   2.032   0.547  0.3719 -0.2256  0.1868
17129TIP3    H172878   3.743   2.060   0.458  1.4762 -1.1058 -0.3733
17129TIP3    H272879   3.848   2.075   0.566 -1.4928  2.9409  2.2390
17130TIP3   OH272880   1.017   2.464  11.746  0.2669  0.4284  0.0521
17130TIP3    H172881   1.033   2.531  11.812  2.8718  0.3686 -0.4018
17130TIP3    H272882   1.043   2.505  11.663  1.5354 -0.9601 -0.2872
17131TIP3   OH272883   6.050   0.559   0.628  0.0011  0.3314 -0.1401
17131TIP3    H172884   6.009   0.597   0.706  0.0738 -1.8798  1.0348
17131TIP3    H272885   5.999   0.595   0.555  0.2978  2.9093  0.8136
17132TIP3   OH272886   0.699   3.674  16.520  0.1186 -0.5000 -0.5221
17132TIP3    H172887   0.608   3.703  16.519  0.0512 -0.6918 -0.0675
17132TIP3    H272888   0.738   3.716  16.443  1.2510  4.8537  2.4399
17133TIP3   OH272889   6.135   2.445   2.323  0.7702 -0.4483  0.7157
17133TIP3    H172890   6.073   2.374   2.339 -0.6208 -0.4472 -3.5960
17133TIP3    H272891   6.086   2.525   2.342  0.1436 -0.5216 -0.4990
17134TIP3   OH272892   3.341   6.335   5.362  0.2899 -0.1315 -0.2363
17134TIP3    H172893   3.301   6.418   5.387 -0.1467 -0.5675  0.5927
17134TIP3    H272894   3.387   6.306   5.441  0.1426 -0.8385 -0.3970
17135TIP3   OH272895   0.136   0.283  11.150 -0.5166  0.1273 -0.4344
17135TIP3    H172896   0.063   0.274  11.089 -0.9689  0.2261  0.0842
17135TIP3    H272897   0.128   0.372  11.185 -0.3234  0.0325 -0.1459
17136TIP3   OH272898   6.463   1.250  12.912 -0.3268  0.3039 -0.4205
17136TIP3    H172899   6.386   1.305  12.914 -1.8923 -1.7495  1.5119
17136TIP3    H272900   6.447   1.187  12.841 -0.1475  0.2563 -0.4199
17137TIP3   OH272901   4.349   6.385   6.512 -0.0035 -0.2796 -0.4482
17137TIP3    H172902   4.429   6.334   6.525 -0.1133  0.0920  2.5524
17137TIP3    H272903   4.378   6.467   6.473  1.5810  0.7748  2.6025
17138TIP3   OH272904   6.212   3.067  13.155  0.0670 -0.0589 -0.2333
17138TIP3    H172905   6.144   3.120  13.195 -0.1559 -1.5989  1.5874
17138TIP3    H272906   6.164   3.007  13.097 -0.1876 -1.0631  0.9584
17139TIP3   OH272907   0.234   5.727  16.898  0.3612  0.2871 -0.0638
17139TIP3    H172908   0.252   5.706  16.806 -1.8990 -0.9287 -0.2978
17139TIP3    H272909   0.200   5.646  16.934  2.9934  0.1478  2.4465
17140TIP3   OH272910   5.769   6.683   5.012  0.3347 -0.1847 -0.3611
17140TIP3    H172911   5.859   6.714   4.996  0.3174 -0.7185 -1.5885
17140TIP3    H272912   5.773   6.589   4.999 -0.1388 -0.3951  0.9103
17141TIP3   OH272913   6.035   0.256  15.791 -0.0705  0.2723 -0.2490
17141TIP3    H172914   6.046   0.334  15.845  1.0315  0.7644 -1.1261
17141TIP3    H272915   5.984   0.196  15.845 -0.6162  1.4473  0.5899
17142TIP3   OH272916   1.407   1.356   4.514  0.3146 -0.3889  0.4788
17142TIP3    H172917   1.493   1.393   4.535  0.2940 -0.4880  0.7496
17142TIP3    H272918   1.401   1.361   4.419  1.3042 -1.8585  0.3068
17143TIP3   OH272919   2.306   0.831   3.181  0.0100  0.1785 -0.2228
17143TIP3    H172920   2.307   0.922   3.152 -2.4673  0.1451 -0.6013
17143TIP3    H272921   2.360   0.831   3.260 -1.2788  2.3488  0.7514
17144TIP3   OH272922   2.032   5.271  12.549  0.3583 -0.1272 -0.3252
17144TIP3    H172923   1.970   5.332  12.590 -0.7141  0.4105 -2.6068
17144TIP3    H272924   1.990   5.185  12.559 -0.1925  0.0794 -0.7871
17145TIP3   OH272925   2.180   0.744  12.263  0.4933  0.5354 -0.2778
17145TIP3    H172926   2.115   0.679  12.237 -0.0632  0.8420  0.3176
17145TIP3    H272927   2.134   0.828  12.257  1.2475  0.9057 -1.1931
17146TIP3   OH272928   6.793   2.501  14.451  0.2378 -0.1301  0.3537
17146TIP3    H172929   6.854   2.427  14.453  1.6126  0.9390 -0.0792
17146TIP3    H272930   6.827   2.561  14.517 -1.0213  0.0120  0.8955
17147TIP3   OH272931   6.567   3.454  10.769 -0.3962 -0.8769  0.1573
17147TIP3    H172932   6.620   3.530  10.794 -0.7562 -0.9211  1.0943
17147TIP3    H272933   6.606   3.423  10.687 -1.3259  1.4284 -1.2885
17148TIP3   OH272934   1.176   2.302  13.349  0.6601  0.1483 -0.5428
17148TIP3    H172935   1.205   2.369  13.412 -0.3617  0.3238 -0.2486
17148TIP3    H272936   1.252   2.290  13.292  0.7258  1.8849 -0.8858
17149TIP3   OH272937   3.352   1.285  11.041  0.5603 -0.0490  0.1447
17149TIP3    H172938   3.276   1.339  11.022  0.8334  0.0544 -0.6755
17149TIP3    H272939   3.365   1.233  10.962  1.1601 -0.2845  0.3925
17150TIP3   OH272940   2.757   3.857  14.901 -0.1517 -0.3035  0.1314
17150TIP3    H172941   2.722   3.768  14.893 -0.2210 -0.1062 -2.2377
17150TIP3    H272942   2.852   3.844  14.906  0.0422 -0.4863 -2.6001
17151TIP3   OH272943   1.347   0.101  15.907  0.0622  0.3402  0.2013
17151TIP3    H172944   1.325   0.076  15.818  0.4793 -0.6109  0.3508
17151TIP3    H272945   1.422   0.047  15.930  0.1826  0.8252  1.0052
17152TIP3   OH272946   5.014   0.999   0.580 -0.2393  0.3118  0.4150
17152TIP3    H172947   4.952   0.937   0.541 -0.2996  0.4387  0.3050
17152TIP3    H272948   5.065   0.947   0.642 -0.9900  0.3667  1.1017
17153TIP3   OH272949   3.386   4.260   0.491 -0.0693  1.0624 -0.0791
17153TIP3    H172950   3.351   4.253   0.403  0.3779  0.2427 -0.2069
17153TIP3    H272951   3.422   4.348   0.496  0.2454  0.9868 -0.8518
17154TIP3   OH272952   3.132   3.838  13.270 -0.4075 -0.1787 -0.6370
17154TIP3    H172953   3.107   3.752  13.304 -0.3897 -0.3441 -1.0418
17154TIP3    H272954   3.226   3.831  13.254  0.3732  1.0154  2.6318
17155TIP3   OH272955   6.355   1.940  10.724  0.1522 -0.1955 -0.1571
17155TIP3    H172956   6.281   1.882  10.743 -0.5335  0.3065 -1.1986
17155TIP3    H272957   6.418   1.884  10.678 -1.0801  0.1273 -2.3907
17156TIP3   OH272958   0.058   3.869   2.232  0.4816  0.4447  0.4675
17156TIP3    H172959   0.103   3.793   2.267  0.1999 -0.2226 -0.5739
17156TIP3    H272960   0.043   3.926   2.308 -1.2268 -1.4939  1.6790
17157TIP3   OH272961   4.765   2.976   3.043 -0.4329  0.2222 -0.1347
17157TIP3    H172962   4.737   2.997   3.132 -1.0115 -0.1810 -0.2140
17157TIP3    H272963   4.742   3.054   2.992 -1.5497 -0.1341 -0.2158
17158TIP3   OH272964   4.703   2.726   1.958  0.4166  0.1917 -0.5660
17158TIP3    H172965   4.738   2.731   1.869  1.0941  0.5856 -0.2784
17158TIP3    H272966   4.619   2.771   1.953  0.5146  0.3373 -0.9752
17159TIP3   OH272967   3.072   3.039   2.544 -0.2067  0.2415  0.2399
17159TIP3    H172968   3.005   2.993   2.494  0.0398  0.0562  0.0771
17159TIP3    H272969   3.091   3.118   2.492 -0.4280  0.3847  0.3771
17160TIP3   OH272970   2.962   6.741  16.536  0.1279  0.1834 -0.3883
17160TIP3    H172971   3.029   6.713  16.473  0.4570  1.4193 -0.6137
17160TIP3    H272972   2.895   6.783  16.482  1.0868  2.5593  0.1553
17161TIP3   OH272973   5.050   4.928  17.175  0.4660  0.3163 -0.0269
17161TIP3    H172974   5.043   5.014  17.134 -2.0277  1.1937  1.9523
17161TIP3    H272975   5.091   4.945  17.259  1.6126 -0.7620 -0.3435
17162TIP3   OH272976   2.516   3.103  15.018  0.2110 -0.0954 -0.4488
17162TIP3    H172977   2.510   3.018  15.063 -0.4985  1.1144  1.8875
17162TIP3    H272978   2.599   3.140  15.047  0.5372  0.0215 -1.4983
17163TIP3   OH272979   6.217   6.287   0.536 -0.3904 -0.3246 -0.5260
17163TIP3    H172980   6.166   6.312   0.613  0.3168 -1.5184  0.3660
17163TIP3    H272981   6.297   6.340   0.541  0.1581 -1.1933  0.2007
17164TIP3   OH272982   2.887   0.445   3.907  0.0532  0.1741 -0.0216
17164TIP3    H172983   2.882   0.475   3.998 -1.2780  1.6481 -0.5139
17164TIP3    H272984   2.821   0.375   3.901 -0.7126  0.8750 -0.0866
17165TIP3   OH272985   4.785   4.639  14.911 -0.5670  0.2919  0.0351
17165TIP3    H172986   4.848   4.689  14.859  0.3224 -0.4287  0.3772
17165TIP3    H272987   4.802   4.667  15.001  2.0733 -2.6883  0.6410
17166TIP3   OH272988   2.062   1.325   5.642  0.3212  0.3349 -0.0202
17166TIP3    H172989   1.983   1.359   5.601 -0.4261  0.2710  1.3196
17166TIP3    H272990   2.119   1.401   5.652  0.6147  0.3070 -1.3666
17167TIP3   OH272991   3.749   1.316  14.000 -0.6976 -0.1959 -0.5114
17167TIP3    H172992   3.725   1.400  14.039  1.3768  1.2564 -2.0774
17167TIP3    H272993   3.674   1.294  13.944 -1.0641  0.9328 -0.5060
17168TIP3   OH272994   2.559   3.996   5.845 -0.2720  0.2705 -0.1278
17168TIP3    H172995   2.536   3.996   5.752 -0.6065  0.1125 -0.0497
17168TIP3    H272996   2.594   4.083   5.862 -0.6657  0.4679 -0.2962
17169TIP3   OH272997   0.036   6.443  16.214 -0.0713 -0.0283 -0.3290
17169TIP3    H172998   0.057   6.480  16.300 -0.9220 -0.2483 -0.0120
17169TIP3    H272999   0.105   6.475  16.156  0.2363  0.5315  0.3320
17170TIP3   OH273000   0.078   5.238  12.699 -0.0112 -0.3807  0.1940
17170TIP3    H173001  -0.005   5.191  12.686 -0.3518  0.3045 -0.1499
17170TIP3    H273002   0.076   5.308  12.635  0.7029 -0.1706  0.3946
17171TIP3   OH273003   2.274   1.766  16.804 -0.0169  0.4539 -0.0978
17171TIP3    H173004   2.222   1.794  16.729 -0.8789 -0.2166  0.2425
17171TIP3    H273005   2.364   1.787  16.779 -0.4035  1.3550 -0.8124
17172TIP3   OH273006   5.357   1.728  15.494 -0.1981 -0.1953 -0.1714
17172TIP3    H173007   5.315   1.653  15.535  1.6973 -0.0926  2.1700
17172TIP3    H273008   5.416   1.689  15.429  1.1012 -0.8450  1.3344
17173TIP3   OH273009   5.428   5.875   1.949  0.0405  0.2086 -0.0906
17173TIP3    H173010   5.447   5.960   1.909  1.0031  1.6497  3.1218
17173TIP3    H273011   5.350   5.889   2.002  1.1851 -0.3576  1.8524
17174TIP3   OH273012   4.813   6.648   4.655  0.2433 -0.4485 -0.1048
17174TIP3    H173013   4.760   6.725   4.635  1.9733  0.8978  0.2724
17174TIP3    H273014   4.791   6.628   4.746 -1.0965 -1.1641 -0.5672
17175TIP3   OH273015   3.674   2.105  13.811  0.2513  0.0944  0.0653
17175TIP3    H173016   3.612   2.154  13.866  0.8976  0.9613  0.0372
17175TIP3    H273017   3.679   2.156  13.730  0.2094 -0.5446 -0.3459
17176TIP3   OH273018   6.135   4.149   0.117  0.4859  0.1156  0.8046
17176TIP3    H173019   6.186   4.194   0.184  0.7238 -1.8013  1.9937
17176TIP3    H273020   6.153   4.056   0.132 -1.8771 -0.5283  0.0577
17177TIP3   OH273021   6.330   1.883   3.105 -0.1551 -0.0717 -0.3539
17177TIP3    H173022   6.409   1.858   3.153  0.6138  1.5096 -0.7410
17177TIP3    H273023   6.276   1.929   3.169  0.6917  1.6795 -0.8418
17178TIP3   OH273024   1.813   6.150   6.293 -0.2102 -0.2816 -0.2923
17178TIP3    H173025   1.763   6.069   6.284 -0.7760 -0.1483  1.3549
17178TIP3    H273026   1.764   6.201   6.358  0.6288  1.0024 -0.6337
17179TIP3   OH273027   6.619   3.386   1.200  0.0736 -0.2685  0.8907
17179TIP3    H173028   6.596   3.387   1.107 -3.0122  0.2967  1.5534
17179TIP3    H273029   6.583   3.303   1.232 -0.5149  0.3644  1.8999
17180TIP3   OH273030   2.939   3.663   5.460 -0.0321 -0.4815  0.4277
17180TIP3    H173031   2.908   3.727   5.523 -2.3056 -0.9607 -0.1069
17180TIP3    H273032   2.973   3.715   5.387  3.8056  0.1096  2.3766
17181TIP3   OH273033   1.720   0.865   2.525 -0.3063  0.4702  0.0655
17181TIP3    H173034   1.642   0.817   2.552  0.4131 -0.3651  0.7116
17181TIP3    H273035   1.701   0.894   2.436 -1.6919  1.0429  0.5313
17182TIP3   OH273036   0.448   4.097  13.488 -0.1814  0.5544 -0.2314
17182TIP3    H173037   0.533   4.092  13.531  0.2596 -0.5118 -1.1862
17182TIP3    H273038   0.450   4.028  13.423  0.1266  3.5061 -3.6801
17183TIP3   OH273039   1.034   3.764   0.510  0.5101  0.1891  0.7689
17183TIP3    H173040   1.108   3.798   0.459  0.0975 -0.6200 -0.4268
17183TIP3    H273041   1.065   3.681   0.545  1.0151  1.0443  2.4486
17184TIP3   OH273042   5.230   5.026  12.205  0.3619 -0.1150  1.0927
17184TIP3    H173043   5.253   5.100  12.260 -0.4354  0.2797  0.9077
17184TIP3    H273044   5.232   4.951  12.264 -1.3884  0.4261  1.8966
17185TIP3   OH273045   3.663   5.574  11.232  0.5011  0.0288  0.3223
17185TIP3    H173046   3.646   5.485  11.264  1.2684 -0.1164  0.3269
17185TIP3    H273047   3.749   5.597  11.267  1.3274 -0.0978 -1.5248
17186TIP3   OH273048   1.086   4.350   1.779 -0.4106 -0.0174 -0.3183
17186TIP3    H173049   1.007   4.394   1.748 -1.0597  0.0182  1.2693
17186TIP3    H273050   1.100   4.279   1.717 -0.9483  0.7566 -1.3463
17187TIP3   OH273051   6.378   0.436   3.155 -0.0344 -0.4743  0.2187
17187TIP3    H173052   6.458   0.384   3.151  0.4266  0.2859 -1.0427
17187TIP3    H273053   6.398   0.515   3.104 -0.8226  0.7864  1.7513
17188TIP3   OH273054   2.806   0.457   5.221  0.5366  0.5828  0.4173
17188TIP3    H173055   2.878   0.516   5.244  1.0845  0.4697 -0.8825
17188TIP3    H273056   2.727   0.507   5.238  0.8833  0.5120  2.4316
17189TIP3   OH273057   6.676   5.212   1.879 -0.0032  0.1549  0.5861
17189TIP3    H173058   6.740   5.279   1.905  0.6762 -0.0942 -0.3802
17189TIP3    H273059   6.725   5.130   1.881  0.4424  0.2227 -2.3689
17190TIP3   OH273060   0.009   2.210  14.929  0.3896  0.0354 -0.0054
17190TIP3    H173061  -0.002   2.165  15.013  0.1657 -0.4680 -0.3021
17190TIP3    H273062  -0.078   2.210  14.890  0.4247  0.5678 -0.0921
17191TIP3   OH273063   3.001   1.761   1.952  0.0134  0.3697  0.1258
17191TIP3    H173064   2.971   1.677   1.987  0.4496  1.0253  2.2216
17191TIP3    H273065   2.961   1.826   2.009 -0.2519  1.6211 -1.4166
17192TIP3   OH273066   2.049   6.774  11.706 -0.1169  0.1849 -0.0269
17192TIP3    H173067   2.026   6.681  11.717 -1.9515  0.5024 -0.7884
17192TIP3    H273068   2.098   6.795  11.785 -0.4021 -1.2288  0.5710
17193TIP3   OH273069   0.096   2.098   5.099  0.2423 -0.1931 -0.0352
17193TIP3    H173070   0.099   2.005   5.076  0.1949 -0.1126 -0.3734
17193TIP3    H273071   0.028   2.134   5.041 -2.0206 -0.5571  2.2228
17194TIP3   OH273072   6.159   3.979  11.212  0.6336  0.2535  0.4227
17194TIP3    H173073   6.187   3.996  11.122 -0.7367  0.4295  0.0062
17194TIP3    H273074   6.150   3.884  11.218  0.8786  0.2298  0.4324
17195TIP3   OH273075   4.312   3.098   3.312  0.2531 -0.2230 -0.2438
17195TIP3    H173076   4.299   3.158   3.385  0.0005  0.0673 -0.5236
17195TIP3    H273077   4.323   3.155   3.236 -1.7151 -0.5133 -0.8055
17196TIP3   OH273078   3.494   4.377  11.279  0.5779  0.4391  0.3711
17196TIP3    H173079   3.433   4.305  11.266  0.7702  0.2978  0.2360
17196TIP3    H273080   3.513   4.409  11.190 -1.3353  2.2169  0.5355
17197TIP3   OH273081   3.992   0.648  13.544  0.0730  0.3893  0.0716
17197TIP3    H173082   4.017   0.698  13.623 -1.0194 -0.1826  0.8002
17197TIP3    H273083   3.937   0.708  13.494  0.2472  0.5328  0.0496
17198TIP3   OH273084   3.112   6.004  13.566  0.4368 -0.6003  1.0827
17198TIP3    H173085   3.108   6.015  13.471  0.3626 -0.1357  1.1409
17198TIP3    H273086   3.020   6.007  13.594  0.5131  0.1746  1.2713
17199TIP3   OH273087   4.890   1.422   4.280 -0.1559  0.2100  0.4917
17199TIP3    H173088   4.830   1.425   4.354 -0.7161  2.0951  0.0021
17199TIP3    H273089   4.834   1.409   4.204  0.4012 -1.5465  0.3427
17200TIP3   OH273090   4.016   3.473   0.714 -0.0834  0.4438 -0.9950
17200TIP3    H173091   4.020   3.401   0.652 -1.7305 -0.3097 -0.2904
17200TIP3    H273092   3.927   3.507   0.706 -0.3562  0.3162  0.9102
17201TIP3   OH273093   4.055   1.297   4.611  0.1042  0.1651  0.3046
17201TIP3    H173094   4.064   1.202   4.620  0.6620  0.1779 -0.0928
17201TIP3    H273095   4.113   1.333   4.679  0.3416  0.2202  0.0772
17202TIP3   OH273096   4.352   4.368  11.537 -0.2656 -0.5314 -0.8598
17202TIP3    H173097   4.327   4.278  11.557  0.6287 -0.5851  0.0930
17202TIP3    H273098   4.342   4.415  11.620  0.7219 -0.0968 -0.9693
17203TIP3   OH273099   0.826   6.502   5.705  0.2093 -0.4091  0.4747
17203TIP3    H173100   0.808   6.592   5.733  2.1216  0.2251 -0.2231
17203TIP3    H273101   0.739   6.460   5.703 -1.0541  2.0580 -1.3917
17204TIP3   OH273102   5.777   5.788   1.557  0.1016 -1.1630 -0.1940
17204TIP3    H173103   5.833   5.735   1.615 -0.5047 -0.9436  0.6095
17204TIP3    H273104   5.825   5.870   1.546  0.1666 -1.1575  0.1105
17205TIP3   OH273105   0.552   2.790  12.958 -0.3456  0.0326  0.4066
17205TIP3    H173106   0.538   2.759  13.048  0.0506 -1.2894  0.0338
17205TIP3    H273107   0.615   2.728  12.921 -0.7863  0.3415 -0.9003
17206TIP3   OH273108   3.514   6.116  15.431  0.2775  0.3675 -0.0770
17206TIP3    H173109   3.418   6.113  15.430  0.2996 -0.3815 -1.0157
17206TIP3    H273110   3.539   6.105  15.340  1.2534  1.4378  0.0335
17207TIP3   OH273111   0.377   1.442  10.730  0.3637 -0.0776  0.1683
17207TIP3    H173112   0.389   1.418  10.638  2.5781  1.2685  0.0277
17207TIP3    H273113   0.284   1.465  10.737 -0.3294 -2.1409 -1.1903
17208TIP3   OH273114   2.000   1.556  14.227 -0.3677  0.4510  0.6654
17208TIP3    H173115   1.970   1.587  14.142 -0.6127 -0.2030  0.5074
17208TIP3    H273116   2.055   1.627  14.261 -2.0435  1.6813  0.9428
17209TIP3   OH273117   4.779   6.699  16.752  0.2845  0.1897 -0.1299
17209TIP3    H173118   4.824   6.679  16.671 -0.3025  1.8048 -0.9055
17209TIP3    H273119   4.822   6.778  16.784 -0.5719  0.5221  0.2388
17210TIP3   OH273120   3.378   2.948  14.905 -0.1860  0.2322 -0.4199
17210TIP3    H173121   3.332   3.021  14.864 -1.7552 -0.8864 -0.7341
17210TIP3    H273122   3.422   2.903  14.832  0.0652  0.3523 -0.3455
17211TIP3   OH273123   1.823   2.510  10.969  1.0987  0.2666 -0.2700
17211TIP3    H173124   1.841   2.559  11.049  0.3303  2.4262 -1.3625
17211TIP3    H273125   1.765   2.566  10.918 -0.8733 -2.2986 -1.1000
17212TIP3   OH273126   4.675   2.400  11.176 -0.1375 -0.0862  0.0443
17212TIP3    H173127   4.731   2.328  11.204  0.3690  0.0157 -0.6989
17212TIP3    H273128   4.730   2.453  11.119 -1.1930 -0.3825 -1.2929
17213TIP3   OH273129   1.361   6.619  16.813  0.2044  0.5070 -0.3061
17213TIP3    H173130   1.428   6.651  16.873  1.5488 -0.7157 -1.0969
17213TIP3    H273131   1.345   6.528  16.839 -1.3572  0.8317  0.0132
17214TIP3   OH273132   4.186   5.703   2.549  0.1931 -0.3802  0.0667
17214TIP3    H173133   4.218   5.625   2.505 -0.9227 -0.0958 -1.3210
17214TIP3    H273134   4.102   5.677   2.587 -0.0480  0.0512 -0.1560
17215TIP3   OH273135   2.745   4.956  12.490 -0.3435  0.1259 -0.3772
17215TIP3    H173136   2.797   4.910  12.556  0.1544  0.5041 -0.5030
17215TIP3    H273137   2.678   4.892  12.464  0.7390 -0.7798 -1.0336
17216TIP3   OH273138   0.609   4.706  17.100 -0.4732  0.3139  0.2329
17216TIP3    H173139   0.527   4.755  17.111 -0.6877 -0.0479  0.2433
17216TIP3    H273140   0.659   4.725  17.181 -0.4946  0.6211  0.1773
17217TIP3   OH273141   2.625   5.572   5.165  0.1061  0.3744  0.3143
17217TIP3    H173142   2.657   5.659   5.191  1.7947 -0.0791 -0.1124
17217TIP3    H273143   2.539   5.566   5.204 -0.3811  2.5444 -0.2545
17218TIP3   OH273144   0.191   3.751  15.101  0.5403 -0.7900 -0.3160
17218TIP3    H173145   0.243   3.779  15.177 -1.0724  1.1488  0.1448
17218TIP3    H273146   0.133   3.683  15.136 -1.9499  1.7824  0.9610
17219TIP3   OH273147   0.019   5.926  13.970  0.4238  0.5025 -0.2399
17219TIP3    H173148   0.008   6.020  13.957  1.0355  0.4960 -0.9006
17219TIP3    H273149   0.107   5.917  14.006  0.8568  0.1069 -1.3484
17220TIP3   OH273150   2.108   4.000  11.792 -0.1446  0.4063 -0.1238
17220TIP3    H173151   2.082   3.988  11.700  0.3520 -0.5420 -0.1455
17220TIP3    H273152   2.030   4.036  11.834 -0.5763  0.2597 -0.7824
17221TIP3   OH273153   0.925   2.974  17.186 -0.3519  0.4052  0.4324
17221TIP3    H173154   0.943   3.028  17.109 -1.1366  1.5956  1.0363
17221TIP3    H273155   1.006   2.926  17.202  0.0661  0.7051 -0.6809
17222TIP3   OH273156   1.720   0.756  11.507  0.1263 -0.5125  0.1247
17222TIP3    H173157   1.810   0.735  11.531  0.2461 -1.6531 -1.1891
17222TIP3    H273158   1.669   0.739  11.586  0.8737 -1.2247  0.4656
17223TIP3   OH273159   2.237   4.790  15.046  0.3929  0.5968 -0.2655
17223TIP3    H173160   2.319   4.758  15.083 -0.9873 -1.6555  1.1080
17223TIP3    H273161   2.229   4.879  15.079  1.6784  0.4119  0.6180
17224TIP3   OH273162   1.552   1.029  14.297 -0.0778  0.1560 -0.0994
17224TIP3    H173163   1.608   1.079  14.239 -0.7542  3.3341  1.7615
17224TIP3    H273164   1.476   1.085  14.312  0.3559 -0.0439  4.2803
17225TIP3   OH273165   4.841   4.181   0.824 -0.7097 -0.1908  0.5540
17225TIP3    H173166   4.929   4.151   0.847 -1.1893 -1.3132  1.0251
17225TIP3    H273167   4.805   4.111   0.770 -1.1842  0.4269  0.0580
17226TIP3   OH273168   6.367   4.682   2.885 -0.3385  0.4913  0.0150
17226TIP3    H173169   6.301   4.737   2.844 -0.2319  1.0078  0.5247
17226TIP3    H273170   6.318   4.614   2.930 -0.4764  0.2524 -0.4923
17227TIP3   OH273171   1.315   0.697  15.099  0.2116 -0.1632  0.2532
17227TIP3    H173172   1.228   0.659  15.112  0.5378 -1.2663 -0.6471
17227TIP3    H273173   1.301   0.768  15.037 -0.2339  0.5202  1.1106
17228TIP3   OH273174   2.646   1.567   2.436  0.1370 -0.1051  0.7089
17228TIP3    H173175   2.723   1.549   2.490 -0.1752 -1.4404  0.7625
17228TIP3    H273176   2.681   1.594   2.352  0.6540  0.1266  0.9937
17229TIP3   OH273177   1.332   3.200  14.372 -0.1896  0.1876  0.9472
17229TIP3    H173178   1.365   3.211  14.283 -1.6751 -0.3195  0.2990
17229TIP3    H273179   1.390   3.254  14.426  1.2958 -0.2204 -0.1881
17230TIP3   OH273180   3.565   3.169   5.263  0.4112  0.2484 -0.4878
17230TIP3    H173181   3.582   3.262   5.244  0.2898  0.1887 -0.9056
17230TIP3    H273182   3.485   3.170   5.315  0.0164  0.3400 -1.0809
17231TIP3   OH273183   1.957   0.719  12.958 -0.5889 -0.5168 -0.3976
17231TIP3    H173184   1.921   0.680  12.878  0.2258 -0.5117 -0.7798
17231TIP3    H273185   2.001   0.646  13.002 -0.5872 -0.4083 -0.2201
17232TIP3   OH273186   1.902   0.163   1.975 -0.1685 -0.4395 -0.2765
17232TIP3    H173187   1.909   0.205   2.061  2.4200 -0.2259 -0.5111
17232TIP3    H273188   1.840   0.092   1.988 -0.7358  0.3079  1.4553
17233TIP3   OH273189   3.011   0.132   2.696  0.5339 -0.0539  0.5292
17233TIP3    H173190   2.931   0.081   2.681  0.3309 -0.0954  1.6874
17233TIP3    H273191   3.080   0.067   2.705  0.9359  0.0069 -1.5856
17234TIP3   OH273192   4.780   6.107   6.124  0.0966 -0.0932  0.6561
17234TIP3    H173193   4.780   6.177   6.190 -0.9271  0.1693  0.3918
17234TIP3    H273194   4.864   6.115   6.080 -0.3478  1.5287  0.0606
17235TIP3   OH273195   4.856   5.367  14.391  0.0744  0.2563 -0.1949
17235TIP3    H173196   4.818   5.455  14.390 -2.4765 -0.7662 -1.0735
17235TIP3    H273197   4.841   5.334  14.303 -1.1070 -1.8453  0.7290
17236TIP3   OH273198   5.680   6.593  14.829  0.0107 -0.0734  0.5430
17236TIP3    H173199   5.711   6.595  14.919 -0.3588 -1.5959  0.7283
17236TIP3    H273200   5.698   6.681  14.795  1.5862  0.0461  1.6111
17237TIP3   OH273201   2.862   4.567   0.619  0.0147  0.1329 -0.2013
17237TIP3    H173202   2.846   4.480   0.583  0.0102 -0.5911  1.4609
17237TIP3    H273203   2.786   4.618   0.593 -0.2357 -0.5039 -0.7515
17238TIP3   OH273204   3.316   2.044  15.060  0.1350 -0.4563 -0.2838
17238TIP3    H173205   3.338   2.135  15.082  0.9162 -0.7825  0.3781
17238TIP3    H273206   3.239   2.050  15.004 -0.5129  0.5592  0.6778
17239TIP3   OH273207   4.855   3.585  15.805 -0.1351 -0.2001 -0.1736
17239TIP3    H173208   4.841   3.672  15.768 -0.1121 -1.0262 -2.2522
17239TIP3    H273209   4.928   3.549  15.755 -1.2271 -2.0424 -0.5012
17240TIP3   OH273210   0.437   3.045   3.934  0.3094 -1.1584 -0.6968
17240TIP3    H173211   0.395   3.016   4.016 -0.2050 -1.1822 -0.9604
17240TIP3    H273212   0.487   2.969   3.904 -1.5484 -2.0571 -1.7235
17241TIP3   OH273213   3.720   5.326  15.217 -0.5271  0.3323  0.5872
17241TIP3    H173214   3.806   5.289  15.239  1.0831  2.7002 -1.2311
17241TIP3    H273215   3.674   5.331  15.301  0.7149 -1.7774  1.4971
17242TIP3   OH273216   4.206   5.559   0.555  0.4062 -0.1323  0.3242
17242TIP3    H173217   4.153   5.481   0.537  0.1586 -0.0029  0.4893
17242TIP3    H273218   4.201   5.611   0.475  0.2766 -0.1151  0.3443
17243TIP3   OH273219   1.175   2.817  13.523  0.9938  0.1025 -0.1219
17243TIP3    H173220   1.171   2.912  13.517  0.6199  0.0623 -0.4872
17243TIP3    H273221   1.102   2.793  13.581  2.1539  0.1693  1.4504
17244TIP3   OH273222   3.983   3.402  11.321 -0.3818  0.4999 -0.5595
17244TIP3    H173223   3.978   3.497  11.316 -0.6640  0.4468 -1.8500
17244TIP3    H273224   4.025   3.376  11.239  1.0365 -0.4183  0.4200
17245TIP3   OH273225   3.732   0.682   5.016  0.7354 -0.1201 -0.3827
17245TIP3    H173226   3.735   0.731   5.099  1.1996  0.8221 -0.9418
17245TIP3    H273227   3.639   0.678   4.995  0.6238 -0.2370  0.1047
17246TIP3   OH273228   3.306   1.537  13.352 -0.3330  0.6892  0.1083
17246TIP3    H173229   3.373   1.491  13.403 -0.4118  1.1090  0.5973
17246TIP3    H273230   3.356   1.589  13.289 -0.2039  0.7737  0.2778
17247TIP3   OH273231   3.017   3.916   6.390 -0.3188 -0.1526  0.1916
17247TIP3    H173232   2.963   3.840   6.369  1.7860 -1.4071 -0.9501
17247TIP3    H273233   3.106   3.883   6.392  0.5442  2.0225  1.1473
17248TIP3   OH273234   3.213   5.182   3.418  0.0952 -0.0821 -0.2988
17248TIP3    H173235   3.286   5.206   3.361 -0.7942 -0.3127 -1.5883
17248TIP3    H273236   3.220   5.087   3.428 -0.4779 -0.2243 -1.1143
17249TIP3   OH273237   5.703   6.468  11.635 -0.0188  0.3072 -0.5508
17249TIP3    H173238   5.765   6.453  11.707  0.3077  0.7490 -0.7310
17249TIP3    H273239   5.618   6.444  11.671  0.2083  0.0477 -0.1772
17250TIP3   OH273240   0.411   1.939  13.237  0.6015 -0.4530 -0.0439
17250TIP3    H173241   0.497   1.952  13.278  0.6168  0.4435 -0.3513
17250TIP3    H273242   0.348   1.964  13.305  0.5241 -2.3009  0.6244
17251TIP3   OH273243   5.529   6.358   0.842 -0.0659 -0.1715  0.3908
17251TIP3    H173244   5.592   6.396   0.903  1.8661 -1.3476 -0.7359
17251TIP3    H273245   5.529   6.265   0.862 -0.5564 -0.3493 -0.3913
17252TIP3   OH273246   5.558   4.721  13.673  0.4765 -0.0811 -0.2083
17252TIP3    H173247   5.505   4.767  13.738  0.2814  2.2102 -1.8510
17252TIP3    H273248   5.649   4.743  13.696  0.3460  2.5870 -1.8482
17253TIP3   OH273249   4.225   2.750  15.920  0.2215  0.3558  0.0031
17253TIP3    H173250   4.142   2.795  15.934  0.7222  0.8742  1.5623
17253TIP3    H273251   4.283   2.817  15.884  0.3701  0.3949  0.3115
17254TIP3   OH273252   4.215   4.648   3.288 -0.2252 -0.5286 -0.0323
17254TIP3    H173253   4.172   4.685   3.365 -0.0547  1.3721 -0.8081
17254TIP3    H273254   4.160   4.573   3.264 -2.9847  1.5486 -0.7419
17255TIP3   OH273255   6.813   2.004   2.544  0.2001 -0.2167 -0.1244
17255TIP3    H173256   6.752   2.023   2.473 -0.6238  1.0261  0.8464
17255TIP3    H273257   6.844   2.091   2.572 -0.9092 -0.4747  2.1683
17256TIP3   OH273258   2.166   2.706   2.472  0.2402 -0.0306 -0.3845
17256TIP3    H173259   2.114   2.689   2.551 -0.7886 -3.0046 -1.5789
17256TIP3    H273260   2.105   2.745   2.410  0.0402 -1.2126 -0.9507
17257TIP3   OH273261   3.897   1.418   1.391  0.1806 -0.0232 -0.2084
17257TIP3    H173262   3.825   1.354   1.387 -0.4621  0.7204 -1.2147
17257TIP3    H273263   3.888   1.459   1.477 -0.0440 -0.5780  0.0346
17258TIP3   OH273264   4.846   4.938   2.925 -0.0028 -0.7771  0.4551
17258TIP3    H173265   4.809   5.026   2.932  1.1312 -0.2888  0.6174
17258TIP3    H273266   4.856   4.923   2.831 -0.0204 -0.6586  0.4347
17259TIP3   OH273267   0.153   2.342  10.794  0.2658  0.0543  0.5286
17259TIP3    H173268   0.073   2.393  10.786  0.0323 -0.2575  0.8345
17259TIP3    H273269   0.223   2.400  10.764 -0.0259  0.4721  0.6606
17260TIP3   OH273270   6.778   5.256  15.179  0.5410  0.3443 -0.9763
17260TIP3    H173271   6.703   5.198  15.168 -1.8094  2.7402  1.0694
17260TIP3    H273272   6.847   5.199  15.214 -0.3716 -1.8723 -2.5655
17261TIP3   OH273273   3.266   2.628  16.375 -0.0851  0.1891 -0.1305
17261TIP3    H173274   3.319   2.555  16.344 -1.0473  0.5856 -3.0773
17261TIP3    H273275   3.178   2.593  16.380 -0.3067  0.7455 -0.0766
17262TIP3   OH273276   3.255   5.730  12.271  0.4312 -0.2832  0.1609
17262TIP3    H173277   3.251   5.663  12.203  1.7844  0.0721 -0.3127
17262TIP3    H273278   3.297   5.805  12.228  0.3156  0.3340  1.0894
17263TIP3   OH273279   2.983   1.066   2.443 -0.0094  0.3012  0.3082
17263TIP3    H173280   2.892   1.035   2.452  0.5756 -1.0614  2.3721
17263TIP3    H273281   3.002   1.108   2.527  1.4368  0.0811  0.1078
17264TIP3   OH273282   5.718   2.069   1.887 -0.2198  0.0081  0.2805
17264TIP3    H173283   5.759   2.069   1.801  1.1245  0.1341  0.8804
17264TIP3    H273284   5.781   2.023   1.943 -1.7275 -1.3533  0.9104
17265TIP3   OH273285   6.251   4.993  15.624  0.3043  0.4507 -0.2215
17265TIP3    H173286   6.241   4.931  15.696  0.9658  2.5212  1.7478
17265TIP3    H273287   6.227   4.942  15.546 -2.1139 -1.4159  1.5720
17266TIP3   OH273288   3.244   0.028  16.963  0.5224 -0.0447  0.0683
17266TIP3    H173289   3.198  -0.051  16.933  2.6977 -1.8372  1.2019
17266TIP3    H273290   3.277   0.068  16.883 -1.9558  0.6797 -0.6727
17267TIP3   OH273291   5.134   5.577  11.166  1.0525  0.1674  0.1724
17267TIP3    H173292   5.143   5.507  11.101  0.2273  0.8683 -0.7340
17267TIP3    H273293   5.177   5.543  11.244  0.8040 -1.2898 -0.2901
17268TIP3   OH273294   1.881   5.335  11.134  0.1749 -0.0492 -0.4188
17268TIP3    H173295   1.823   5.290  11.072 -1.3298  0.4604  0.5710
17268TIP3    H273296   1.862   5.296  11.219  1.1586  0.2676 -0.0318
17269TIP3   OH273297   3.517   1.742  16.538  0.4585 -0.2748  0.2206
17269TIP3    H173298   3.508   1.771  16.447  1.3381  1.2151  0.5716
17269TIP3    H273299   3.499   1.648  16.536 -1.9246  0.1437 -1.0922
17270TIP3   OH273300   6.394   1.569   0.351  0.1098 -0.1038 -0.3586
17270TIP3    H173301   6.412   1.507   0.421  1.2738 -0.9956 -1.3910
17270TIP3    H273302   6.300   1.563   0.336  0.0975 -1.0871  0.0467
17271TIP3   OH273303   5.248   0.247   3.779  0.3787 -0.0859  0.1202
17271TIP3    H173304   5.297   0.247   3.697 -0.7931 -2.8164 -0.6889
17271TIP3    H273305   5.312   0.275   3.845  1.9310  0.1243 -1.4098
17272TIP3   OH273306   1.784   4.379   0.902  0.0716 -0.0439  0.5167
17272TIP3    H173307   1.715   4.444   0.917  0.4732  0.3035  0.8947
17272TIP3    H273308   1.802   4.385   0.808  2.5795  3.0094  0.9986
17273TIP3   OH273309   3.525   2.762   5.064 -0.0780  0.3655 -0.1604
17273TIP3    H173310   3.507   2.838   5.009  0.7095  0.7409  0.0869
17273TIP3    H273311   3.577   2.796   5.137 -0.9860 -0.1558  0.7505
17274TIP3   OH273312   3.097   6.138   5.906  0.2169  0.2251  0.0416
17274TIP3    H173313   3.154   6.091   5.967  0.4853 -0.2853 -0.5969
17274TIP3    H273314   3.113   6.231   5.926 -0.1136  0.0657  1.1155
17275TIP3   OH273315   0.477   4.779  16.322 -0.4716 -0.0819 -0.2337
17275TIP3    H173316   0.413   4.708  16.325 -1.2114  0.5826  0.2556
17275TIP3    H273317   0.544   4.754  16.385 -2.2426  1.0130  2.2488
17276TIP3   OH273318   1.399   3.189   4.628  0.0975 -0.2188  0.1874
17276TIP3    H173319   1.403   3.179   4.723  1.8031 -0.9694  0.0783
17276TIP3    H273320   1.490   3.203   4.602 -0.3187 -0.2497 -1.3590
17277TIP3   OH273321   0.367   3.801   4.016  0.1982  0.0784  0.4412
17277TIP3    H173322   0.383   3.895   4.007 -0.2627  0.2147  0.9615
17277TIP3    H273323   0.277   3.789   3.986  0.0525 -0.0975  0.9314
17278TIP3   OH273324   3.682   3.928   1.972 -0.0792 -0.0011 -0.7040
17278TIP3    H173325   3.594   3.949   1.939 -0.6129  1.1905  1.3198
17278TIP3    H273326   3.736   4.002   1.945 -0.2958  0.4943  0.1739
17279TIP3   OH273327   3.603   4.534   6.448 -0.4047 -0.1086  0.0786
17279TIP3    H173328   3.642   4.510   6.532 -1.0479 -0.2461  0.3413
17279TIP3    H273329   3.661   4.496   6.382 -0.3646 -0.7357  0.4698
17280TIP3   OH273330   4.520   4.869   0.192 -0.3332  0.3195  0.1307
17280TIP3    H173331   4.561   4.810   0.256  0.0262 -1.2572 -1.4559
17280TIP3    H273332   4.433   4.886   0.227 -0.0818 -0.3738  1.1297
17281TIP3   OH273333   0.664   6.083  13.370 -0.3045 -0.3358 -0.1806
17281TIP3    H173334   0.657   6.002  13.318  0.2133 -1.4027  1.3576
17281TIP3    H273335   0.627   6.151  13.312  0.0912 -1.4832 -1.8717
17282TIP3   OH273336   3.446   6.169   3.281  0.4675 -0.1759 -0.2411
17282TIP3    H173337   3.475   6.217   3.204  0.2105  0.2078 -0.1051
17282TIP3    H273338   3.362   6.131   3.256  0.9328 -1.0405 -0.5377
17283TIP3   OH273339   6.460   5.769  11.495 -0.4686  0.0061  0.0387
17283TIP3    H173340   6.508   5.740  11.418  0.5877  0.7375  0.3932
17283TIP3    H273341   6.447   5.863  11.481 -0.2654  0.1482  0.7363
17284TIP3   OH273342   2.942   4.260  15.036 -0.3311 -0.0793 -0.2465
17284TIP3    H173343   2.990   4.220  15.108 -1.3113  1.2095  1.2022
17284TIP3    H273344   2.992   4.238  14.958  1.9010  0.1509  1.0420
17285TIP3   OH273345   3.490   6.327  11.283 -0.6547 -0.3162 -0.5846
17285TIP3    H173346   3.477   6.254  11.222  0.7362 -1.3558  0.3080
17285TIP3    H273347   3.577   6.360  11.261 -1.1521  0.9114 -0.7752
17286TIP3   OH273348   3.822   2.500  11.523 -0.6503  0.1598 -0.0776
17286TIP3    H173349   3.830   2.473  11.432  2.5623 -0.7580  0.3315
17286TIP3    H273350   3.900   2.554  11.539 -2.5501  2.6459  1.4324
17287TIP3   OH273351   5.399   3.173   3.902  0.3525 -0.7016  0.0811
17287TIP3    H173352   5.436   3.256   3.932  1.0288 -1.5165  1.5946
17287TIP3    H273353   5.460   3.142   3.835  0.0073  0.0837 -0.6104
17288TIP3   OH273354   4.468   6.526   3.879  0.0959  0.7630  0.7369
17288TIP3    H173355   4.498   6.485   3.799 -1.4818  0.0185  0.4922
17288TIP3    H273356   4.444   6.615   3.853  1.1440  1.0610  0.7489
17289TIP3   OH273357   4.570   5.746   3.444 -0.2902  0.2989  0.7828
17289TIP3    H173358   4.532   5.766   3.530 -0.3159  1.0433  0.6096
17289TIP3    H273359   4.567   5.651   3.437  0.3641  0.1857  1.9079
17290TIP3   OH273360   6.237   1.983  13.780 -1.2011  0.6328  0.1022
17290TIP3    H173361   6.316   1.990  13.726 -0.7660 -1.3890  0.4263
17290TIP3    H273362   6.167   2.011  13.722 -0.5831 -0.2352 -1.1157
17291TIP3   OH273363   1.315   0.261   0.814 -0.5719  0.1140 -0.0102
17291TIP3    H173364   1.358   0.185   0.775 -1.3241  1.1661 -3.1877
17291TIP3    H273365   1.385   0.325   0.826 -0.4673  0.0930 -0.5071
17292TIP3   OH273366   5.009   2.989   4.731 -0.1757 -0.2937  0.7332
17292TIP3    H173367   5.102   2.979   4.712 -0.2631  0.3381 -0.1429
17292TIP3    H273368   5.006   3.043   4.810  0.2136  0.8172  0.0161
17293TIP3   OH273369   0.003   4.756   4.119 -0.6990 -0.8491 -0.0796
17293TIP3    H173370  -0.084   4.717   4.115 -1.1853  0.2715 -1.2266
17293TIP3    H273371   0.033   4.758   4.029 -0.4373  0.7877 -0.0013
17294TIP3   OH273372   4.743   3.421  14.959 -0.4677 -0.1775 -0.7724
17294TIP3    H173373   4.651   3.418  14.984 -0.5322 -2.2919 -1.0505
17294TIP3    H273374   4.743   3.403  14.865  0.2317 -0.6463 -0.6927
17295TIP3   OH273375   0.890   1.145   0.137  0.2721 -0.2358 -0.2342
17295TIP3    H173376   0.981   1.152   0.165 -0.2895  0.1592  1.6170
17295TIP3    H273377   0.863   1.235   0.120 -0.2522 -0.1656  0.8984
17296TIP3   OH273378   1.863   6.488  15.626 -0.3482  0.1984  0.3647
17296TIP3    H173379   1.838   6.565  15.677 -0.0503 -0.3064  1.3114
17296TIP3    H273380   1.947   6.461  15.664  1.1005  1.1552 -1.9475
17297TIP3   OH273381   5.110   5.621  11.638 -0.7044 -0.1904  0.1557
17297TIP3    H173382   5.200   5.650  11.622 -0.8324  0.9625  1.3487
17297TIP3    H273383   5.064   5.701  11.665 -1.9987 -0.8343 -0.0930
17298TIP3   OH273384   6.681   0.145   0.740 -0.0513  0.0531 -0.2577
17298TIP3    H173385   6.650   0.155   0.650 -0.7423 -1.2915 -0.2064
17298TIP3    H273386   6.743   0.071   0.736  1.5108  1.2994  0.0304
17299TIP3   OH273387   3.330   0.245  14.078 -0.2166 -0.6217 -0.0200
17299TIP3    H173388   3.323   0.190  14.000 -2.5522 -0.5770  0.0760
17299TIP3    H273389   3.349   0.184  14.149  1.0894 -0.7642 -0.4589
17300TIP3   OH273390   1.366   1.342  17.271  0.2579  0.0412 -0.0398
17300TIP3    H173391   1.456   1.309  17.272  0.3761  0.2953 -1.1110
17300TIP3    H273392   1.360   1.397  17.350  1.3875  0.9057 -0.5259
17301TIP3   OH273393   5.119   3.238  11.798  0.4569 -0.2412  0.2317
17301TIP3    H173394   5.137   3.155  11.840 -0.3091 -0.4178  0.2274
17301TIP3    H273395   5.201   3.287  11.804  0.1239  0.1167  2.7556
17302TIP3   OH273396   4.440   1.472   3.795  0.1301 -0.3931  0.0850
17302TIP3    H173397   4.362   1.423   3.820 -0.6212  0.8825  0.3613
17302TIP3    H273398   4.472   1.510   3.877 -1.1835  2.1561 -0.4477
17303TIP3   OH273399   2.393   1.226   3.586 -0.0120 -0.0157  0.9467
17303TIP3    H173400   2.369   1.174   3.663 -1.5961  0.7633  1.0224
17303TIP3    H273401   2.418   1.311   3.622  1.4910 -0.3398  0.7383
17304TIP3   OH273402   2.067   0.344   1.206  0.9281 -0.0443 -0.1188
17304TIP3    H173403   2.103   0.342   1.118  1.7741 -0.7007  0.2267
17304TIP3    H273404   1.978   0.310   1.197  1.1347 -0.4460 -0.6643
17305TIP3   OH273405   0.276   6.283  16.710 -0.3887 -0.6301 -0.7177
17305TIP3    H173406   0.361   6.251  16.678  0.3930  0.2545  0.4111
17305TIP3    H273407   0.277   6.265  16.804 -0.5120  1.3644 -0.2954
17306TIP3   OH273408   1.465   4.512  13.175  0.8871  0.4199 -0.7699
17306TIP3    H173409   1.412   4.534  13.099 -0.5314  0.9199  0.3151
17306TIP3    H273410   1.467   4.416  13.177 -1.0750  0.3489 -0.1496
17307TIP3   OH273411   5.572   5.297  13.248 -0.1082  0.1042 -0.4411
17307TIP3    H173412   5.594   5.321  13.158  1.3531  1.2421  0.1736
17307TIP3    H273413   5.599   5.205  13.257  0.3982  0.2013 -0.9664
17308TIP3   OH273414   0.193   2.261   1.745 -0.3868  0.5695 -0.5731
17308TIP3    H173415   0.104   2.276   1.776 -1.0995 -1.8785 -1.2588
17308TIP3    H273416   0.237   2.218   1.818 -0.1811  0.5041 -0.7353
17309TIP3   OH273417   5.845   3.153  12.135  0.1060 -0.4912 -0.0037
17309TIP3    H173418   5.834   3.087  12.203  0.8559 -1.2811 -0.6204
17309TIP3    H273419   5.936   3.144  12.108  0.4396  1.3079  0.4017
17310TIP3   OH273420   2.520   1.062  11.491 -0.0220 -0.2380  0.4427
17310TIP3    H173421   2.440   1.056  11.543  0.7076  0.8613  1.7580
17310TIP3    H273422   2.522   1.153  11.461  0.7340 -0.2621  0.4087
17311TIP3   OH273423   4.762   2.154   3.323  0.5628 -0.1697  0.3004
17311TIP3    H173424   4.703   2.176   3.251 -0.7997 -3.0677  0.4106
17311TIP3    H273425   4.847   2.140   3.281  0.7312  1.8600 -0.1540
17312TIP3   OH273426   4.869   1.897   1.990 -0.4127  0.5433  0.2842
17312TIP3    H173427   4.818   1.957   2.044 -1.5208 -0.3879  0.3192
17312TIP3    H273428   4.824   1.897   1.905 -0.1456  0.1300  0.1403
17313TIP3   OH273429   3.587   4.988   1.301 -0.3299  0.2928 -0.4737
17313TIP3    H173430   3.545   4.920   1.247 -0.8242  0.3495 -0.1644
17313TIP3    H273431   3.678   4.959   1.308 -0.7694 -0.9426  0.5947
17314TIP3   OH273432   3.998   6.382   1.315 -0.6929 -0.5924  0.6408
17314TIP3    H173433   4.053   6.304   1.312 -0.2370 -0.4007  2.5812
17314TIP3    H273434   3.921   6.360   1.262  0.1323 -1.7709 -0.1098
17315TIP3   OH273435   5.037   1.852  11.606 -0.4704 -0.3066  0.2906
17315TIP3    H173436   5.004   1.935  11.570  1.4404 -0.3185 -1.7454
17315TIP3    H273437   5.126   1.872  11.635 -0.5562 -1.2982  1.3006
17316TIP3   OH273438   6.531   0.883   3.611 -0.3544  0.3581 -0.0311
17316TIP3    H173439   6.573   0.896   3.526  0.2116  0.7945  0.2997
17316TIP3    H273440   6.451   0.935   3.607  0.7013  2.1396  0.4167
17317TIP3   OH273441   5.242   0.698  12.821  0.4566  0.3246 -0.5036
17317TIP3    H173442   5.336   0.712  12.812  1.2208 -1.1280  3.2457
17317TIP3    H273443   5.226   0.612  12.782  0.9184  0.0890 -0.1802
17318TIP3   OH273444   2.880   2.543  15.356 -0.2172 -0.0859  0.5860
17318TIP3    H173445   2.966   2.576  15.382 -0.1656  0.5951 -0.3991
17318TIP3    H273446   2.871   2.460  15.403  1.3789 -0.6269 -0.0032
17319TIP3   OH273447   5.937   0.308  12.027 -0.1568  0.0622 -0.0809
17319TIP3    H173448   5.859   0.361  12.041 -1.3134 -1.6915  0.4562
17319TIP3    H273449   5.950   0.308  11.932 -0.9440  0.1630 -0.1899
17320TIP3   OH273450   4.381   5.226  12.037  0.3644  0.5464  0.1237
17320TIP3    H173451   4.347   5.170  11.967  1.2089  0.6948 -0.4189
17320TIP3    H273452   4.312   5.291  12.051 -0.4672 -0.3751  0.4972
17321TIP3   OH273453   6.720   4.788  15.571 -0.3905  0.2366 -0.1096
17321TIP3    H173454   6.636   4.753  15.599  0.1994 -1.6498 -0.5437
17321TIP3    H273455   6.707   4.883  15.568 -1.8716  0.1552  1.8167
17322TIP3   OH273456   0.490   2.431  11.159 -0.3228  0.2994 -0.0519
17322TIP3    H173457   0.518   2.382  11.082 -1.1027  0.6847 -0.5848
17322TIP3    H273458   0.545   2.510  11.158  1.5003 -0.8850  1.2505
17323TIP3   OH273459   4.889   2.062  13.153  0.4183 -0.2807 -0.2802
17323TIP3    H173460   4.976   2.024  13.147  0.6793  0.4606 -1.5349
17323TIP3    H273461   4.897   2.148  13.112 -1.1673 -0.7053 -1.5819
17324TIP3   OH273462   1.715   1.547  12.088  0.8968  0.0448 -0.1439
17324TIP3    H173463   1.697   1.462  12.048  3.5655 -0.3981 -0.6379
17324TIP3    H273464   1.704   1.610  12.017  1.2294 -0.1914 -0.4097
17325TIP3   OH273465   0.940   1.718   1.709  0.3358  0.0021 -0.3690
17325TIP3    H173466   0.854   1.746   1.740  1.5167  4.1400 -0.3511
17325TIP3    H273467   0.992   1.709   1.789  0.5736 -0.1696 -0.5426
17326TIP3   OH273468   2.046   0.706   3.641 -0.0243 -0.1093 -0.4111
17326TIP3    H173469   2.025   0.660   3.722 -0.3614  0.5084 -0.1404
17326TIP3    H273470   2.124   0.758   3.662 -1.5897  2.0577  0.3187
17327TIP3   OH273471   3.845   1.586   1.655 -0.2504  0.0843  0.4831
17327TIP3    H173472   3.809   1.659   1.604  0.1202 -0.0990 -0.0434
17327TIP3    H273473   3.791   1.585   1.734 -3.7981 -2.2653 -1.6463
17328TIP3   OH273474   4.697   1.786   0.030 -0.0714 -0.5719 -0.3456
17328TIP3    H173475   4.642   1.751   0.101 -0.8617 -2.2395 -1.7019
17328TIP3    H273476   4.782   1.744   0.043  0.0661 -0.1458  0.1499
17329TIP3   OH273477   1.532   6.272   3.269 -0.3379  0.2767  0.0283
17329TIP3    H173478   1.462   6.213   3.241  1.3864 -1.8212 -0.0571
17329TIP3    H273479   1.576   6.226   3.340  2.5821  0.2853 -1.6340
17330TIP3   OH273480   2.953   0.065  17.035  0.4283 -0.1392 -0.3657
17330TIP3    H173481   2.937  -0.027  17.016 -1.6258  0.2099 -0.4872
17330TIP3    H273482   2.953   0.108  16.950 -0.3592  0.2132 -0.1952
17331TIP3   OH273483   0.979   4.046   5.597  0.5067 -0.3555 -0.4004
17331TIP3    H173484   0.965   3.952   5.604 -1.6736 -0.0039  1.1141
17331TIP3    H273485   0.933   4.072   5.517  1.6623 -0.6077 -1.1819
17332TIP3   OH273486   0.190   3.485   6.748  0.0367  0.0043 -0.2630
17332TIP3    H173487   0.199   3.412   6.688 -0.9277 -0.7331  0.4558
17332TIP3    H273488   0.152   3.556   6.696 -1.1732 -0.7551 -0.4592
17333TIP3   OH273489   0.292   4.343  11.492 -0.3409  0.0032  0.6654
17333TIP3    H173490   0.244   4.406  11.438 -0.6409 -1.0459 -0.3276
17333TIP3    H273491   0.337   4.286  11.429 -1.0720 -1.5408  1.4746
17334TIP3   OH273492   3.604   3.777  12.800  0.0854  0.2393 -0.0874
17334TIP3    H173493   3.539   3.746  12.862  1.0745  0.0880  0.8941
17334TIP3    H273494   3.634   3.861  12.836  0.9056 -0.0078 -0.1602
17335TIP3   OH273495   4.791   2.289  16.885 -0.1969 -0.3240 -0.6515
17335TIP3    H173496   4.809   2.257  16.797 -0.0287  1.8281 -1.4451
17335TIP3    H273497   4.696   2.298  16.889 -0.1965 -0.3253 -0.6414
17336TIP3   OH273498   2.222   1.672   3.479 -0.1217 -0.1037 -0.2462
17336TIP3    H173499   2.275   1.675   3.400  1.3026  0.4243  0.6786
17336TIP3    H273500   2.206   1.578   3.493  1.5907 -0.4027  0.0511
17337TIP3   OH273501   3.733   4.365   6.645 -0.1830 -0.1747 -0.5122
17337TIP3    H173502   3.824   4.392   6.661 -0.2929  0.6019 -1.1048
17337TIP3    H273503   3.740   4.297   6.578  0.1568 -2.3129  1.5579
17338TIP3   OH273504   3.672   5.422  13.086 -0.1854  0.1412  0.3735
17338TIP3    H173505   3.628   5.454  13.164  0.1525 -1.7484  1.3933
17338TIP3    H273506   3.629   5.339  13.066  1.5173 -0.7465  0.2000
17339TIP3   OH273507   2.800   2.195   2.595 -0.1883 -0.3172 -0.3215
17339TIP3    H173508   2.812   2.288   2.577 -0.6309 -0.3305 -0.7108
17339TIP3    H273509   2.778   2.191   2.688 -1.6808  0.1139 -0.6350
17340TIP3   OH273510   3.185   3.984   2.470 -0.4273 -0.5165  0.4941
17340TIP3    H173511   3.216   3.898   2.443  2.0771  1.0059 -1.9136
17340TIP3    H273512   3.116   4.005   2.407  0.5323  0.1257 -0.3674
17341TIP3   OH273513   2.204   1.691   2.194 -0.3180  0.5264  0.3723
17341TIP3    H173514   2.152   1.770   2.184 -0.7976  0.0722 -0.8746
17341TIP3    H273515   2.162   1.643   2.266 -0.8844  0.7336  0.1807
17342TIP3   OH273516   5.410   3.900   0.637 -0.1407  0.1128  0.1166
17342TIP3    H173517   5.366   3.847   0.703  0.2726  2.0993  2.1161
17342TIP3    H273518   5.353   3.897   0.560 -1.0034 -1.6917  0.7855
17343TIP3   OH273519   6.455   5.269  15.537  0.2579  0.2006 -0.5101
17343TIP3    H173520   6.501   5.186  15.550 -0.2532 -0.0948 -0.5883
17343TIP3    H273521   6.426   5.294  15.625 -1.0119 -0.5367 -0.6912
17344TIP3   OH273522   1.941   6.310   0.865  0.1172  0.1998  0.1793
17344TIP3    H173523   1.865   6.262   0.833  0.0242  0.1413  0.4913
17344TIP3    H273524   1.914   6.402   0.861  0.8428  0.3826 -1.9459
17345TIP3   OH273525   2.090   2.281  13.125 -0.3628 -0.5768 -0.0562
17345TIP3    H173526   2.045   2.223  13.063 -0.7068 -1.2393  0.7914
17345TIP3    H273527   2.121   2.354  13.071 -1.4145 -0.6981 -0.8656
17346TIP3   OH273528   2.214   5.838  11.930  0.6798 -0.1388  0.4804
17346TIP3    H173529   2.156   5.914  11.925  0.8594 -0.0743 -1.6312
17346TIP3    H273530   2.167   5.776  11.985 -0.9196  0.3289 -0.2882
17347TIP3   OH273531   2.420   4.877  11.723  0.2166 -0.3524  0.1975
17347TIP3    H173532   2.370   4.888  11.804 -0.4071  0.2858 -0.2693
17347TIP3    H273533   2.423   4.782  11.709  0.2347 -0.4620  0.9072
17348TIP3   OH273534   0.340   4.234   5.364 -0.8032 -0.2324 -0.1082
17348TIP3    H173535   0.306   4.281   5.439 -0.9263  1.7120 -1.3219
17348TIP3    H273536   0.353   4.144   5.395 -1.9342  0.2507  1.8682
17349TIP3   OH273537   6.315   0.932  15.556 -0.6903  0.6397  0.0358
17349TIP3    H173538   6.241   0.963  15.504 -0.5247  0.6390 -0.1969
17349TIP3    H273539   6.385   0.917  15.493 -0.9186 -0.6983  0.0615
17350TIP3   OH273540   0.325   6.188  14.046  0.4118 -0.8498  0.5619
17350TIP3    H173541   0.317   6.174  13.952 -0.7616  1.6826  0.1936
17350TIP3    H273542   0.410   6.151  14.069  1.7736  0.4525 -1.9597
17351TIP3   OH273543   3.763   2.027  14.777  0.6030  0.3087 -0.0210
17351TIP3    H173544   3.703   1.953  14.789 -0.7407  1.4217  0.4286
17351TIP3    H273545   3.739   2.063  14.692  0.0945  1.1977  0.4799
17352TIP3   OH273546   2.684   5.031   3.399  0.6126 -0.1092 -0.1595
17352TIP3    H173547   2.658   5.108   3.347  0.6230  0.4419  0.6219
17352TIP3    H273548   2.741   4.981   3.341 -1.9577 -1.2372 -1.8611
17353TIP3   OH273549   6.575   3.945  14.998  0.0073  0.7153  0.2653
17353TIP3    H173550   6.567   3.867  15.052 -1.1164  2.2596  2.4696
17353TIP3    H273551   6.506   4.004  15.029 -0.0538  2.1139 -2.2040
17354TIP3   OH273552   4.012   5.117  13.356  0.5211  0.4371  0.4925
17354TIP3    H173553   4.005   5.069  13.274 -1.0456  0.1934  0.7208
17354TIP3    H273554   3.949   5.073  13.414  2.3569 -0.0900  2.1895
17355TIP3   OH273555   0.921   4.535   4.643 -0.1157 -0.1699  0.2018
17355TIP3    H173556   1.017   4.530   4.637 -0.0154 -0.3992  1.7401
17355TIP3    H273557   0.890   4.453   4.606  0.2889 -0.1953 -0.0863
17356TIP3   OH273558   5.318   4.942   3.857 -0.2071  0.0079 -0.7166
17356TIP3    H173559   5.401   4.900   3.877  0.2157  1.1126 -0.0225
17356TIP3    H273560   5.261   4.921   3.931  0.4165  1.6534  0.2920
17357TIP3   OH273561   0.835   6.209  14.520  0.3130 -0.3330  0.2634
17357TIP3    H173562   0.764   6.209  14.456 -0.1493  0.7874  0.7558
17357TIP3    H273563   0.847   6.117  14.542 -0.6619 -0.5819 -0.1898
17358TIP3   OH273564   2.500   2.632  14.694 -0.4084  0.7472 -0.5645
17358TIP3    H173565   2.514   2.570  14.767 -0.9700  1.6371  0.3221
17358TIP3    H273566   2.492   2.576  14.617  1.2780 -0.1651 -0.1242
17359TIP3   OH273567   0.242   5.301  14.493  0.5015  0.6723 -0.5575
17359TIP3    H173568   0.245   5.397  14.491 -1.7972  0.7931 -0.4397
17359TIP3    H273569   0.164   5.281  14.545 -0.0350 -1.2495 -2.0035
17360TIP3   OH273570   1.818   2.971  11.227  0.2994  0.2846  0.8769
17360TIP3    H173571   1.763   2.907  11.272 -1.6938 -0.0487 -1.8236
17360TIP3    H273572   1.837   2.932  11.142  2.9003  1.3943  0.8461
17361TIP3   OH273573   2.114   1.971  13.154 -0.1187  0.7187 -0.0621
17361TIP3    H173574   2.193   2.011  13.190  0.8013  0.4147 -1.6223
17361TIP3    H273575   2.066   1.939  13.230  1.6196  0.2666  0.9063
17362TIP3   OH273576   3.777   3.107   2.908 -0.4356  0.4960 -0.1784
17362TIP3    H173577   3.685   3.095   2.886 -0.5960 -0.3642  0.8762
17362TIP3    H273578   3.822   3.103   2.823 -1.2096 -0.8326 -0.5681
17363TIP3   OH273579   4.714   1.329  13.855  0.2801  0.8657 -0.3779
17363TIP3    H173580   4.780   1.365  13.914 -0.6147 -0.6058  1.6650
17363TIP3    H273581   4.634   1.327  13.908 -0.7733  0.2002 -1.9316
17364TIP3   OH273582   2.308   2.229   3.251  0.7733 -0.4375  0.7758
17364TIP3    H173583   2.324   2.306   3.306 -0.1921 -0.3864  1.0077
17364TIP3    H273584   2.252   2.262   3.180  2.2639 -0.4254 -0.4592
17365TIP3   OH273585   1.591   5.735  11.774  0.6612  0.1874  0.0391
17365TIP3    H173586   1.590   5.686  11.856 -1.2728  2.3806  1.4525
17365TIP3    H273587   1.499   5.741  11.748  0.9433  2.0046 -0.6828
17366TIP3   OH273588   6.626   5.414  14.864  0.1682 -0.2501  0.3210
17366TIP3    H173589   6.578   5.340  14.903  0.6548 -0.0188  1.3863
17366TIP3    H273590   6.669   5.457  14.938 -0.3171  1.2728 -0.2390
17367TIP3   OH273591   2.318   4.350  11.908 -0.4155 -0.3147 -0.3345
17367TIP3    H173592   2.298   4.257  11.915 -2.3554  0.0230 -0.6511
17367TIP3    H273593   2.399   4.354  11.858  1.1474 -1.8864  1.8718
17368TIP3   OH273594   2.119   4.168  12.489 -0.1664  0.0150 -0.2094
17368TIP3    H173595   2.059   4.203  12.555 -0.1358 -1.7441  0.8203
17368TIP3    H273596   2.163   4.245  12.453 -0.1514  1.0540  1.8757
17369TIP3   OH273597   4.324   4.217   2.516  0.0607  0.3183  0.3859
17369TIP3    H173598   4.261   4.146   2.525 -0.0654  0.4760  0.8040
17369TIP3    H273599   4.396   4.192   2.573  0.3216  0.1972  0.0018
17370TIP3   OH273600   3.532   2.368   4.438 -0.2959 -0.2825  0.3807
17370TIP3    H173601   3.605   2.399   4.491 -0.6989  0.4964  0.4879
17370TIP3    H273602   3.502   2.288   4.482 -0.0755 -0.1170  0.8333
17371TIP3   OH273603   0.977   1.296  11.515  0.2376  0.1575  0.0574
17371TIP3    H173604   0.925   1.301  11.595  0.1276  0.2483 -0.0187
17371TIP3    H273605   1.040   1.368  11.524 -1.0694  1.4776 -0.8495
17372TIP3   OH273606   0.366   3.827  13.671 -0.2370 -0.4659  0.1710
17372TIP3    H173607   0.289   3.774  13.691  0.9895 -1.5385  2.3955
17372TIP3    H273608   0.440   3.768  13.688  1.1108  0.8469 -0.9235
17373TIP3   OH273609   1.769   1.691  10.754  0.2101  0.1284 -0.1541
17373TIP3    H173610   1.824   1.763  10.722 -0.3744 -0.0380 -1.6072
17373TIP3    H273611   1.727   1.657  10.676 -0.3011 -1.1571  0.6574
17374TIP3   OH273612   2.299   2.355   3.999  0.1128  0.5033  0.0685
17374TIP3    H173613   2.293   2.447   3.976 -0.1683  0.9627  1.8377
17374TIP3    H273614   2.315   2.310   3.916  2.4387  2.3137 -0.5503
17375TIP3   OH273615   1.443   3.253   5.387  0.3107 -0.4679 -0.4079
17375TIP3    H173616   1.478   3.247   5.298  1.2712 -1.9130  0.0291
17375TIP3    H273617   1.521   3.252   5.443 -0.2883  0.2121  0.4678
17376TIP3   OH273618   3.989   5.646  10.794 -0.2268  0.3293  0.3996
17376TIP3    H173619   4.022   5.660  10.705  2.7905 -1.6873  1.0083
17376TIP3    H273620   4.050   5.695  10.850 -0.5678 -0.4031  1.4488
17377TIP3   OH273621   5.679   6.462  15.503 -0.2249 -0.2177  0.2852
17377TIP3    H173622   5.628   6.482  15.425 -0.8502  0.4995  0.8705
17377TIP3    H273623   5.614   6.445  15.571  0.2671  1.8639  1.3490
17378TIP3   OH273624   2.820   3.147   5.963  0.1400 -0.3482  0.2041
17378TIP3    H173625   2.909   3.183   5.964  0.8303 -1.9537  0.9069
17378TIP3    H273626   2.769   3.206   6.019  1.8533 -1.7786  3.5963
17379TIP3   OH273627   6.769   1.108   2.708  0.0379  0.7102  0.6267
17379TIP3    H173628   6.709   1.181   2.699 -1.6536 -0.4733  1.7604
17379TIP3    H273629   6.816   1.125   2.790 -1.1582  0.0008  1.4789
17380TIP3   OH273630   0.005   3.608  15.992 -0.0395  0.1900  0.1121
17380TIP3    H173631  -0.028   3.696  15.974  0.8735  0.3779 -0.7827
17380TIP3    H273632  -0.071   3.551  15.980 -0.7745  0.8878  1.2525
17381TIP3   OH273633   2.534   5.407  11.367 -0.2979 -0.1739 -0.5326
17381TIP3    H173634   2.613   5.372  11.407 -0.0616 -0.2706 -1.0827
17381TIP3    H273635   2.477   5.331  11.354  0.2372 -0.3869 -1.7792
17382TIP3   OH273636   0.307   3.125   0.296 -0.7755 -0.2644  0.3699
17382TIP3    H173637   0.340   3.122   0.385  0.3219 -0.5615 -0.0308
17382TIP3    H273638   0.257   3.045   0.285 -0.5293 -0.4463  0.5802
17383TIP3   OH273639   1.645   1.075   4.488 -0.1620 -0.0474 -0.0587
17383TIP3    H173640   1.643   1.109   4.399  0.2200 -0.3275 -0.1757
17383TIP3    H273641   1.624   0.982   4.479 -1.3649  0.1679  0.2762
17384TIP3   OH273642   6.435   2.673   2.283  0.0626  1.1880  0.2693
17384TIP3    H173643   6.360   2.621   2.254  0.0547  1.6988 -0.6535
17384TIP3    H273644   6.511   2.616   2.269 -0.2079  0.3365  2.0282
17385TIP3   OH273645   0.702   5.657   5.579  0.6195  0.1117 -0.0431
17385TIP3    H173646   0.631   5.707   5.539  0.8141 -0.8455 -1.6439
17385TIP3    H273647   0.659   5.602   5.644  0.2708  1.5305  0.9668
17386TIP3   OH273648   5.700   2.410   2.662  0.1305  0.2442  0.6102
17386TIP3    H173649   5.686   2.368   2.577 -0.2665 -0.1113  0.8514
17386TIP3    H273650   5.615   2.405   2.706 -0.0595  1.7195  0.4591
17387TIP3   OH273651   4.589   4.703  12.787 -0.3343 -0.2117  0.1003
17387TIP3    H173652   4.598   4.659  12.702 -1.1690  0.4884 -0.3699
17387TIP3    H273653   4.575   4.631  12.849  4.8659 -1.2277  0.5287
17388TIP3   OH273654   1.407   3.464   3.406 -0.0226  0.0737 -0.2533
17388TIP3    H173655   1.412   3.493   3.497 -0.6947  1.3377 -0.5976
17388TIP3    H273656   1.490   3.419   3.391  0.5842  0.8462  0.6547
17389TIP3   OH273657   2.045   2.664  15.135  0.2973  0.2640 -0.4652
17389TIP3    H173658   2.109   2.735  15.142  0.0265  0.5867 -1.1768
17389TIP3    H273659   2.095   2.590  15.100  0.5713  0.1095  0.2390
17390TIP3   OH273660   2.076   4.071  15.389  0.6983  0.3466 -0.2228
17390TIP3    H173661   1.984   4.051  15.371  0.2031  2.4426 -0.3251
17390TIP3    H273662   2.105   4.120  15.312  0.8574  2.6393  1.1948
17391TIP3   OH273663   0.444   0.333   6.594  0.2540 -0.3223 -0.0108
17391TIP3    H173664   0.527   0.337   6.642  0.2541 -0.9285  0.0590
17391TIP3    H273665   0.424   0.239   6.591 -0.0889 -0.2304 -0.6139
17392TIP3   OH273666   4.282   1.519   3.180 -0.1935  0.3101  0.0477
17392TIP3    H173667   4.280   1.615   3.171 -0.6034  0.3226  0.2145
17392TIP3    H273668   4.375   1.497   3.182 -0.0949  0.6908 -0.1508
17393TIP3   OH273669   3.716   5.341   5.788  0.4281  0.6164  0.0913
17393TIP3    H173670   3.774   5.269   5.814  1.3671  0.8914 -1.1486
17393TIP3    H273671   3.697   5.325   5.695 -0.4618  1.2295  0.1512
17394TIP3   OH273672   6.721   3.025  12.244  0.0883  0.1438  0.0621
17394TIP3    H173673   6.756   3.085  12.309  0.7850 -0.3381  0.1482
17394TIP3    H273674   6.629   3.048  12.237  0.3754  1.3138 -0.0243
17395TIP3   OH273675   5.224   5.735  15.662 -0.5599 -0.7601  0.3805
17395TIP3    H173676   5.291   5.676  15.696 -0.2945 -0.5157  0.2873
17395TIP3    H273677   5.141   5.694  15.687 -0.3971  0.0626  2.4709
17396TIP3   OH273678   1.486   6.734   3.117  0.0904 -0.0351  0.4564
17396TIP3    H173679   1.442   6.666   3.168 -1.0896  0.9995  0.8843
17396TIP3    H273680   1.426   6.751   3.043  0.1738  0.7847  0.5634
17397TIP3   OH273681   2.548   1.764  16.685 -0.3969 -0.6135 -0.3318
17397TIP3    H173682   2.634   1.786  16.722 -0.5707 -0.0124 -0.2741
17397TIP3    H273683   2.535   1.828  16.615  0.1361 -2.0282 -1.7749
17398TIP3   OH273684   5.079   0.560   1.644 -0.2322  0.5287 -0.6058
17398TIP3    H173685   5.071   0.515   1.560  2.4880 -0.8034 -0.2573
17398TIP3    H273686   5.159   0.525   1.683 -0.5068  2.3187  1.8251
17399TIP3   OH273687   2.218   1.110  11.845 -0.1048 -0.1890  0.1040
17399TIP3    H173688   2.148   1.085  11.905 -0.2450 -1.6764 -0.6230
17399TIP3    H273689   2.177   1.174  11.786 -0.6742 -0.5527  0.0962
17400TIP3   OH273690   4.655   6.502  13.111  0.1009  0.2739 -0.4080
17400TIP3    H173691   4.580   6.472  13.163 -0.5773  1.0574 -0.9086
17400TIP3    H273692   4.632   6.591  13.085  1.1898  0.5041 -0.6189
17401TIP3   OH273693   2.963   6.417   4.657 -0.5059  0.2651 -0.0134
17401TIP3    H173694   2.889   6.452   4.607  0.4969 -0.1300 -1.8932
17401TIP3    H273695   2.964   6.323   4.635 -0.9551 -0.2636  2.0304
17402TIP3   OH273696   4.171   4.731  16.849 -0.1967 -0.2074  0.4621
17402TIP3    H173697   4.144   4.771  16.766  0.0597  1.0931  0.9920
17402TIP3    H273698   4.108   4.764  16.913  2.4175  2.7702  1.7051
17403TIP3   OH273699   1.523   3.838   2.820 -0.1198 -0.2891 -0.7118
17403TIP3    H173700   1.513   3.766   2.758  0.0439  0.0972 -1.1927
17403TIP3    H273701   1.604   3.819   2.866  1.2104  0.7981 -2.4881
17404TIP3   OH273702   1.103   3.931  13.774  0.2445  0.0881  0.2516
17404TIP3    H173703   1.126   3.928  13.681  2.7025 -0.2335  0.7876
17404TIP3    H273704   1.108   4.024  13.796  1.2959  0.0163  0.3808
17405TIP3   OH273705   1.929   5.853  16.064  0.3242 -0.3229 -0.4756
17405TIP3    H173706   1.867   5.862  16.136 -0.5861 -1.1407 -1.1295
17405TIP3    H273707   1.876   5.826  15.989  1.0772  1.5265 -1.7563
17406TIP3   OH273708   6.278   4.968  10.836  0.8279  0.2825 -0.3076
17406TIP3    H173709   6.297   5.033  10.903  1.2616  1.1349 -1.2182
17406TIP3    H273710   6.272   4.885  10.883  1.3507  0.8173  0.7368
17407TIP3   OH273711   6.232   1.834   0.704 -0.5339 -0.3054  0.8789
17407TIP3    H173712   6.192   1.903   0.757  1.3489  1.1896  0.4563
17407TIP3    H273713   6.212   1.858   0.614 -0.7589 -0.8978  0.7674
17408TIP3   OH273714   6.173   0.936  12.499 -0.6518 -0.4462 -0.7784
17408TIP3    H173715   6.121   0.901  12.571 -1.6074  0.2383 -1.1203
17408TIP3    H273716   6.167   0.869  12.431 -0.3599 -0.7612 -0.4955
17409TIP3   OH273717   6.135   1.801   1.109  0.6755 -0.0006 -0.2734
17409TIP3    H173718   6.087   1.718   1.107 -0.3975  0.6047 -0.4907
17409TIP3    H273719   6.225   1.777   1.087  0.8820 -1.4063  1.7681
17410TIP3   OH273720   3.585   6.451  13.627  0.3834 -0.0694 -0.5205
17410TIP3    H173721   3.586   6.488  13.715 -1.3826  0.8000 -0.8121
17410TIP3    H273722   3.674   6.419  13.613  0.5128 -0.9591  1.8642
17411TIP3   OH273723   5.184   1.423  12.860 -0.2604 -0.3864  0.2555
17411TIP3    H173724   5.267   1.464  12.837 -1.1838  1.1466 -0.4895
17411TIP3    H273725   5.160   1.371  12.783 -0.3265 -0.2770  0.2022
17412TIP3   OH273726   4.697   2.977  10.549 -0.0602 -0.0025  0.1176
17412TIP3    H173727   4.769   2.954  10.490 -0.4094 -1.5518  0.2433
17412TIP3    H273728   4.674   2.894  10.592  0.8353  1.1954  3.2110
17413TIP3   OH273729   4.379   4.607  12.524 -0.0356  0.2669  0.2682
17413TIP3    H173730   4.342   4.527  12.562  0.1758  0.1551  0.2429
17413TIP3    H273731   4.314   4.674  12.543  0.1654  0.2604  1.0420
17414TIP3   OH273732   1.144   3.276  11.395 -0.2015  0.2463  0.2530
17414TIP3    H173733   1.191   3.244  11.318 -2.5107  0.2399 -1.2907
17414TIP3    H273734   1.198   3.346  11.430  1.8792 -1.0803 -0.1354
17415TIP3   OH273735   5.994   2.850   2.567 -0.1392  0.4035 -0.1398
17415TIP3    H173736   5.971   2.786   2.500 -1.6195  3.0945 -2.4383
17415TIP3    H273737   5.989   2.935   2.522 -0.0314  2.3027  3.1008
17416TIP3   OH273738   4.383   4.603  16.949 -0.4673 -0.6920 -0.0576
17416TIP3    H173739   4.319   4.653  16.898  0.0568 -0.4109 -0.4468
17416TIP3    H273740   4.464   4.653  16.942  0.6987 -2.6926 -2.3889
17417TIP3   OH273741   6.702   2.796   1.715  0.7237 -0.5278 -0.3800
17417TIP3    H173742   6.714   2.862   1.784  1.7766  0.1454 -1.1843
17417TIP3    H273743   6.619   2.754   1.737  0.7306  0.1014  0.9458
17418TIP3   OH273744   0.799   0.344   5.077  0.8377  0.0532  0.1760
17418TIP3    H173745   0.749   0.397   5.139 -1.1477 -2.2610  0.7242
17418TIP3    H273746   0.732   0.295   5.029  2.4015  0.4736 -2.6426
17419TIP3   OH273747   1.216   4.958  13.313 -0.7289  0.2377 -0.2783
17419TIP3    H173748   1.153   4.910  13.367  0.6026 -1.5406 -0.2151
17419TIP3    H273749   1.292   4.971  13.370 -0.2309  0.4872 -0.9801
17420TIP3   OH273750   0.342   0.117  11.419 -0.6584  0.0114 -0.4925
17420TIP3    H173751   0.264   0.166  11.446 -0.2685  0.1523  0.4046
17420TIP3    H273752   0.391   0.103  11.500  0.0237 -0.4834 -0.9782
17421TIP3   OH273753   4.356   5.336  16.594  0.1930  0.6328  0.1101
17421TIP3    H173754   4.295   5.279  16.547 -1.7332  1.6221  1.2956
17421TIP3    H273755   4.390   5.395  16.527 -0.1466  0.0692 -0.5674
17422TIP3   OH273756   1.547   3.295  14.858  0.4138  0.3189 -0.3577
17422TIP3    H173757   1.543   3.388  14.837  2.1212  0.4589 -0.1959
17422TIP3    H273758   1.640   3.278  14.876 -0.2293 -0.8178  2.3433
17423TIP3   OH273759   3.861   2.625  15.665 -0.2680 -0.4819 -0.6438
17423TIP3    H173760   3.832   2.664  15.747 -1.0980 -1.4243 -0.4760
17423TIP3    H273761   3.836   2.533  15.672  0.8271 -0.8554 -1.4098
17424TIP3   OH273762   1.287   2.818  10.685 -0.3236  0.3439 -0.3944
17424TIP3    H173763   1.335   2.761  10.625 -0.7116 -0.9985  0.5258
17424TIP3    H273764   1.195   2.804  10.664 -0.4311  0.4818 -0.0299
17425TIP3   OH273765   2.879   6.378   1.533  0.1313  0.6696 -0.5731
17425TIP3    H173766   2.837   6.329   1.603 -0.6396  1.9147 -0.1274
17425TIP3    H273767   2.811   6.388   1.466  0.5133  0.4840 -0.9978
17426TIP3   OH273768   4.944   0.014  15.899 -0.3209  0.2118  0.7737
17426TIP3    H173769   4.957   0.049  15.987 -1.1291 -0.2538  1.0808
17426TIP3    H273770   4.884   0.076  15.857  1.3617  1.3683 -0.0409
17427TIP3   OH273771   2.716   3.211   5.263  0.1797 -0.3704  0.6675
17427TIP3    H173772   2.758   3.269   5.327  2.6547 -1.2046 -0.0876
17427TIP3    H273773   2.689   3.270   5.192  0.5698  0.1497  0.9374
17428TIP3   OH273774   2.905   2.199   0.445 -0.3360  0.2691 -0.5804
17428TIP3    H173775   2.855   2.158   0.516 -1.0795  0.3453 -1.0518
17428TIP3    H273776   2.982   2.237   0.488 -1.8416  2.2184  0.5380
17429TIP3   OH273777   6.136   3.736   2.661  0.4417 -0.2205 -0.3271
17429TIP3    H173778   6.192   3.800   2.704  1.9849 -0.9517 -1.1749
17429TIP3    H273779   6.110   3.778   2.578  1.4387 -0.6608 -0.8747
17430TIP3   OH273780   2.557   5.974  13.458 -0.1587 -0.1446 -0.6817
17430TIP3    H173781   2.491   5.908  13.482  0.8617 -1.1280 -0.4814
17430TIP3    H273782   2.618   5.975  13.532  0.0534  0.7683 -0.8510
17431TIP3   OH273783   0.192   2.619  11.937 -0.0699  0.2627  0.5102
17431TIP3    H173784   0.116   2.603  11.994 -0.5681 -0.4585 -0.3310
17431TIP3    H273785   0.225   2.532  11.917  2.1118  0.5909  2.2922
17432TIP3   OH273786   1.943   1.160   3.449 -0.2922 -0.1102 -0.2071
17432TIP3    H173787   1.962   1.069   3.426  0.1051 -0.3919  1.1514
17432TIP3    H273788   1.989   1.175   3.532  1.7640  2.1062 -1.6150
17433TIP3   OH273789   0.345   1.971  16.025 -0.0979 -0.1117 -0.1122
17433TIP3    H173790   0.405   1.922  16.081 -1.3278 -1.3860  0.1463
17433TIP3    H273791   0.282   1.905  15.993  0.0912  0.7059 -2.3656
17434TIP3   OH273792   4.721   5.076  13.925 -0.5518  0.0869  0.0502
17434TIP3    H173793   4.797   5.055  13.871 -1.4509  1.8430 -2.0761
17434TIP3    H273794   4.698   4.994  13.968  1.2950 -0.9617 -0.8347
17435TIP3   OH273795   3.495   1.221   1.921 -0.3471 -0.0591  0.7751
17435TIP3    H173796   3.539   1.244   1.840 -1.7471  0.4956  0.1336
17435TIP3    H273797   3.456   1.135   1.905 -0.6142  0.0435  0.8490
17436TIP3   OH273798   6.350   6.190   0.328  0.2656 -0.6108 -0.3706
17436TIP3    H173799   6.279   6.201   0.265  1.6651 -0.1002 -1.9403
17436TIP3    H273800   6.309   6.207   0.413 -1.5858 -0.8486 -1.1610
17437TIP3   OH273801   5.180   6.422   2.954 -0.4615 -0.0242  0.8267
17437TIP3    H173802   5.261   6.471   2.942  0.5925 -1.7391  0.6460
17437TIP3    H273803   5.113   6.476   2.914  1.0716  0.0378 -1.8647
17438TIP3   OH273804   4.762   2.452   0.892 -0.4048  0.0590  0.0189
17438TIP3    H173805   4.789   2.447   0.983 -2.8470 -0.0247  0.8073
17438TIP3    H273806   4.796   2.371   0.853 -0.2691 -0.4373  1.1252
17439TIP3   OH273807   0.924   2.663   5.718  0.0318  0.6794  0.6674
17439TIP3    H173808   0.975   2.681   5.639 -0.3140  1.1105  0.5397
17439TIP3    H273809   0.860   2.597   5.691 -1.6226  2.4894 -0.0515
17440TIP3   OH273810   2.393   1.306  15.073  0.4554 -0.3904 -0.4775
17440TIP3    H173811   2.449   1.289  15.149  0.3485 -1.0020 -0.5266
17440TIP3    H273812   2.408   1.230  15.015  0.8001  0.2360 -1.2299
17441TIP3   OH273813   5.681   6.351   3.952 -0.1662  0.2833  0.3515
17441TIP3    H173814   5.630   6.430   3.934  0.4038  0.9968  1.7645
17441TIP3    H273815   5.753   6.354   3.889 -0.5493  0.4993 -0.0819
17442TIP3   OH273816   2.629   3.096   2.835 -0.2972 -0.2655 -0.0466
17442TIP3    H173817   2.635   3.095   2.739  0.9704  1.8125 -0.0613
17442TIP3    H273818   2.561   3.032   2.856 -0.3001 -1.0818 -2.3003
17443TIP3   OH273819   2.156   3.919  14.638  0.1546  0.6709  0.3527
17443TIP3    H173820   2.175   3.969  14.559 -2.9314  0.7036 -0.5065
17443TIP3    H273821   2.106   3.979  14.693 -1.9752 -0.7751  0.1267
17444TIP3   OH273822   4.970   2.931  10.480 -0.3399  0.3039 -0.1677
17444TIP3    H173823   4.980   2.838  10.500 -1.6201 -0.0674 -1.1229
17444TIP3    H273824   5.057   2.968  10.495  0.3323 -1.1386 -0.3067
17445TIP3   OH273825   2.665   0.953   3.969  0.0961 -0.5127  0.3506
17445TIP3    H173826   2.622   0.874   4.001 -0.0002 -0.1265  1.1834
17445TIP3    H273827   2.726   0.978   4.038  1.7365 -1.0757 -0.8309
17446TIP3   OH273828   2.161   2.922  17.082 -0.5404 -0.1755  0.2195
17446TIP3    H173829   2.244   2.953  17.118  0.1588 -2.3099  0.5961
17446TIP3    H273830   2.183   2.891  16.994 -0.9359 -0.6984  0.2980
17447TIP3   OH273831   3.522   6.776  11.359 -0.0465 -0.0701 -0.3706
17447TIP3    H173832   3.480   6.694  11.331  1.1378 -0.2973 -1.5997
17447TIP3    H273833   3.614   6.764  11.336  0.0296  1.8807 -1.1925
17448TIP3   OH273834   5.679   6.351   5.470 -0.1984  0.4354  0.1689
17448TIP3    H173835   5.747   6.285   5.483 -0.5524  0.1006  0.3261
17448TIP3    H273836   5.617   6.337   5.541  0.1736  1.5179  0.7317
17449TIP3   OH273837   4.121   3.394   6.425 -0.2943  0.2659 -0.1516
17449TIP3    H173838   4.159   3.416   6.340  1.1999 -1.2257  0.0865
17449TIP3    H273839   4.167   3.450   6.487  0.6964 -0.6847 -0.0073
17450TIP3   OH273840   3.385   3.209  11.792 -0.1025  0.4326  0.6459
17450TIP3    H173841   3.307   3.199  11.846 -1.0474  0.1147 -0.7219
17450TIP3    H273842   3.438   3.133  11.812 -0.1215  0.6573  1.5983
17451TIP3   OH273843   4.984   2.520   2.106 -0.0302 -0.0950  0.2919
17451TIP3    H173844   5.011   2.480   2.189 -2.4101 -0.9001  0.7542
17451TIP3    H273845   5.034   2.472   2.039  2.5633  1.1179  1.2055
17452TIP3   OH273846   3.259   6.523  13.588  0.5121  0.5491  0.0288
17452TIP3    H173847   3.262   6.449  13.528  1.7381  0.1976  0.5070
17452TIP3    H273848   3.213   6.490  13.665 -1.9610  1.2825 -1.0347
17453TIP3   OH273849   2.959   5.752   4.191  0.3947 -0.5385  0.0196
17453TIP3    H173850   2.894   5.710   4.247  0.8624 -0.6647  0.4772
17453TIP3    H273851   2.907   5.799   4.125 -0.1385 -1.6238 -0.3481
17454TIP3   OH273852   0.648   4.761  16.068  0.0834 -0.0644 -0.6266
17454TIP3    H173853   0.587   4.766  16.141  0.6791 -0.1418 -0.1119
17454TIP3    H273854   0.616   4.825  16.005 -1.5329 -1.3146 -1.1552
17455TIP3   OH273855   3.725   4.757  16.878  0.0491 -0.3937  0.6583
17455TIP3    H173856   3.769   4.841  16.864  0.1778 -0.4239  0.8789
17455TIP3    H273857   3.644   4.764  16.827 -0.0745 -0.0284  0.9016
17456TIP3   OH273858   6.406   1.967  11.490 -0.0117  0.0854  0.4222
17456TIP3    H173859   6.343   1.948  11.559  0.7930  0.2735  1.2383
17456TIP3    H273860   6.491   1.945  11.529  0.3914 -0.7179 -0.8445
17457TIP3   OH273861   1.777   2.917   1.088 -0.1085  0.1106 -0.3236
17457TIP3    H173862   1.797   2.930   0.996  0.5354 -0.3389 -0.2543
17457TIP3    H273863   1.842   2.853   1.118 -0.5766 -0.0698  0.3329
17458TIP3   OH273864   1.963   2.159   5.163 -0.1775  0.3092 -0.6153
17458TIP3    H173865   1.973   2.154   5.258 -0.1839  1.1536 -0.5609
17458TIP3    H273866   2.004   2.242   5.139  0.0949 -0.0428 -1.3925
17459TIP3   OH273867   3.482   0.458   2.545 -0.0851  0.1497 -0.5205
17459TIP3    H173868   3.447   0.515   2.613 -0.5533  1.0651 -1.4909
17459TIP3    H273869   3.498   0.374   2.589  0.1358  0.8673  0.8193
17460TIP3   OH273870   4.636   4.639   3.752  0.2374 -0.6815  0.3982
17460TIP3    H173871   4.685   4.567   3.792 -0.2817 -0.8949  0.6596
17460TIP3    H273872   4.616   4.698   3.824  2.0081  0.5413 -0.0556
17461TIP3   OH273873   5.034   0.058  14.197  0.1364  0.2530  0.2642
17461TIP3    H173874   5.017   0.053  14.103 -0.0243 -1.3424  0.3493
17461TIP3    H273875   4.985   0.134  14.226 -0.0456  0.5996 -0.8936
17462TIP3   OH273876   4.259   1.632  11.871  0.4027 -0.8037 -0.1288
17462TIP3    H173877   4.351   1.642  11.894  0.4370  1.9076 -1.0434
17462TIP3    H273878   4.218   1.715  11.899 -1.5818 -1.5690 -0.5552
17463TIP3   OH273879   3.244   6.389   0.527  0.0145  0.5336  0.2237
17463TIP3    H173880   3.151   6.400   0.548  0.6249  1.0611  3.0639
17463TIP3    H273881   3.258   6.294   0.528 -0.8966  0.2719 -2.6779
17464TIP3   OH273882   0.363   3.237   3.280 -0.2731  0.0154  0.5769
17464TIP3    H173883   0.369   3.199   3.192 -0.6737  2.8930 -0.8255
17464TIP3    H273884   0.454   3.242   3.310 -0.0440 -0.1952 -0.0620
17465TIP3   OH273885   5.398   6.475  11.968 -0.7826 -0.1559 -0.0758
17465TIP3    H173886   5.413   6.442  12.056 -0.5844 -0.2655 -0.1505
17465TIP3    H273887   5.334   6.546  11.979 -0.4211  0.1248  0.2064
17466TIP3   OH273888   3.670   3.322  14.573 -0.4852 -0.1822  0.3288
17466TIP3    H173889   3.725   3.256  14.614 -0.2591 -0.1892  0.0186
17466TIP3    H273890   3.633   3.278  14.496 -0.7663 -0.1162  0.4233
17467TIP3   OH273891   4.050   6.662  14.565 -0.3423  1.0333 -0.0509
17467TIP3    H173892   4.133   6.625  14.596 -0.1908 -0.1994 -1.7586
17467TIP3    H273893   4.076   6.736  14.511 -0.4146  1.2821  0.2563
17468TIP3   OH273894   1.911   6.258  15.178 -0.2251  0.0293 -0.1388
17468TIP3    H173895   1.847   6.192  15.150  0.6744 -0.4207 -1.1821
17468TIP3    H273896   1.857   6.332  15.207 -1.3020  0.7277 -3.4774
17469TIP3   OH273897   6.178   2.651   5.773  0.6378  0.0258  0.0523
17469TIP3    H173898   6.211   2.568   5.740 -0.1232 -0.1456 -0.2896
17469TIP3    H273899   6.229   2.667   5.853  1.3333 -0.3721 -0.2993
17470TIP3   OH273900   6.413   2.414  14.638 -0.1980  0.1767  0.0556
17470TIP3    H173901   6.373   2.474  14.575  0.8146 -0.3707 -1.1314
17470TIP3    H273902   6.363   2.333  14.630  1.0955 -0.5183 -1.4518
17471TIP3   OH273903   2.453   2.313   5.797 -0.3466 -0.2417  0.0008
17471TIP3    H173904   2.470   2.329   5.890 -1.2348 -1.4783  0.4024
17471TIP3    H273905   2.445   2.401   5.758  0.3415  0.2870  1.0259
17472TIP3   OH273906   1.538   3.332   6.489  0.2128  0.2377 -0.0945
17472TIP3    H173907   1.626   3.348   6.455 -0.0441 -0.0764 -0.9365
17472TIP3    H273908   1.538   3.239   6.513  0.0348  0.1710 -0.3471
17473TIP3   OH273909   1.390   1.688  11.880  0.4723  0.0592  0.1488
17473TIP3    H173910   1.396   1.772  11.925 -0.8729  0.8115 -0.9761
17473TIP3    H273911   1.322   1.702  11.813 -0.3706 -2.1632  0.4597
17474TIP3   OH273912   2.042   5.745  12.625  0.1970  0.3016  0.3105
17474TIP3    H173913   2.020   5.687  12.552  0.8058 -0.0133  0.3734
17474TIP3    H273914   2.075   5.824  12.583  2.2687 -0.5499  0.2269
17475TIP3   OH273915   2.559   6.305   0.735  0.4641 -0.4854  0.2939
17475TIP3    H173916   2.585   6.375   0.674  2.5906 -0.9888  0.5341
17475TIP3    H273917   2.514   6.350   0.806  2.2547  0.7679  0.7013
17476TIP3   OH273918   0.852   3.841   3.064  0.0915 -0.2710  0.0803
17476TIP3    H173919   0.923   3.839   3.128  0.0628  1.2222  0.1808
17476TIP3    H273920   0.810   3.926   3.077 -0.2609 -0.1626 -1.5495
17477TIP3   OH273921   6.571   6.268   2.874  0.7144 -0.2847  0.3948
17477TIP3    H173922   6.611   6.193   2.830 -1.0522 -0.6822 -0.6147
17477TIP3    H273923   6.477   6.260   2.857  0.3364  1.4951  1.3040
17478TIP3   OH273924   4.450   3.851   2.528  0.3149 -0.3157 -0.6437
17478TIP3    H173925   4.530   3.824   2.483  0.6760 -0.0812 -0.1497
17478TIP3    H273926   4.456   3.812   2.615 -0.1530 -0.3715 -0.6309
17479TIP3   OH273927   2.705   0.492  15.316 -0.2924  0.8378 -0.0187
17479TIP3    H173928   2.745   0.484  15.403 -2.5915 -0.4719  1.0068
17479TIP3    H273929   2.659   0.576  15.319 -2.9280 -0.5424  1.2755
17480TIP3   OH273930   4.928   5.651  12.718 -0.1503 -0.0339  0.7353
17480TIP3    H173931   4.973   5.710  12.778  1.9743 -1.2661  0.4824
17480TIP3    H273932   4.861   5.609  12.771  1.4378 -0.8441  2.2123
17481TIP3   OH273933   1.745   3.361  15.814 -0.1003 -0.0414  0.2533
17481TIP3    H173934   1.825   3.392  15.772 -1.0171  3.4060  0.7268
17481TIP3    H273935   1.766   3.357  15.907  0.1849 -1.7309  0.1582
17482TIP3   OH273936   0.340   5.824   1.826 -0.4071  0.3561 -0.0590
17482TIP3    H173937   0.307   5.799   1.739  2.1978  0.1160 -1.0730
17482TIP3    H273938   0.308   5.913   1.839 -2.4097 -0.2698 -0.3849
17483TIP3   OH273939   4.356   2.563  14.713 -0.1383 -0.5814 -0.0324
17483TIP3    H173940   4.451   2.562  14.705 -0.1346 -0.9616  0.0443
17483TIP3    H273941   4.325   2.591  14.627  0.1063  1.7702  0.5881
17484TIP3   OH273942   3.589   0.504  16.047  0.1914 -0.6368  0.1831
17484TIP3    H173943   3.616   0.413  16.062 -0.6155 -0.9659 -0.3177
17484TIP3    H273944   3.671   0.550  16.031  0.4915 -1.5975 -1.2238
17485TIP3   OH273945   1.345   2.695  17.151  0.2788  1.2997 -0.1446
17485TIP3    H173946   1.342   2.710  17.057 -2.4581 -1.2053 -0.6205
17485TIP3    H273947   1.281   2.756  17.188  0.2065  1.2104 -0.1201
17486TIP3   OH273948   4.193   4.293   2.759  0.3350  0.1744 -0.5112
17486TIP3    H173949   4.181   4.385   2.736  1.2807  0.7496  1.0654
17486TIP3    H273950   4.281   4.271   2.727  1.6957  1.0059  2.2702
17487TIP3   OH273951   1.259   4.713  16.515  0.0552 -0.0234 -0.0077
17487TIP3    H173952   1.210   4.632  16.500  0.1364 -0.2255  0.7657
17487TIP3    H273953   1.324   4.715  16.445  0.4069 -0.9047  0.2805
17488TIP3   OH273954   2.911   5.680  15.304 -0.4242 -0.2446 -0.0801
17488TIP3    H173955   2.897   5.768  15.341  1.0911 -1.2249  3.2508
17488TIP3    H273956   2.830   5.661  15.256 -1.2189  2.5328 -0.0218
17489TIP3   OH273957   5.907   6.457   4.423  0.0576 -0.0173  0.1976
17489TIP3    H173958   5.910   6.531   4.484  2.1338 -0.8259  1.2051
17489TIP3    H273959   5.817   6.425   4.428 -0.5395  1.6450  0.6964
17490TIP3   OH273960   0.215   4.064   3.551  0.1493  0.1200 -0.4201
17490TIP3    H173961   0.233   4.139   3.607  0.0277  1.0548 -1.5968
17490TIP3    H273962   0.136   4.024   3.588  0.8985 -0.1749  0.9270
17491TIP3   OH273963   6.246   3.999   1.663  0.3141  0.5179  0.4306
17491TIP3    H173964   6.331   4.008   1.621  1.0320 -0.8817  1.5167
17491TIP3    H273965   6.216   3.911   1.640 -0.9983  1.0908 -0.1840
17492TIP3   OH273966   2.550   3.391  17.049  0.5445  0.0459 -0.3814
17492TIP3    H173967   2.555   3.378  16.955  0.1191 -0.6261 -0.3160
17492TIP3    H273968   2.578   3.308  17.087 -1.6115 -0.5365  0.0575
17493TIP3   OH273969   4.300   4.347  12.568 -0.2079  0.5910  0.0046
17493TIP3    H173970   4.343   4.284  12.510  1.3320  1.3788  0.2470
17493TIP3    H273971   4.259   4.292  12.635 -0.2338 -0.2247 -0.6603
17494TIP3   OH273972   0.031   1.217  14.346 -0.5723 -0.3143 -0.0244
17494TIP3    H173973   0.117   1.212  14.304 -0.5295 -0.0637  0.0328
17494TIP3    H273974   0.031   1.301  14.390 -0.8818 -0.2765 -0.0954
17495TIP3   OH273975   6.418   4.858  11.844  0.3739 -0.3092 -0.2760
17495TIP3    H173976   6.411   4.939  11.895  0.9949  0.2367 -1.0372
17495TIP3    H273977   6.485   4.877  11.778  1.2244 -1.7649  0.1343
17496TIP3   OH273978   4.767   1.430  15.291  0.4310  0.2735  0.0363
17496TIP3    H173979   4.780   1.510  15.240 -0.1249  1.0318  1.0462
17496TIP3    H273980   4.823   1.442  15.368 -1.9541  1.1666  1.7771
17497TIP3   OH273981   1.794   4.433  14.444 -0.5208 -0.0467 -0.1390
17497TIP3    H173982   1.749   4.361  14.398 -0.4715 -0.8230  0.9914
17497TIP3    H273983   1.807   4.400  14.533  1.6314  0.4319 -0.2323
17498TIP3   OH273984   2.528   0.706  15.339 -0.3292  0.1174 -0.0466
17498TIP3    H173985   2.462   0.754  15.388 -0.2409 -0.4879  0.6820
17498TIP3    H273986   2.557   0.767  15.270  0.2448  1.3465  1.2276
17499TIP3   OH273987   3.722   2.471   4.594 -0.1381 -0.1873 -0.0736
17499TIP3    H173988   3.791   2.424   4.641 -1.7991 -1.0570  1.6338
17499TIP3    H273989   3.729   2.561   4.624  0.8485 -0.0657 -0.6525
17500TIP3   OH273990   3.264   6.231  15.008  0.5453  0.5449  0.5917
17500TIP3    H173991   3.256   6.149  15.056  1.5867  1.7512  2.9721
17500TIP3    H273992   3.180   6.275  15.020  0.6289  0.6235  0.8952
17501TIP3   OH273993   2.929   5.024  11.298 -0.7409 -0.5096  0.3713
17501TIP3    H173994   2.841   5.009  11.264 -0.1111 -1.6659 -0.8697
17501TIP3    H273995   2.927   4.992  11.388 -1.2060 -1.9500 -0.1297
17502TIP3   OH273996   3.004   0.499   5.471  0.1920  0.4264 -0.0110
17502TIP3    H173997   2.968   0.518   5.557  1.1008  1.1043  0.2301
17502TIP3    H273998   3.090   0.542   5.470  1.8696 -2.6567  0.1177
17503TIP3   OH273999   5.512   4.961   5.673 -0.1755 -0.3463  0.2211
17503TIP3    H174000   5.457   4.981   5.748  0.4014  1.3112  0.2328
17503TIP3    H274001   5.476   5.016   5.602  0.3581 -0.5940 -0.2452
17504TIP3   OH274002   4.473   4.775   3.381 -0.0689  0.0481 -0.8720
17504TIP3    H174003   4.565   4.748   3.389  0.3082  1.2409 -0.9224
17504TIP3    H274004   4.440   4.724   3.307  0.4675 -0.6045 -0.6729
17505TIP3   OH274005   6.080   6.273  12.031  0.3242  0.5613 -0.2300
17505TIP3    H174006   6.090   6.227  12.114  0.7405 -0.0193 -0.5980
17505TIP3    H274007   6.065   6.205  11.966  3.0618  0.6679 -1.1474
17506TIP3   OH274008   5.701   4.716   1.521 -0.7612 -0.2418  0.0254
17506TIP3    H174009   5.667   4.687   1.437 -1.3582  1.3067 -0.3022
17506TIP3    H274010   5.645   4.789   1.546  1.0065  1.0367  0.4854
17507TIP3   OH274011   5.278   2.923   4.082  0.4088  0.4311 -0.3226
17507TIP3    H174012   5.292   2.968   3.999  0.2068  0.5083 -0.3152
17507TIP3    H274013   5.359   2.937   4.131  0.7036  0.0111 -0.6775
17508TIP3   OH274014   4.850   4.902   3.266  0.0792 -0.2893  0.0716
17508TIP3    H174015   4.778   4.849   3.232 -1.4345  0.6607  1.6072
17508TIP3    H274016   4.814   4.991   3.269  2.2999  0.7873 -1.7660
17509TIP3   OH274017   4.520   4.555  13.743 -0.3448 -0.0734  0.1566
17509TIP3    H174018   4.465   4.515  13.676 -0.7286 -1.3223  1.1721
17509TIP3    H274019   4.587   4.603  13.694  0.0218 -1.8047 -1.1574
17510TIP3   OH274020   3.559   0.318   0.657  0.0877  0.1791 -0.0191
17510TIP3    H174021   3.645   0.360   0.658  2.3145 -3.8214 -0.7820
17510TIP3    H274022   3.540   0.300   0.749  1.2107 -0.8266  0.0437
17511TIP3   OH274023   1.844   6.620   1.222  0.5824 -0.1666 -0.0079
17511TIP3    H174024   1.914   6.568   1.183  0.5610 -1.4142  1.5289
17511TIP3    H274025   1.877   6.643   1.309 -1.3472 -1.8327  1.2383
17512TIP3   OH274026   1.797   6.186   3.800 -0.1453 -0.1925 -0.0496
17512TIP3    H174027   1.792   6.120   3.869  0.3243 -0.0175  0.1541
17512TIP3    H274028   1.728   6.249   3.821 -0.5056 -0.5417 -0.1694
17513TIP3   OH274029   6.130   6.388   0.772  0.5399  0.2945  0.1673
17513TIP3    H174030   6.078   6.361   0.847 -1.0322 -0.8963 -1.2553
17513TIP3    H274031   6.117   6.482   0.766 -1.1216  0.0893  0.1272
17514TIP3   OH274032   6.463   6.691  14.781 -0.1987  0.3252 -0.2101
17514TIP3    H174033   6.429   6.606  14.754 -0.5914  0.6949 -0.9252
17514TIP3    H274034   6.557   6.687  14.762 -0.5306  0.7290 -2.1507
17515TIP3   OH274035   2.165   1.771   3.198  0.0676 -0.5302 -0.6153
17515TIP3    H174036   2.243   1.719   3.213  0.8207  0.1110 -2.0375
17515TIP3    H274037   2.167   1.839   3.265  0.5118 -0.7617 -0.3946
17516TIP3   OH274038   5.091   6.690   5.506 -0.1568  0.1486 -0.1108
17516TIP3    H174039   5.100   6.773   5.553  2.2540 -1.8109  3.2796
17516TIP3    H274040   5.001   6.663   5.522 -0.7769  1.7009 -0.7140
17517TIP3   OH274041   1.005   5.818  16.168  0.1569  0.0350 -0.6244
17517TIP3    H174042   1.055   5.898  16.154  2.6222 -1.5804 -1.8140
17517TIP3    H274043   0.970   5.796  16.081 -2.4225  0.9352  0.1196
17518TIP3   OH274044   5.148   5.053   2.882  0.2399 -0.6114  0.1037
17518TIP3    H174045   5.123   5.120   2.818  1.0848 -0.6732 -0.3016
17518TIP3    H274046   5.236   5.079   2.911 -0.5028 -0.0067  2.0158
17519TIP3   OH274047   2.013   4.981  14.923 -0.1395  0.2515  0.4382
17519TIP3    H174048   1.986   5.012  15.009 -0.8580  1.8405 -0.2924
17519TIP3    H274049   2.055   4.897  14.938 -1.0341  0.0890  2.2274
17520TIP3   OH274050   4.786   5.647  10.993  0.6892  0.1647 -0.3744
17520TIP3    H174051   4.810   5.555  10.998  0.4854  0.1219 -0.1130
17520TIP3    H274052   4.765   5.663  10.901  0.3027 -0.1583 -0.3431
17521TIP3   OH274053   1.372   1.646  13.808 -0.0324 -0.0085 -0.0875
17521TIP3    H174054   1.366   1.726  13.755 -0.1604 -0.9007 -1.4835
17521TIP3    H274055   1.285   1.607  13.801  1.1218 -2.4893 -3.1784
17522TIP3   OH274056   1.393   5.149  16.514 -0.0107  0.1684  0.3099
17522TIP3    H174057   1.415   5.240  16.495  0.0929  0.1045  0.1120
17522TIP3    H274058   1.477   5.103  16.508 -0.2810 -0.1884 -1.1076
17523TIP3   OH274059   0.421   5.876   2.404  0.2764  0.3913 -0.0518
17523TIP3    H174060   0.499   5.885   2.458 -0.3850  1.7547  0.7299
17523TIP3    H274061   0.444   5.916   2.320  0.8163 -0.3579 -0.2649
17524TIP3   OH274062   6.463   4.719  10.465 -0.2858 -0.5852  0.2610
17524TIP3    H174063   6.380   4.671  10.461 -0.1474 -0.8990  0.9900
17524TIP3    H274064   6.445   4.793  10.523 -0.5108  0.2786 -0.8952
17525TIP3   OH274065   4.451   1.422   4.763  0.1471 -0.8119  0.1771
17525TIP3    H174066   4.444   1.458   4.852  0.0341 -1.1865  0.3234
17525TIP3    H274067   4.469   1.498   4.708 -1.3307 -0.3312  0.3089
17526TIP3   OH274068   2.304   3.534   0.949  0.1376 -0.5114 -0.6609
17526TIP3    H174069   2.301   3.470   1.020 -2.1375 -0.3452 -0.5092
17526TIP3    H274070   2.342   3.612   0.988 -1.3261 -0.3416  0.5027
17527TIP3   OH274071   6.588   0.221  15.038  0.5319 -0.2971  0.1434
17527TIP3    H174072   6.516   0.209  15.101 -1.4538 -0.7081 -2.0449
17527TIP3    H274073   6.630   0.135  15.035 -1.7873 -1.4863 -1.7567
17528TIP3   OH274074   5.578   4.433   1.339 -0.5548 -0.3271 -0.4382
17528TIP3    H174075   5.575   4.521   1.377  0.0722 -1.2659  1.9503
17528TIP3    H274076   5.657   4.433   1.286  0.3816  0.0945  0.8864
17529TIP3   OH274077   2.542   4.118   2.081  0.4131  0.0753  0.0925
17529TIP3    H174078   2.629   4.140   2.048  0.2484  1.0715  0.2816
17529TIP3    H274079   2.537   4.164   2.165 -0.9737  1.5752 -0.7516
17530TIP3   OH274080   3.736   3.077   5.571 -0.3190 -0.1888 -0.2314
17530TIP3    H174081   3.641   3.064   5.582 -0.5229  0.0962 -1.4810
17530TIP3    H274082   3.747   3.172   5.573 -0.2970 -0.1379 -1.6906
17531TIP3   OH274083   1.881   4.028   0.677 -0.4902 -0.1819 -0.4288
17531TIP3    H174084   1.963   3.997   0.715 -0.4904 -1.7287 -1.5651
17531TIP3    H274085   1.895   4.121   0.661  0.4169 -0.0682  0.9158
17532TIP3   OH274086   1.490   3.826   1.043 -0.1458 -0.3666  0.1665
17532TIP3    H174087   1.585   3.840   1.052 -0.2614  1.3098 -0.8585
17532TIP3    H274088   1.461   3.806   1.132  0.7897  1.8849  1.0635
17533TIP3   OH274089   4.596   5.861   2.061 -0.4501  0.1017 -0.0185
17533TIP3    H174090   4.504   5.841   2.043 -0.1001 -1.7020 -0.0445
17533TIP3    H274091   4.645   5.807   1.999  0.6422  1.8146 -0.7201
17534TIP3   OH274092   4.958   5.623  13.602  0.1716 -0.5982 -0.2368
17534TIP3    H174093   4.865   5.612  13.583 -0.2572  0.7777  0.9528
17534TIP3    H274094   4.963   5.636  13.696  0.9634  4.2165 -0.7008
17535TIP3   OH274095   6.523   1.077  14.582  0.2236  0.1413  0.5448
17535TIP3    H174096   6.438   1.109  14.613 -0.2341 -1.3931  0.9610
17535TIP3    H274097   6.587   1.118  14.640 -0.3513  0.1784  1.1673
17536TIP3   OH274098   4.366   2.429  15.765  0.2579 -0.2230 -0.1009
17536TIP3    H174099   4.385   2.460  15.677  1.1420 -2.2063 -0.6492
17536TIP3    H274100   4.271   2.421  15.767  0.3072 -4.7991 -2.6915
17537TIP3   OH274101   3.621   5.831  14.362  0.0558  0.6825 -0.3550
17537TIP3    H174102   3.625   5.766  14.432 -0.8567  0.7390 -0.2396
17537TIP3    H274103   3.695   5.890  14.381 -0.0533  0.5812  0.4417
17538TIP3   OH274104   3.280   5.100   2.970  0.4233 -0.6104 -0.5677
17538TIP3    H174105   3.207   5.115   2.911 -0.5732 -0.6039  0.6356
17538TIP3    H274106   3.347   5.059   2.916  0.4947  1.5806 -2.2847
17539TIP3   OH274107   6.298   4.552  12.620 -0.0312 -0.1802  0.5531
17539TIP3    H174108   6.229   4.580  12.680  0.4674 -0.8666  1.4740
17539TIP3    H274109   6.375   4.542  12.675  0.6723  0.0448 -0.3712
17540TIP3   OH274110   6.025   5.325  12.264  0.6602 -0.0222 -0.2557
17540TIP3    H174111   5.968   5.330  12.340  0.4010  0.2899 -0.4662
17540TIP3    H274112   6.114   5.333  12.300  0.5999 -0.9473  0.1138
17541TIP3   OH274113   6.724   4.407  12.123 -0.1896  0.0438  0.2912
17541TIP3    H174114   6.707   4.313  12.115 -0.4436  0.1180 -0.0922
17541TIP3    H274115   6.734   4.438  12.033 -2.4394  0.7935  0.2179
17542TIP3   OH274116   5.516   4.192   5.219  0.4377 -0.0175 -0.9738
17542TIP3    H174117   5.468   4.109   5.214  0.4582 -0.0517 -0.6028
17542TIP3    H274118   5.572   4.183   5.296  0.4564  0.3352 -0.9448
17543TIP3   OH274119   2.920   6.091   0.274  0.6648 -0.1503 -0.0726
17543TIP3    H174120   2.938   6.148   0.199 -0.5498  0.8739  0.3711
17543TIP3    H274121   2.876   6.015   0.237 -1.2792  1.0235 -0.2724
17544TIP3   OH274122   4.692   0.525   0.079 -0.3007 -0.1364  0.1836
17544TIP3    H174123   4.621   0.528   0.015  0.4636 -0.0704 -0.6833
17544TIP3    H274124   4.737   0.609   0.068  1.3804 -1.1529 -1.0167
17545TIP3   OH274125   6.458   3.125  12.214  0.6692 -0.5564 -0.2765
17545TIP3    H174126   6.431   3.155  12.127 -0.2098  0.0805  0.1963
17545TIP3    H274127   6.504   3.200  12.252  0.3706 -0.5503  0.0889
17546TIP3   OH274128   2.804   6.425  16.284 -0.5301 -0.1545 -0.3160
17546TIP3    H174129   2.848   6.437  16.368  3.0420 -0.7046 -1.9243
17546TIP3    H274130   2.805   6.513  16.244 -0.7995 -0.1945 -0.4139
17547TIP3   OH274131   6.069   5.410   3.208 -0.1101  0.1083 -0.0269
17547TIP3    H174132   6.040   5.497   3.233 -0.5768  0.6007 -2.0654
17547TIP3    H274133   6.163   5.418   3.197 -0.0497  0.1525  0.5041
17548TIP3   OH274134   4.730   4.953   3.594  0.2898  0.0465 -0.0631
17548TIP3    H174135   4.746   4.873   3.544 -0.6958 -0.6600  0.7211
17548TIP3    H274136   4.722   5.022   3.528  0.4308 -0.6274 -0.7887
17549TIP3   OH274137   5.190   4.732  16.924  0.1524  0.5207 -0.4691
17549TIP3    H174138   5.190   4.795  16.997  0.8819 -1.0308  0.9428
17549TIP3    H274139   5.281   4.703  16.918 -0.7278 -3.5074  1.8386
17550TIP3   OH274140   5.484   2.753   2.909  0.0315 -0.3128  0.5505
17550TIP3    H174141   5.390   2.740   2.907  0.2957 -3.0296 -2.7240
17550TIP3    H274142   5.498   2.837   2.864 -0.7808 -1.5475 -2.1936
17551TIP3   OH274143   4.939   0.880  13.791  0.2645  0.0971  0.1421
17551TIP3    H174144   5.007   0.900  13.727  1.3046 -1.3449  0.7717
17551TIP3    H274145   4.858   0.911  13.749  1.1226  0.7094 -1.1388
17552TIP3   OH274146   3.452   4.599  16.509  0.0188 -0.5022  0.2404
17552TIP3    H174147   3.520   4.532  16.514 -0.5183 -1.2641 -1.6277
17552TIP3    H274148   3.370   4.549  16.507 -0.4203  0.2241 -0.6105
17553TIP3   OH274149   2.198   6.719   6.346  0.0235 -0.2716 -0.3398
17553TIP3    H174150   2.162   6.658   6.411  0.1319  1.0568  1.0469
17553TIP3    H274151   2.282   6.681   6.321  0.4496 -0.3359  1.0885
17554TIP3   OH274152   5.331   4.929   5.209  0.2542 -0.7158 -0.2540
17554TIP3    H174153   5.426   4.941   5.210  0.3623 -1.2102  2.1780
17554TIP3    H274154   5.312   4.883   5.291 -2.2028  0.3288 -0.1544
17555TIP3   OH274155   3.724   5.973   4.997 -0.4789  0.7193  0.1389
17555TIP3    H174156   3.640   5.961   4.954 -1.2076  0.5802  1.5514
17555TIP3    H274157   3.786   5.923   4.944 -1.3182  0.6257 -0.7760
17556TIP3   OH274158   4.167   1.670  15.701  0.5501  0.0779  0.2635
17556TIP3    H174159   4.135   1.628  15.621  0.1623  1.6231 -0.4151
17556TIP3    H274160   4.187   1.597  15.759 -0.8889 -1.0444 -0.5713
17557TIP3   OH274161   6.253   4.382  12.383 -0.2055  0.0635  0.0392
17557TIP3    H174162   6.275   4.439  12.456  1.0835 -0.3420 -0.0117
17557TIP3    H274163   6.170   4.342  12.408 -1.0790  1.8207  0.1377
17558TIP3   OH274164   4.801   1.603  15.073  0.1045 -0.0823  0.2726
17558TIP3    H174165   4.792   1.692  15.039  1.8395  0.4190  0.9911
17558TIP3    H274166   4.749   1.549  15.014  1.8256  0.9134 -2.3378
17559TIP3   OH274167   0.913   1.942   1.463 -0.2215 -0.0617 -0.6842
17559TIP3    H174168   0.884   1.856   1.494  0.0690  0.3661  0.8480
17559TIP3    H274169   0.896   2.001   1.536  0.3621  1.0300 -1.4034
17560TIP3   OH274170   6.409   2.946  12.419 -0.4853 -0.2997 -0.0731
17560TIP3    H174171   6.329   2.960  12.470 -0.2688 -1.7696  0.7307
17560TIP3    H274172   6.412   3.020  12.358 -1.5429  0.7153  1.0448
17561TIP3   OH274173   6.161   4.884  15.037 -0.1513 -0.2648  0.4360
17561TIP3    H174174   6.126   4.810  14.986  0.4821 -0.6589  0.5640
17561TIP3    H274175   6.233   4.846  15.088 -0.6940  0.1513  1.5385
17562TIP3   OH274176   1.781   0.191   1.571  0.0561  0.5195  0.1347
17562TIP3    H174177   1.769   0.282   1.597 -0.8654  0.2394  0.7710
17562TIP3    H274178   1.754   0.188   1.479  1.5369  1.1658 -0.3386
17563TIP3   OH274179   3.425   6.045  14.031 -0.0899 -0.3154  0.3405
17563TIP3    H174180   3.508   6.026  13.986 -0.1205  2.9502 -1.3774
17563TIP3    H274181   3.357   6.023  13.968 -0.5102 -1.4203  1.1385
17564TIP3   OH274182   4.925   1.675   0.094 -0.4619  0.1234  0.2760
17564TIP3    H174183   4.961   1.609   0.154  0.3086 -0.8519 -1.2012
17564TIP3    H274184   5.000   1.705   0.043 -1.3869 -0.5820 -1.6084
17565TIP3   OH274185   6.712   5.523   0.815  0.6205  0.4429  0.0765
17565TIP3    H174186   6.768   5.512   0.892 -1.4446  0.1858  1.6331
17565TIP3    H274187   6.669   5.438   0.804  0.0256  0.8252 -0.6324
17566TIP3   OH274188   2.276   3.063  14.916  0.2223 -0.0112 -0.0534
17566TIP3    H174189   2.354   3.120  14.920  1.0226 -1.0940  0.3846
17566TIP3    H274190   2.297   2.999  14.848 -1.0065  0.6683 -1.1047
17567TIP3   OH274191   2.590   4.454  12.728  0.3783 -0.0482  0.1351
17567TIP3    H174192   2.551   4.409  12.654  0.2766 -1.8580  1.2106
17567TIP3    H274193   2.540   4.535  12.737 -2.7863 -1.9471  1.0507
17568TIP3   OH274194   3.065   2.598  15.906  0.6092  0.0159 -0.5047
17568TIP3    H174195   3.132   2.531  15.892  0.7212 -0.1370  0.6630
17568TIP3    H274196   3.097   2.648  15.981 -1.3557 -1.1062  1.1836
17569TIP3   OH274197   0.917   4.135  14.293  0.5724  0.0565  0.0281
17569TIP3    H174198   0.888   4.197  14.360 -2.7273  0.2695 -1.3939
17569TIP3    H274199   0.924   4.052  14.339  0.4221  0.5862  1.0392
17570TIP3   OH274200   0.066   6.626   5.099 -0.3025  0.1088 -0.1527
17570TIP3    H174201   0.028   6.661   5.180 -0.2662  1.0775 -0.5478
17570TIP3    H274202   0.103   6.702   5.055 -0.5301 -0.3718 -1.2031
17571TIP3   OH274203   4.969   2.583   4.342  0.5264  0.6294 -0.3255
17571TIP3    H174204   4.981   2.636   4.264 -0.1887  0.3854 -0.6036
17571TIP3    H274205   5.002   2.638   4.413  0.0516  1.3399 -0.6418
17572TIP3   OH274206   4.157   3.540  12.624  0.4072 -0.1889  0.6353
17572TIP3    H174207   4.081   3.497  12.586  1.0683 -0.9561  0.1462
17572TIP3    H274208   4.226   3.473  12.622  1.7731  1.1587 -1.1102
17573TIP3   OH274209   4.873   5.785   5.296 -0.6433  0.1822  0.0180
17573TIP3    H174210   4.924   5.845   5.241 -1.8469  2.3582  1.1602
17573TIP3    H274211   4.782   5.812   5.283 -1.2606 -1.6697  0.3011
17574TIP3   OH274212   5.277   5.709   0.509  0.1047 -0.5017  0.2373
17574TIP3    H174213   5.192   5.705   0.553  0.1357  0.7429  0.4310
17574TIP3    H274214   5.258   5.737   0.420  0.1459 -2.0463 -0.2843
17575TIP3   OH274215   1.462   6.053   0.193  0.3698  0.1911 -0.3443
17575TIP3    H174216   1.554   6.065   0.216  0.4463  1.1343 -1.0943
17575TIP3    H274217   1.462   6.039   0.099 -0.0054 -2.9598  0.0198
17576TIP3   OH274218   3.944   1.757   0.053  0.3977  0.2049 -0.2862
17576TIP3    H174219   3.878   1.815   0.090  1.4839  0.7893  0.8464
17576TIP3    H274220   4.002   1.816   0.003  1.1126  0.0263  0.3032
17577TIP3   OH274221   3.843   4.887  12.722  0.1332  0.1261  0.1942
17577TIP3    H174222   3.762   4.836  12.714 -0.2359  0.8177 -0.5779
17577TIP3    H274223   3.821   4.973  12.686  1.3107  0.2150 -0.3457
17578TIP3   OH274224   4.435   5.556  17.110  0.2511  0.2703 -0.3023
17578TIP3    H174225   4.415   5.631  17.054 -0.0386  0.8221  0.5177
17578TIP3    H274226   4.369   5.491  17.088  1.3787 -0.3424 -2.0749
17579TIP3   OH274227   6.213   3.880   0.521  0.7287  0.3185 -0.3899
17579TIP3    H174228   6.169   3.930   0.590  1.6636  0.1238  0.3633
17579TIP3    H274229   6.182   3.790   0.534 -0.5240  0.5622 -1.4028
17580TIP3   OH274230   5.116   3.321  14.541  0.0956  0.2327 -0.6090
17580TIP3    H174231   5.110   3.385  14.612  1.8318 -0.4968  0.2519
17580TIP3    H274232   5.074   3.364  14.466 -0.4453  1.6094  0.4457
17581TIP3   OH274233   0.493   0.620   6.192  0.0106  0.4961 -1.1364
17581TIP3    H174234   0.472   0.613   6.099  1.7911  0.2105 -1.5675
17581TIP3    H274235   0.468   0.709   6.216 -1.1206  0.3459 -1.6903
17582TIP3   OH274236   6.015   1.482   5.876  0.3142  0.0471 -0.2967
17582TIP3    H174237   5.979   1.571   5.883  1.3823  0.3799  1.6659
17582TIP3    H274238   6.094   1.493   5.823  0.8853  0.4510  0.6044
17583TIP3   OH274239   2.988   3.409   3.025  0.8988 -0.2186  0.4744
17583TIP3    H174240   3.046   3.347   2.981  2.8603  1.5216  0.4735
17583TIP3    H274241   2.941   3.452   2.955  0.6275 -0.6442  0.3889
17584TIP3   OH274242   4.665   3.322  15.976  0.5320  0.2907 -0.2302
17584TIP3    H174243   4.581   3.277  15.984  0.8876 -0.3526 -0.0846
17584TIP3    H274244   4.684   3.321  15.882  0.5057  0.2050 -0.2341
17585TIP3   OH274245   6.080   4.778   3.450  0.0529 -0.2755 -0.2916
17585TIP3    H174246   6.062   4.859   3.498 -0.9315 -0.2705 -0.6401
17585TIP3    H274247   6.068   4.802   3.358 -0.2528 -0.8164 -0.3961
17586TIP3   OH274248   3.988   5.226   5.078 -0.1024  0.6028  0.1763
17586TIP3    H174249   4.000   5.160   5.146  1.6406  1.4556  0.7673
17586TIP3    H274250   4.049   5.200   5.009 -2.8925 -1.1001 -1.8571
17587TIP3   OH274251   3.150   5.680  14.258 -0.6258  0.5395 -0.4762
17587TIP3    H174252   3.231   5.693  14.209 -0.4610 -0.6745 -0.5473
17587TIP3    H274253   3.147   5.586  14.276 -1.5598  0.7039  0.3266
17588TIP3   OH274254   2.419   5.368  14.788  0.0729 -0.1027  0.2471
17588TIP3    H174255   2.331   5.375  14.824 -0.0405  0.3290 -0.1005
17588TIP3    H274256   2.407   5.372  14.693  0.3741 -1.1421  0.1564
17589TIP3   OH274257   2.380   0.812  14.471 -0.2397  0.2226 -0.0721
17589TIP3    H174258   2.301   0.843  14.426  0.2398  0.0645 -1.0639
17589TIP3    H274259   2.453   0.851  14.422  0.3181 -0.3558  0.2700
17590TIP3   OH274260   6.262   4.343  12.910 -0.0615  0.5663 -0.6197
17590TIP3    H174261   6.192   4.278  12.905  0.7447 -0.2704 -1.1181
17590TIP3    H274262   6.342   4.292  12.922  0.3882  1.5446  0.8528
17591TIP3   OH274263   6.795   6.461   4.896  0.1690 -0.2735 -0.0943
17591TIP3    H174264   6.811   6.519   4.971  0.7456 -0.2525 -0.2288
17591TIP3    H274265   6.700   6.458   4.888  0.1188  0.1978  0.2739
17592TIP3   OH274266   3.045   0.988   4.978  0.1806 -0.0930 -0.1818
17592TIP3    H174267   3.012   0.974   4.890 -1.5599 -1.3231  0.6136
17592TIP3    H274268   3.076   0.902   5.007 -0.4920 -0.0029  0.8720
17593TIP3   OH274269   6.241   6.664  15.447  0.5459  0.2726 -0.6666
17593TIP3    H174270   6.303   6.637  15.515 -0.5187 -1.1281 -0.2184
17593TIP3    H274271   6.159   6.679  15.494  0.0762  0.3635 -1.4961
17594TIP3   OH274272   6.696   6.667  16.632  0.3418  0.1941  0.3350
17594TIP3    H174273   6.635   6.713  16.574 -2.0614 -0.8371  1.8501
17594TIP3    H274274   6.712   6.729  16.704  1.2308  0.5230 -0.1420
17595TIP3   OH274275   3.865   0.484  15.206  0.3074 -0.2440  0.2550
17595TIP3    H174276   3.862   0.388  15.215 -1.6862 -0.1326  1.4371
17595TIP3    H274277   3.775   0.512  15.225  1.3225  2.0420  2.1946
17596TIP3   OH274278   0.550   4.187  15.298  0.5308  0.1186 -0.1005
17596TIP3    H174279   0.566   4.270  15.253  1.7018 -0.0809 -0.1026
17596TIP3    H274280   0.481   4.206  15.360 -0.9208  0.4780 -1.7503
17597TIP3   OH274281   1.738   2.128  11.836 -0.4920  0.0520 -0.1275
17597TIP3    H174282   1.650   2.111  11.801 -0.4999  0.1099 -0.1354
17597TIP3    H274283   1.722   2.170  11.921 -0.4742 -0.4410  0.1234
17598TIP3   OH274284   1.106   2.613  14.153 -0.4958 -0.1484  0.2553
17598TIP3    H174285   1.149   2.622  14.068 -0.1260  1.3685  0.5793
17598TIP3    H274286   1.170   2.567  14.208 -0.6754 -0.9939 -0.2266
17599TIP3   OH274287   5.461   3.799  14.034 -0.3586  0.5837 -0.6296
17599TIP3    H174288   5.484   3.857  14.106  1.7614 -4.1238  3.0323
17599TIP3    H274289   5.544   3.781  13.989 -0.5531 -1.0628 -0.3858
17600TIP3   OH274290   6.240   5.556  14.897  0.1082  0.7042 -0.4301
17600TIP3    H174291   6.308   5.608  14.940  0.8612  0.4852 -1.3207
17600TIP3    H274292   6.172   5.619  14.875  0.4901  1.1136 -0.4545
17601TIP3   OH274293   5.737   5.978  17.005  0.6318 -0.0761 -0.1585
17601TIP3    H174294   5.766   5.896  17.045  2.1570  0.2385 -0.5654
17601TIP3    H274295   5.750   5.965  16.911  0.7478  0.5832 -0.2353
17602TIP3   OH274296   0.278   3.270   2.268 -0.3083  0.0898  0.1954
17602TIP3    H174297   0.309   3.359   2.283 -1.0298  0.2125  0.9975
17602TIP3    H274298   0.320   3.244   2.186 -2.0197  2.0750 -1.4163
17603TIP3   OH274299   0.417   1.768   3.810  0.6639  0.1968 -0.1655
17603TIP3    H174300   0.327   1.781   3.782  0.0590  1.0296  1.9938
17603TIP3    H274301   0.410   1.735   3.900  2.5099  1.1371  0.3717
17604TIP3   OH274302   4.277   4.652   4.210  0.8221 -0.4205 -0.0035
17604TIP3    H174303   4.182   4.665   4.209  0.7048 -1.0707  0.9032
17604TIP3    H274304   4.312   4.731   4.251  0.7811  0.2792 -1.2592
17605TIP3   OH274305   5.900   2.053  13.286 -0.3757  0.1889  0.2205
17605TIP3    H174306   5.897   1.958  13.289 -0.3830  0.1326 -1.1301
17605TIP3    H274307   5.876   2.080  13.374 -1.0345 -1.0422  0.4433
17606TIP3   OH274308   3.160   5.270   4.708 -0.4264 -0.3574  0.1106
17606TIP3    H174309   3.135   5.341   4.766 -1.0862  0.3413 -0.9878
17606TIP3    H274310   3.137   5.301   4.620 -0.4050 -1.7818 -0.4328
17607TIP3   OH274311   5.496   1.424   5.611 -0.4655  0.2910 -0.2763
17607TIP3    H174312   5.562   1.493   5.615  0.0593 -0.2525  1.0996
17607TIP3    H274313   5.449   1.440   5.529 -2.2973  4.0274  1.2513
17608TIP3   OH274314   2.057   5.407  13.725  0.3085 -0.7760  0.1832
17608TIP3    H174315   2.039   5.468  13.796  0.3701  0.8260 -1.1095
17608TIP3    H274316   2.137   5.362  13.751 -0.0043 -0.6736  1.3786
17609TIP3   OH274317   4.986   2.538   3.916  0.2432 -0.5859  0.1249
17609TIP3    H174318   4.998   2.509   3.826  0.0383  0.2269 -0.1649
17609TIP3    H274319   4.916   2.603   3.912 -0.5452 -1.3539  1.0369
17610TIP3   OH274320   6.803   5.694   3.327  0.8172  0.5284 -0.0017
17610TIP3    H174321   6.812   5.789   3.329  0.6799  0.6118 -1.4992
17610TIP3    H274322   6.731   5.679   3.265  0.2283 -0.5250  0.9083
17611TIP3   OH274323   6.295   5.455   4.594  0.6067  0.2062 -0.0894
17611TIP3    H174324   6.301   5.508   4.673 -2.2436 -0.4112  0.6381
17611TIP3    H274325   6.326   5.368   4.621 -1.1994 -0.2432  0.6617
17612TIP3   OH274326   0.072   2.163   0.900 -1.2880 -0.2842  0.1391
17612TIP3    H174327  -0.011   2.211   0.895 -0.1463  1.7125 -1.8336
17612TIP3    H274328   0.066   2.098   0.831 -1.3767 -0.4211  0.2761
17613TIP3   OH274329   4.947   1.140   1.026 -0.5675 -0.4011  0.1417
17613TIP3    H174330   4.969   1.225   1.064  0.6273  0.2374 -1.7976
17613TIP3    H274331   4.872   1.109   1.076 -0.9537  1.7389  0.9849
17614TIP3   OH274332   3.223   3.112   6.269  0.1252 -0.2524  0.5203
17614TIP3    H174333   3.247   3.053   6.340 -1.5216 -0.2385  1.1198
17614TIP3    H274334   3.243   3.064   6.189 -0.8552 -1.4961  0.9965
17615TIP3   OH274335   5.738   1.245   3.503  0.5466 -0.3258 -0.1117
17615TIP3    H174336   5.656   1.197   3.510 -1.0876  0.6795 -6.5606
17615TIP3    H274337   5.800   1.182   3.468  0.7603  0.2954 -0.8782
17616TIP3   OH274338   1.005   2.124   6.667  0.2102 -0.1430  0.2294
17616TIP3    H174339   0.950   2.189   6.711  1.9884  2.0564 -0.6078
17616TIP3    H274340   1.093   2.141   6.701  1.0477 -0.7481 -1.5484
17617TIP3   OH274341   3.301   0.937   2.930  0.1858 -0.3262 -0.8075
17617TIP3    H174342   3.305   0.958   3.023  0.0845 -1.6743 -0.4686
17617TIP3    H274343   3.267   1.016   2.888 -1.7870 -0.3638  0.5733
17618TIP3   OH274344   4.298   0.580  14.093 -0.6263 -0.4028 -0.3092
17618TIP3    H174345   4.313   0.589  14.187 -0.6593 -0.7561 -0.2708
17618TIP3    H274346   4.274   0.669  14.065 -3.7302 -0.8450  0.5748
17619TIP3   OH274347   6.481   3.180  11.816  0.0034  0.1361  0.4444
17619TIP3    H174348   6.512   3.091  11.800 -2.2793 -0.8378  1.0208
17619TIP3    H274349   6.516   3.231  11.742  0.7553 -1.3678 -0.2917
17620TIP3   OH274350   5.141   3.111   5.585 -0.4795 -0.2983 -0.3486
17620TIP3    H174351   5.135   3.096   5.679 -1.0133  1.3246 -0.0949
17620TIP3    H274352   5.064   3.067   5.549 -0.4896 -0.5836  0.0125
17621TIP3   OH274353   2.451   0.621  13.971  0.3142  0.2071  0.4935
17621TIP3    H174354   2.370   0.570  13.971  0.2715  0.2633  1.5468
17621TIP3    H274355   2.521   0.555  13.966  0.2334  0.0996  0.7976
17622TIP3   OH274356   6.816   4.183  16.034 -0.3182 -0.1758  0.0143
17622TIP3    H174357   6.730   4.155  16.066 -0.7622  0.6380 -0.4446
17622TIP3    H274358   6.832   4.266  16.077  0.0199 -0.0856 -0.2840
17623TIP3   OH274359   0.850   1.530  16.908  0.1476  1.1127  0.7550
17623TIP3    H174360   0.854   1.566  16.997  0.9204 -0.2742  1.3212
17623TIP3    H274361   0.764   1.488  16.903  0.6373 -0.0085  1.3712
17624TIP3   OH274362   1.973   0.072   0.814  0.0974 -0.6739  0.2781
17624TIP3    H174363   1.880   0.080   0.837  0.3094  1.5602  0.5585
17624TIP3    H274364   1.984   0.134   0.742  1.3903 -0.9022  0.2713
17625TIP3   OH274365   1.306   0.978   5.983  0.1927  0.1668 -0.0125
17625TIP3    H174366   1.265   1.061   5.961 -0.2854  0.1573  0.8015
17625TIP3    H274367   1.346   0.994   6.069  1.9327  0.1893 -0.7722
17626TIP3   OH274368   0.761   4.786   5.339  0.3135  0.1813 -0.3082
17626TIP3    H174369   0.752   4.777   5.434  0.5869  3.0140  0.0886
17626TIP3    H274370   0.678   4.754   5.304  1.0340 -2.9921  0.6098
17627TIP3   OH274371   0.180   3.615   2.278  0.1883 -0.1336  0.2237
17627TIP3    H174372   0.234   3.586   2.351 -0.9316  2.5069  2.2914
17627TIP3    H274373   0.242   3.639   2.209  1.4871  0.0184  1.4052
17628TIP3   OH274374   1.815   3.645   1.729  0.6027  0.4159  0.2616
17628TIP3    H174375   1.798   3.575   1.666  1.0035  1.8183 -1.4853
17628TIP3    H274376   1.797   3.726   1.680  0.0291  1.5512  2.2477
17629TIP3   OH274377   1.229   4.501   2.299  0.2889  0.2361 -0.3165
17629TIP3    H174378   1.253   4.433   2.362 -0.5904  0.1824 -0.0284
17629TIP3    H274379   1.170   4.457   2.238  0.9191  0.3584 -1.0255
17630TIP3   OH274380   0.154   4.877   3.082  0.2262  1.2081  0.2110
17630TIP3    H174381   0.235   4.842   3.117 -0.3349  0.6269  0.9537
17630TIP3    H274382   0.154   4.851   2.990 -0.1431 -0.7096  0.7248
17631TIP3   OH274383   1.133   3.010   5.409  0.5827  0.4780  0.1056
17631TIP3    H174384   1.151   3.076   5.476  3.3599  0.1929 -0.2724
17631TIP3    H274385   1.148   2.926   5.453  1.7490  0.2710 -0.6602
17632TIP3   OH274386   4.146   3.786   2.681 -0.2549 -0.4889  0.4942
17632TIP3    H174387   4.219   3.763   2.738  1.1649  0.5041 -0.8406
17632TIP3    H274388   4.097   3.704   2.671 -0.2885 -0.7939  2.6996
17633TIP3   OH274389   0.285   3.219  12.970  0.1640 -0.1098  0.3542
17633TIP3    H174390   0.210   3.175  12.931  0.5259  0.5009 -1.1054
17633TIP3    H274391   0.251   3.304  12.998  0.1117 -0.1803  0.5032
17634TIP3   OH274392   3.668   2.865  17.203 -0.0813  0.5436 -0.2654
17634TIP3    H174393   3.676   2.777  17.166 -0.2709  0.6629 -0.5954
17634TIP3    H274394   3.611   2.911  17.142 -1.9592  0.2015  1.1597
17635TIP3   OH274395   4.859   1.309   3.404  0.3304 -0.1244  0.2767
17635TIP3    H174396   4.921   1.291   3.475 -0.7683  1.1093  1.6177
17635TIP3    H274397   4.774   1.283   3.440 -0.0360 -1.3175 -1.3428
17636TIP3   OH274398   2.281   3.813   3.396  0.0409 -0.1016  0.1439
17636TIP3    H174399   2.353   3.835   3.337  0.4887 -0.5334  0.5253
17636TIP3    H274400   2.203   3.845   3.351  0.4488  0.2084 -0.3559
17637TIP3   OH274401   5.910   1.337  14.901  0.3293 -0.1163  0.2587
17637TIP3    H174402   5.972   1.386  14.955 -1.5446  0.4979  1.9616
17637TIP3    H274403   5.824   1.373  14.923 -0.8716 -2.3026 -0.4898
17638TIP3   OH274404   4.730   1.675  16.054 -0.1852 -0.2078 -1.1459
17638TIP3    H174405   4.673   1.747  16.080  1.3957  0.5505  0.4596
17638TIP3    H274406   4.675   1.619  16.000 -2.1592  0.9509 -0.4472
17639TIP3   OH274407   0.311   4.433  11.042  0.3921  0.7183  0.3401
17639TIP3    H174408   0.389   4.378  11.052  0.6038  0.8857 -0.3606
17639TIP3    H274409   0.261   4.393  10.972 -0.2244  0.5472  0.8616
17640TIP3   OH274410   6.736   0.761  11.303 -0.0291  0.2097  0.0105
17640TIP3    H174411   6.760   0.828  11.366 -0.8046  1.6941 -1.1997
17640TIP3    H274412   6.645   0.740  11.323  0.3712 -0.9280  0.7368
17641TIP3   OH274413   0.341   1.264  12.116 -0.2275  0.0636  0.1535
17641TIP3    H174414   0.310   1.182  12.076  0.3693 -0.1084  0.0315
17641TIP3    H274415   0.432   1.246  12.138 -0.0651  0.7332  0.0353
17642TIP3   OH274416   4.297   4.586   0.816  0.2393 -0.4318  0.1022
17642TIP3    H174417   4.281   4.606   0.908 -1.0930 -0.9116 -0.0001
17642TIP3    H274418   4.349   4.506   0.818 -0.8283 -1.1456  0.4575
17643TIP3   OH274419   5.817   3.405  11.560  0.1284  0.0106 -0.3852
17643TIP3    H174420   5.874   3.331  11.541 -1.1839 -1.0200 -0.4256
17643TIP3    H274421   5.832   3.423  11.653 -1.7145 -2.2922  0.4456
17644TIP3   OH274422   6.193   2.026   1.751  0.3124 -0.2691  0.2606
17644TIP3    H174423   6.281   2.060   1.740 -0.6339  2.1413 -0.5748
17644TIP3    H274424   6.201   1.932   1.735  2.2996  0.2424 -2.3714
17645TIP3   OH274425   1.463   6.445  15.110  0.2955 -0.7658 -0.2432
17645TIP3    H174426   1.493   6.372  15.165 -0.1140 -0.0730  0.9316
17645TIP3    H274427   1.396   6.489  15.162 -1.7611 -1.3857 -2.1992
17646TIP3   OH274428   6.280   2.899   3.365 -0.0227 -0.0633 -0.1568
17646TIP3    H174429   6.335   2.864   3.434  0.1240 -1.0820 -0.7643
17646TIP3    H274430   6.249   2.983   3.398  3.2954  1.4496 -0.4975
17647TIP3   OH274431   2.335   0.067  11.367  0.2782 -0.0019 -0.5414
17647TIP3    H174432   2.333   0.130  11.439 -0.7520 -1.8311  1.1182
17647TIP3    H274433   2.428   0.045  11.357  0.3709 -0.2520  0.7291
17648TIP3   OH274434   4.652   4.408  14.263  0.3364  0.0414  0.1463
17648TIP3    H174435   4.566   4.413  14.221 -0.0275  0.8411  0.9686
17648TIP3    H274436   4.692   4.330  14.224 -1.1622 -0.9618  0.4784
17649TIP3   OH274437   5.501   4.246   0.051  0.2855 -0.2007 -0.7340
17649TIP3    H174438   5.441   4.216  -0.016 -1.3903  1.2688 -0.0001
17649TIP3    H274439   5.554   4.170   0.073 -0.0549 -1.0591 -2.7082
17650TIP3   OH274440   0.758   2.016  14.190  0.0853  0.3369 -0.3672
17650TIP3    H174441   0.810   2.093  14.167 -0.3846  0.2791 -1.7136
17650TIP3    H274442   0.667   2.041  14.173  0.0096 -0.8705 -2.0411
17651TIP3   OH274443   3.280   6.799  16.119 -0.0939  0.5347  0.3467
17651TIP3    H174444   3.352   6.798  16.056 -0.5848  1.9216 -0.2842
17651TIP3    H274445   3.285   6.884  16.161 -2.4803  1.5213 -1.1196
17652TIP3   OH274446   2.798   2.154  16.049  0.4998  0.2058  0.2064
17652TIP3    H174447   2.712   2.193  16.064  1.0788  1.3953  0.5131
17652TIP3    H274448   2.795   2.123  15.958  0.1322  1.2768 -0.1642
17653TIP3   OH274449   4.561   1.211   0.888  0.4169 -0.0664 -0.3358
17653TIP3    H174450   4.652   1.234   0.869  1.4407 -0.4984  3.4256
17653TIP3    H274451   4.558   1.116   0.877  0.1105  0.0539 -1.4127
17654TIP3   OH274452   2.618   4.917   0.786 -0.3181 -0.1712 -0.7562
17654TIP3    H174453   2.689   4.926   0.722 -0.5544  1.1824 -0.8544
17654TIP3    H274454   2.548   4.874   0.738  0.2940 -1.2044 -0.7578
17655TIP3   OH274455   1.668   5.862   6.076 -0.3907 -0.8354  0.0872
17655TIP3    H174456   1.629   5.882   6.161  0.5584  1.5226  0.0329
17655TIP3    H274457   1.623   5.920   6.015  1.9149  0.6862 -0.2634
17656TIP3   OH274458   1.226   4.449   3.654  0.2896 -0.8117  0.6022
17656TIP3    H174459   1.199   4.363   3.621  0.8646 -0.6038 -0.4608
17656TIP3    H274460   1.219   4.507   3.578 -0.1501  0.1093  1.3173
17657TIP3   OH274461   5.280   3.591  16.381  0.2062 -0.3728 -1.0226
17657TIP3    H174462   5.363   3.543  16.378 -0.0837 -0.9021 -0.6744
17657TIP3    H274463   5.306   3.683  16.378  0.7798 -0.5404 -1.4412
17658TIP3   OH274464   6.367   6.309  11.689  0.4075 -0.0188 -0.0774
17658TIP3    H174465   6.367   6.403  11.705 -0.1591 -0.2470  1.3724
17658TIP3    H274466   6.403   6.300  11.601  1.0469  1.5123 -0.0052
17659TIP3   OH274467   1.629   1.704  15.507 -0.3037 -0.4738  0.2694
17659TIP3    H174468   1.540   1.715  15.542 -0.8890 -1.6159 -0.7698
17659TIP3    H274469   1.686   1.718  15.582 -1.0543  4.2321  0.2838
17660TIP3   OH274470   0.288   0.427   3.480 -0.8056 -0.9302 -0.7212
17660TIP3    H174471   0.277   0.339   3.444 -1.3694 -0.5597 -1.4781
17660TIP3    H274472   0.323   0.479   3.408  0.7222 -0.8025  0.0759
17661TIP3   OH274473   0.197   5.909   2.538  0.4934  0.1351 -0.2157
17661TIP3    H174474   0.199   6.004   2.531 -0.5612  0.1386 -0.6919
17661TIP3    H274475   0.275   5.880   2.490 -0.4003  0.6791 -2.0858
17662TIP3   OH274476   3.828   3.106   6.783  0.4842  0.6863 -0.0088
17662TIP3    H174477   3.752   3.144   6.826  0.0112  1.8236 -1.7642
17662TIP3    H274478   3.813   3.011   6.788 -1.0033  0.8859 -0.2135
17663TIP3   OH274479   0.038   5.598  15.583  0.0660  0.1086  0.0118
17663TIP3    H174480   0.004   5.532  15.523 -1.5620  1.9905 -1.2554
17663TIP3    H274481   0.009   5.569  15.669 -1.6731 -0.2514 -0.6468
17664TIP3   OH274482   5.665   5.991  15.294  0.1104  0.3144 -0.1435
17664TIP3    H174483   5.664   5.955  15.205  0.7100 -0.0477 -0.0018
17664TIP3    H274484   5.652   5.915  15.351  2.0218  0.1985  0.1901
17665TIP3   OH274485   5.056   6.293   5.760  0.0896  0.1815  0.4922
17665TIP3    H174486   5.046   6.245   5.843  1.3911  0.0933  0.6175
17665TIP3    H274487   5.112   6.366   5.782 -0.0715  0.5133 -0.1931
17666TIP3   OH274488   0.053   5.785  16.625 -0.4628 -0.2275  0.0553
17666TIP3    H174489   0.147   5.799  16.632 -0.6336  1.8203 -0.9548
17666TIP3    H274490   0.040   5.747  16.538 -0.6067  0.0956 -0.0684
17667TIP3   OH274491   3.403   3.493  15.426  0.1845 -0.3093 -0.4461
17667TIP3    H174492   3.456   3.565  15.394  1.9401 -1.0933  0.5663
17667TIP3    H274493   3.322   3.534  15.457 -0.0947  0.8368 -2.5551
17668TIP3   OH274494   2.339   5.411   0.114  0.2276 -0.3526  0.2954
17668TIP3    H174495   2.312   5.366   0.195  0.3241 -0.7458  0.1096
17668TIP3    H274496   2.288   5.493   0.115  0.5957 -0.1176  1.0035
17669TIP3   OH274497   1.879   6.227   1.163 -0.0971 -0.1256  0.2712
17669TIP3    H174498   1.792   6.265   1.152  0.0072 -0.0180 -0.2645
17669TIP3    H274499   1.875   6.144   1.117  0.2975  0.2285 -0.4267
17670TIP3   OH274500   3.251   3.403  17.116  0.0221  0.5351  0.3125
17670TIP3    H174501   3.286   3.488  17.089  1.1653 -0.2077 -0.6513
17670TIP3    H274502   3.324   3.359  17.158 -0.8552  0.4103  1.7782
17671TIP3   OH274503   0.831   0.630  15.779  0.5221  0.0505  0.1629
17671TIP3    H174504   0.829   0.636  15.874 -1.2390 -1.3400  0.2551
17671TIP3    H274505   0.923   0.643  15.756  0.8946  0.8886  1.9927
17672TIP3   OH274506   5.584   4.686  17.157  0.0923 -0.2418 -0.2558
17672TIP3    H174507   5.509   4.676  17.217  0.6110 -1.6503  0.2043
17672TIP3    H274508   5.660   4.660  17.210  0.3556 -3.5737 -2.0188
17673TIP3   OH274509   5.123   4.102   3.337  0.0135 -0.4562 -0.1589
17673TIP3    H174510   5.172   4.173   3.378 -0.6269  0.8873 -1.6029
17673TIP3    H274511   5.188   4.036   3.318  0.9917  0.5909 -0.5587
17674TIP3   OH274512   5.571   0.746  16.697 -0.2916 -0.4082  0.0077
17674TIP3    H174513   5.635   0.684  16.732 -0.9460 -1.5594 -0.7815
17674TIP3    H274514   5.486   0.711  16.724 -0.6812  0.0395 -0.6161
17675TIP3   OH274515   0.775   1.067  12.478 -0.1878 -0.0713 -0.0218
17675TIP3    H174516   0.757   1.095  12.388 -0.7687  0.4973  0.2628
17675TIP3    H274517   0.707   1.001  12.496 -0.3209  0.1106  0.1390
17676TIP3   OH274518   0.531   6.441   4.528  0.1679  0.1084  0.1507
17676TIP3    H174519   0.556   6.349   4.541 -0.9908 -0.2356  0.0479
17676TIP3    H274520   0.572   6.487   4.601  4.2677  0.2525 -1.9569
17677TIP3   OH274521   1.049   5.344   3.959 -0.2730 -0.0155 -0.1953
17677TIP3    H174522   1.105   5.333   3.882 -0.8619  1.0311 -0.7956
17677TIP3    H274523   1.025   5.436   3.959 -1.1443 -0.2202  0.6457
17678TIP3   OH274524   1.672   4.426   3.206 -0.0336  0.1439  0.7147
17678TIP3    H174525   1.737   4.465   3.148  2.0250 -0.3876  2.5048
17678TIP3    H274526   1.669   4.333   3.182 -2.3658  0.6164 -1.2437
17679TIP3   OH274527   0.370   0.103  16.125 -0.0858 -0.4781  0.5365
17679TIP3    H174528   0.383   0.021  16.173 -0.6901 -0.4890  0.6974
17679TIP3    H274529   0.413   0.170  16.177  1.1597 -0.8108 -0.0299
17680TIP3   OH274530   3.365   0.341  16.909  0.6734  0.2354  0.1996
17680TIP3    H174531   3.423   0.305  16.975 -2.1471 -0.3149  2.5811
17680TIP3    H274532   3.346   0.268  16.851  2.1687  0.3916 -0.5303
17681TIP3   OH274533   1.866   6.079  16.248 -0.3399 -0.0632 -0.3176
17681TIP3    H174534   1.938   6.134  16.218 -0.3139 -0.9833 -2.0523
17681TIP3    H274535   1.821   6.132  16.314 -1.0754  2.5720 -2.7539
17682TIP3   OH274536   1.918   4.873  13.020  0.3301  0.1676 -0.2155
17682TIP3    H174537   1.825   4.867  12.998 -0.0318  1.5477  0.8057
17682TIP3    H274538   1.919   4.895  13.113  1.6531  1.2341 -0.4518
17683TIP3   OH274539   6.494   2.512   2.890  0.6027 -0.3031 -0.2772
17683TIP3    H174540   6.460   2.558   2.967 -1.6099 -0.0992 -1.3023
17683TIP3    H274541   6.517   2.425   2.922 -0.2795 -0.2174  0.6406
17684TIP3   OH274542   0.708   1.527  13.398  0.0293  0.0523  0.6554
17684TIP3    H174543   0.618   1.495  13.398  0.5418 -1.6080 -1.3675
17684TIP3    H274544   0.700   1.617  13.365 -0.8290 -0.4858 -0.7342
17685TIP3   OH274545   4.054   5.931  12.345 -0.0409 -0.0016 -0.4515
17685TIP3    H174546   4.021   5.962  12.430  2.1570  1.6779 -0.1105
17685TIP3    H274547   3.978   5.933  12.287 -0.9730  1.7073  0.7522
17686TIP3   OH274548   4.325   0.868  11.906 -0.2802  0.2330 -0.4366
17686TIP3    H174549   4.371   0.883  11.823 -1.3083 -0.3653 -1.1475
17686TIP3    H274550   4.316   0.954  11.945  1.1656  0.3955 -0.4225
17687TIP3   OH274551   4.022   0.770  16.283 -0.2581  0.1556 -0.1074
17687TIP3    H174552   4.000   0.690  16.330 -0.6508 -0.1826 -0.8543
17687TIP3    H274553   3.985   0.759  16.196  0.2056  0.8937 -0.4179
17688TIP3   OH274554   1.826   6.768  12.117  0.1801  0.4151  0.4800
17688TIP3    H174555   1.819   6.726  12.031  0.3764  2.2677 -0.4786
17688TIP3    H274556   1.750   6.826  12.121  1.1332  1.6651  0.8084
17689TIP3   OH274557   2.529   6.392   2.949  0.2734 -0.1930 -0.5261
17689TIP3    H174558   2.607   6.339   2.933  1.2471  0.7007  1.0219
17689TIP3    H274559   2.559   6.482   2.941 -0.4771  0.1796  0.5696
17690TIP3   OH274560   0.073   3.088   3.066  0.3050  0.2656 -0.3069
17690TIP3    H174561   0.061   3.028   3.140  1.2964 -1.4146 -1.4275
17690TIP3    H274562  -0.001   3.148   3.071 -1.1005 -1.4527  0.5171
17691TIP3   OH274563   3.437   1.098   3.929 -1.0292  0.4780 -0.2209
17691TIP3    H174564   3.493   1.099   3.851 -0.0401 -0.2160  0.4549
17691TIP3    H274565   3.431   1.190   3.954  1.8651  0.4348  1.0620
17692TIP3   OH274566   0.580   2.312   5.748  0.6432  0.5396  0.1433
17692TIP3    H174567   0.657   2.293   5.802 -0.4156  0.9359  1.8780
17692TIP3    H274568   0.515   2.347   5.810 -1.0321 -0.0252 -1.2091
17693TIP3   OH274569   6.332   0.066   0.115  0.3645 -0.1437  0.3599
17693TIP3    H174570   6.364   0.013   0.041 -0.3135  0.3346 -0.2897
17693TIP3    H274571   6.265   0.011   0.156 -0.0800  0.0628 -0.0897
17694TIP3   OH274572   0.443   2.498  16.056  0.4000 -0.2952 -0.1033
17694TIP3    H174573   0.533   2.524  16.077  0.7026 -1.2201 -0.2411
17694TIP3    H274574   0.432   2.412  16.096 -0.9888  0.5075  1.3345
17695TIP3   OH274575   4.224   3.303   1.641 -0.2176 -0.4132 -0.4695
17695TIP3    H174576   4.130   3.317   1.647  0.1841  2.5273  0.5488
17695TIP3    H274577   4.257   3.379   1.593  1.6978 -1.2033 -0.5231
17696TIP3   OH274578   5.428   5.316   6.017 -0.3013  0.0463 -0.2073
17696TIP3    H174579   5.366   5.388   6.031 -1.4795 -0.6829 -1.4435
17696TIP3    H274580   5.474   5.339   5.936  0.2989  0.0589  0.1300
17697TIP3   OH274581   0.033   4.706  15.146 -0.3216  0.0531  0.1541
17697TIP3    H174582   0.041   4.662  15.231 -0.3751  1.9681  1.2082
17697TIP3    H274583   0.121   4.737  15.127 -0.7728  1.7958  0.7698
17698TIP3   OH274584   1.696   0.769  16.332 -0.1927 -0.1665 -0.3183
17698TIP3    H174585   1.720   0.757  16.424 -0.7092 -0.1836 -0.1816
17698TIP3    H274586   1.739   0.851  16.306 -1.7403  0.9811  0.5495
17699TIP3   OH274587   6.534   6.426   2.000 -0.4187  0.7272 -0.3849
17699TIP3    H174588   6.579   6.495   2.049  2.8688 -0.4743 -1.3750
17699TIP3    H274589   6.499   6.367   2.067 -0.8502  1.9012  0.4544
17700TIP3   OH274590   3.774   0.984   4.807 -0.0972 -0.2892  0.4975
17700TIP3    H174591   3.789   1.025   4.722 -0.0763 -0.3791  0.4582
17700TIP3    H274592   3.860   0.987   4.850  0.6019 -2.7205 -0.5471
17701TIP3   OH274593   6.160   5.133   2.879 -0.3744  0.2918 -0.0989
17701TIP3    H174594   6.121   5.078   2.811 -0.4449 -0.6783  0.7019
17701TIP3    H274595   6.090   5.193   2.905 -0.4878  0.3596 -0.5476
17702TIP3   OH274596   0.928   4.495   2.947  0.1674  0.6389 -0.2327
17702TIP3    H174597   1.001   4.450   2.988 -1.1046  1.1772  2.9275
17702TIP3    H274598   0.959   4.585   2.935  1.0593  0.1353 -1.9931
17703TIP3   OH274599   3.808   6.267  14.160 -0.0009 -0.3500 -0.0414
17703TIP3    H174600   3.787   6.360  14.166  0.4410 -0.3122  1.5049
17703TIP3    H274601   3.733   6.223  14.200  0.4213 -0.5479  0.5558
17704TIP3   OH274602   5.180   2.287  12.197  0.3369  0.0341  0.3555
17704TIP3    H174603   5.180   2.373  12.154 -0.2324 -0.4564 -0.6565
17704TIP3    H274604   5.181   2.307  12.290  1.5284  1.1308  0.1390
17705TIP3   OH274605   1.388   3.616   1.636 -0.4249  0.0317 -0.3232
17705TIP3    H174606   1.407   3.704   1.603 -2.2979 -0.1504 -2.0951
17705TIP3    H274607   1.324   3.581   1.574 -0.8981 -2.0049  1.2236
17706TIP3   OH274608   0.435   4.374  13.409 -0.3853  0.1020 -0.2478
17706TIP3    H174609   0.511   4.379  13.351  0.4013 -0.3432  0.6977
17706TIP3    H274610   0.463   4.314  13.479 -0.8992  1.4154  1.1449
17707TIP3   OH274611   3.259   5.515  13.553 -0.2097  0.4802  0.2778
17707TIP3    H174612   3.190   5.512  13.620 -0.8701  0.5567 -0.3854
17707TIP3    H274613   3.336   5.547  13.599 -0.8338  1.1872  0.8495
17708TIP3   OH274614   6.421   4.063  13.967  0.0515 -0.5926  0.2239
17708TIP3    H174615   6.337   4.107  13.983 -0.4810 -1.4581 -0.1145
17708TIP3    H274616   6.447   4.029  14.052  1.4782  2.0212  0.9379
17709TIP3   OH274617   3.232   1.085  11.646  0.4054 -0.0441 -0.5094
17709TIP3    H174618   3.210   1.135  11.567  0.4899  2.1990  0.8111
17709TIP3    H274619   3.154   1.031  11.662 -1.4695  2.6312  0.1922
17710TIP3   OH274620   2.731   5.919  10.387 -0.1680 -0.1057  0.8070
17710TIP3    H174621   2.705   5.866  10.462  1.4873  0.7408  2.0271
17710TIP3    H274622   2.705   6.008  10.411 -0.8397 -0.0033 -0.2290
17711TIP3   OH274623   0.968   4.222  16.018  0.2206 -0.0182  0.0459
17711TIP3    H174624   0.887   4.247  15.973 -0.5448 -0.9314  0.8630
17711TIP3    H274625   1.032   4.288  15.992 -1.4526  2.3012  1.4224
17712TIP3   OH274626   4.888   3.436  13.046 -0.4558  0.0468  0.0908
17712TIP3    H174627   4.853   3.468  13.130 -1.9878 -1.5833  0.1185
17712TIP3    H274628   4.936   3.356  13.069  0.0992  0.2165 -0.4545
17713TIP3   OH274629   1.462   6.315  14.158 -0.4415 -0.7795 -0.4636
17713TIP3    H174630   1.534   6.331  14.219 -2.1185  0.5049  1.3138
17713TIP3    H274631   1.419   6.237  14.193 -0.5730 -0.8977 -0.8833
17714TIP3   OH274632   4.926   0.642   5.814  0.1920  0.1223 -0.6847
17714TIP3    H174633   4.864   0.644   5.887  1.3891  0.4632  0.3566
17714TIP3    H274634   4.907   0.721   5.764  0.8586  1.1308  0.5852
17715TIP3   OH274635   6.559   5.252   1.119  0.1977 -0.0349  0.3948
17715TIP3    H174636   6.547   5.250   1.024 -1.8891 -5.8362  0.4001
17715TIP3    H274637   6.472   5.272   1.154  0.3763 -0.3940  1.0594
17716TIP3   OH274638   0.253   6.081   1.774 -0.1941 -0.2341  0.1663
17716TIP3    H174639   0.171   6.043   1.744 -0.1209 -0.4753  0.2732
17716TIP3    H274640   0.286   6.129   1.698 -0.8710  0.6129  0.3874
17717TIP3   OH274641   4.904   2.506  13.808  0.4990 -0.0928  0.6322
17717TIP3    H174642   4.967   2.436  13.788  1.9068  0.7869  1.7809
17717TIP3    H274643   4.851   2.514  13.729  1.4648 -1.2571 -0.1694
17718TIP3   OH274644   0.482   0.859  12.034 -0.3520  0.0892 -0.0340
17718TIP3    H174645   0.562   0.861  12.087  0.6350  0.2521 -1.4847
17718TIP3    H274646   0.462   0.766  12.024 -0.4141  0.0511  0.4142
17719TIP3   OH274647   2.070   2.619  12.038  0.2408  0.3162  0.1708
17719TIP3    H174648   2.025   2.669  12.106 -1.3075 -0.2872 -0.3629
17719TIP3    H274649   2.121   2.554  12.085 -1.4350 -0.6161  0.7838
17720TIP3   OH274650   4.230   5.236   4.761 -0.5762 -0.0133  0.2228
17720TIP3    H174651   4.149   5.286   4.769  0.3306  1.6386 -0.4421
17720TIP3    H274652   4.292   5.298   4.723  1.0733 -1.1703  0.9488
17721TIP3   OH274653   5.223   5.982  13.037  0.8264 -0.1484  0.0804
17721TIP3    H174654   5.150   6.037  13.064  0.7778  0.1748 -0.6961
17721TIP3    H274655   5.240   5.926  13.113 -0.3825 -0.3960  0.1840
17722TIP3   OH274656   4.470   6.453  13.318  0.4027  0.2757  0.3914
17722TIP3    H174657   4.379   6.479  13.334  1.1853  4.1136 -0.4410
17722TIP3    H274658   4.522   6.515  13.368  2.6083 -0.4974 -0.8023
17723TIP3   OH274659   6.123   2.619  12.220 -0.0697 -0.2480  0.2713
17723TIP3    H174660   6.082   2.589  12.301 -1.7054 -1.5361 -0.9356
17723TIP3    H274661   6.113   2.545  12.160 -0.0627  1.1082 -1.4869
17724TIP3   OH274662   3.143   3.800   4.801  0.6496  0.1860  0.1126
17724TIP3    H174663   3.196   3.744   4.857  1.5369 -0.9669 -1.7522
17724TIP3    H274664   3.146   3.886   4.843  0.8208 -0.7225  2.0542
17725TIP3   OH274665   3.269   0.187  11.626 -0.2995 -0.0517  0.3870
17725TIP3    H174666   3.247   0.147  11.542 -1.3959 -1.4027  1.2577
17725TIP3    H274667   3.340   0.132  11.661 -0.4808 -0.0724  0.7321
17726TIP3   OH274668   0.643   6.394  15.961 -0.1395  0.0412  0.0463
17726TIP3    H174669   0.635   6.470  16.019 -0.1935  1.7661 -2.0759
17726TIP3    H274670   0.734   6.367  15.968 -0.6125 -1.2510  2.5374
17727TIP3   OH274671   5.859   4.051   5.488 -0.1644 -1.0433  0.5955
17727TIP3    H174672   5.766   4.072   5.477 -0.0408 -1.6164 -2.3576
17727TIP3    H274673   5.898   4.068   5.403  2.5382 -0.6239  1.7946
17728TIP3   OH274674   1.006   6.365  16.551  0.1551 -0.3530 -0.1521
17728TIP3    H174675   1.097   6.374  16.578 -0.0167  1.2689  0.0042
17728TIP3    H274676   1.011   6.324  16.465  1.0912  0.3208 -0.4418
17729TIP3   OH274677   1.208   1.701  12.788 -0.5627 -0.9520 -0.2712
17729TIP3    H174678   1.234   1.617  12.825 -0.5262 -0.0889  1.7957
17729TIP3    H274679   1.286   1.731  12.740  0.3990 -0.8998  1.2519
17730TIP3   OH274680   0.416   5.335   3.530  0.6132  0.1017  0.0064
17730TIP3    H174681   0.354   5.268   3.557 -1.2929  0.8173 -2.2484
17730TIP3    H274682   0.445   5.376   3.611 -2.0647 -0.1221  1.1781
17731TIP3   OH274683   3.684   4.845  12.236  0.1579  0.3922 -0.5495
17731TIP3    H174684   3.589   4.836  12.236 -0.3295  4.0968  0.4367
17731TIP3    H274685   3.712   4.804  12.154 -2.2918 -0.5566 -0.9933
17732TIP3   OH274686   5.505   1.062  17.174 -0.6902 -0.4292  0.0592
17732TIP3    H174687   5.566   1.002  17.218 -1.1934 -1.8899 -1.1362
17732TIP3    H274688   5.522   1.048  17.080  0.0389  2.2444 -0.2956
17733TIP3   OH274689   0.264   6.123  10.920  0.3284 -0.3192 -0.2889
17733TIP3    H174690   0.311   6.050  10.961  0.5954  0.0489  0.0663
17733TIP3    H274691   0.327   6.161  10.859  0.6375  0.4069  0.4567
17734TIP3   OH274692   4.493   6.460   3.275 -0.4837  0.1474  0.2486
17734TIP3    H174693   4.454   6.396   3.216 -0.7936 -2.1842  2.7842
17734TIP3    H274694   4.421   6.486   3.333  0.4649 -0.0032  1.5281
17735TIP3   OH274695   2.119   0.786  15.402  0.0146 -0.5247 -0.1021
17735TIP3    H174696   2.066   0.711  15.430 -0.7589 -0.4495 -1.2842
17735TIP3    H274697   2.124   0.777  15.307 -1.2020  1.6239 -0.4197
17736TIP3   OH274698   4.372   5.571   1.607 -0.5489 -0.5214  0.5170
17736TIP3    H174699   4.306   5.530   1.662 -0.2430 -2.6056 -0.5739
17736TIP3    H274700   4.329   5.585   1.523  0.0504 -0.8200  0.1511
17737TIP3   OH274701   4.664   4.693   3.117 -0.4563 -0.5103  0.1453
17737TIP3    H174702   4.580   4.725   3.087  0.8915  2.5536 -0.6725
17737TIP3    H274703   4.705   4.654   3.039 -1.4487 -3.0720  0.7895
17738TIP3   OH274704   5.807   2.061  13.534 -0.3906  0.5318 -0.0409
17738TIP3    H174705   5.773   2.106  13.611 -1.9958  1.3008 -1.1427
17738TIP3    H274706   5.778   1.971  13.543 -1.9440  0.9679 -0.4883
17739TIP3   OH274707   1.718   6.794  12.807 -0.1090  0.1969 -0.0428
17739TIP3    H174708   1.708   6.794  12.902 -0.8890 -0.7010 -0.1135
17739TIP3    H274709   1.799   6.843  12.792 -0.9224  1.9192  0.9590
17740TIP3   OH274710   3.844   1.013   3.996  0.1647  0.3335 -0.3587
17740TIP3    H174711   3.816   0.921   4.005 -3.1264  1.3853  2.6376
17740TIP3    H274712   3.870   1.038   4.084  1.8499  2.1103 -1.3091
17741TIP3   OH274713   1.658   5.294   1.798  0.7940 -0.1688 -0.4488
17741TIP3    H174714   1.650   5.309   1.892  1.8721  0.9958 -0.5239
17741TIP3    H274715   1.670   5.199   1.790 -2.6349 -0.7969  0.3037
17742TIP3   OH274716   1.596   2.499   1.992 -0.1739 -0.0639 -0.3711
17742TIP3    H174717   1.514   2.520   1.946 -0.8109 -1.2502  0.1749
17742TIP3    H274718   1.664   2.507   1.925 -0.5197  2.2395 -0.5409
17743TIP3   OH274719   5.235   5.832  12.406  0.6279  0.1281  0.1785
17743TIP3    H174720   5.185   5.892  12.463 -0.9672 -0.6129 -0.3876
17743TIP3    H274721   5.276   5.889  12.342  1.8448  0.9099  1.5883
17744TIP3   OH274722   1.373   5.456   3.139 -0.0060  0.0644 -0.1397
17744TIP3    H174723   1.324   5.403   3.202 -1.1220  1.0253 -0.1752
17744TIP3    H274724   1.322   5.537   3.130  1.0071  0.6332 -1.0257
17745TIP3   OH274725   5.026   2.040  12.165 -0.1203  0.1092 -0.0831
17745TIP3    H174726   5.000   2.041  12.257 -0.4388  1.9660 -0.1362
17745TIP3    H274727   5.077   2.120  12.154  0.0010 -0.1351 -1.4958
17746TIP3   OH274728   4.965   4.191  13.569  0.7546  0.1453  0.4471
17746TIP3    H174729   4.873   4.202  13.593  0.1886  0.1311 -1.5204
17746TIP3    H274730   5.005   4.276  13.590 -0.0838  0.7158 -0.1753
17747TIP3   OH274731   2.415   0.688  12.586 -0.4065  0.2709 -0.1495
17747TIP3    H174732   2.324   0.718  12.593 -0.6982 -0.7147  0.4379
17747TIP3    H274733   2.412   0.619  12.520  0.3516  1.8008 -1.8639
17748TIP3   OH274734   6.122   1.054  15.363 -0.2104  0.5480  0.4095
17748TIP3    H174735   6.121   0.969  15.318 -0.1470  0.4537  0.5824
17748TIP3    H274736   6.186   1.106  15.315 -2.3594  1.5402 -1.5562
17749TIP3   OH274737   6.307   5.589   1.556 -0.3831 -0.6821  0.0896
17749TIP3    H174738   6.236   5.533   1.587 -0.0629 -1.6087 -0.8225
17749TIP3    H274739   6.372   5.529   1.520 -0.3715  0.3035 -1.6294
17750TIP3   OH274740   1.118   2.010  16.068  0.2788  0.0196 -0.0892
17750TIP3    H174741   1.092   2.037  15.980  3.3965 -0.3973 -1.2671
17750TIP3    H274742   1.118   2.091  16.119 -1.1045  0.3446 -0.5702
17751TIP3   OH274743   1.062   1.454   5.829  0.0265  0.6961  0.3952
17751TIP3    H174744   1.033   1.533   5.875 -0.6925  1.4731 -1.2930
17751TIP3    H274745   1.103   1.486   5.749  0.9290 -0.6102  0.3035
17752TIP3   OH274746   2.007   4.294  11.959  0.1710 -0.0810 -0.4124
17752TIP3    H174747   2.006   4.292  11.864 -1.3642 -0.1524 -0.4162
17752TIP3    H274748   1.974   4.208  11.986  1.0360 -0.2422  0.2062
17753TIP3   OH274749   1.899   4.664   2.631  0.1871  0.0260  0.8439
17753TIP3    H174750   1.890   4.743   2.579 -0.1136  0.5829  1.7238
17753TIP3    H274751   1.936   4.694   2.714  0.8590 -0.8736  0.8848
17754TIP3   OH274752   2.479   2.474  15.390  0.5487  0.2869  0.0999
17754TIP3    H174753   2.423   2.551  15.395  1.7619  1.2436 -0.5297
17754TIP3    H274754   2.508   2.459  15.479 -0.8847 -0.3871  0.4864
17755TIP3   OH274755   5.564   1.841   1.479 -0.3291 -0.6457 -0.2062
17755TIP3    H174756   5.546   1.835   1.573  0.6768  1.4005  0.1644
17755TIP3    H274757   5.642   1.785   1.467 -0.4724 -0.9317  0.1573
17756TIP3   OH274758   3.012   4.965   0.264 -0.2075 -0.0661  0.5789
17756TIP3    H174759   3.045   4.877   0.249 -1.8757 -0.8295  1.1366
17756TIP3    H274760   3.061   4.996   0.341  0.9061 -0.1908 -0.0605
17757TIP3   OH274761   5.264   4.300   3.467 -0.0766  0.2672 -0.0240
17757TIP3    H174762   5.231   4.329   3.552  0.4435  2.1459 -0.4298
17757TIP3    H274763   5.359   4.306   3.475  0.1957 -2.8896  0.3676
17758TIP3   OH274764   6.812   6.191  16.282  0.2783  0.3884  0.3215
17758TIP3    H174765   6.718   6.181  16.268  0.0763 -0.6754  2.1469
17758TIP3    H274766   6.832   6.278  16.248 -1.8183  1.5516  1.8171
17759TIP3   OH274767   4.715   1.231   0.338  0.1696  0.0289  0.5372
17759TIP3    H174768   4.647   1.176   0.298  1.2033 -1.4709  0.7721
17759TIP3    H274769   4.758   1.273   0.264  1.8123 -2.4323 -0.0358
17760TIP3   OH274770   2.360   2.803   6.066  0.6224 -0.0821  0.0991
17760TIP3    H174771   2.338   2.710   6.067 -1.1124  0.2977  1.1338
17760TIP3    H274772   2.317   2.839   5.988  0.5133  0.0199  0.2053
17761TIP3   OH274773   3.511   4.303   1.770 -0.0484 -0.5903  0.5283
17761TIP3    H174774   3.550   4.362   1.835 -0.2236  1.4284 -1.1068
17761TIP3    H274775   3.553   4.327   1.687 -1.7819 -1.1764 -0.5800
17762TIP3   OH274776   5.039   0.570  15.704 -0.5152  0.2713 -0.6026
17762TIP3    H174777   4.948   0.598  15.691  0.2517  2.1792 -2.6401
17762TIP3    H274778   5.083   0.648  15.740  0.6281 -0.0460 -1.2534
17763TIP3   OH274779   4.309   5.176  13.451 -0.2123 -0.3471  0.0147
17763TIP3    H174780   4.368   5.205  13.381  0.2464 -0.1932  0.4621
17763TIP3    H274781   4.230   5.229  13.437  0.3700  0.6690  0.4170
17764TIP3   OH274782   6.620   4.963  16.121 -0.6811  0.1103  0.1311
17764TIP3    H174783   6.674   4.910  16.179 -1.2576  0.1239  0.6908
17764TIP3    H274784   6.615   5.049  16.164 -1.8716 -0.1467  0.5481
17765TIP3   OH274785   6.144   2.967   4.648 -0.5260  1.0075 -0.1022
17765TIP3    H174786   6.207   3.038   4.632 -0.1924  0.9077  0.7140
17765TIP3    H274787   6.183   2.916   4.720 -0.6402 -0.1560 -0.8446
17766TIP3   OH274788   4.402   6.045   6.131 -0.4094  0.1981 -0.6523
17766TIP3    H174789   4.363   5.959   6.118 -1.5729  0.6859 -0.5100
17766TIP3    H274790   4.432   6.071   6.044  0.6183 -0.6433 -0.5700
17767TIP3   OH274791   5.213   2.342  15.499  0.1312 -0.1731  0.6467
17767TIP3    H174792   5.207   2.405  15.428  0.8074  0.8313  1.4610
17767TIP3    H274793   5.128   2.297  15.499 -0.4165  0.8414  0.1498
17768TIP3   OH274794   4.601   6.475   4.120 -0.0238 -0.1879 -0.1291
17768TIP3    H174795   4.638   6.404   4.069  0.1277  0.0677 -0.3779
17768TIP3    H274796   4.552   6.527   4.057 -0.2575 -0.1547  0.0787
17769TIP3   OH274797   2.092   1.814  16.461  0.6518 -0.0590  0.3918
17769TIP3    H174798   2.159   1.754  16.494  1.1789  0.6518  0.6330
17769TIP3    H274799   2.133   1.901  16.465 -0.1900  0.3542  0.2919
17770TIP3   OH274800   0.058   1.300  15.787  0.4266  0.0973  0.1287
17770TIP3    H174801   0.082   1.367  15.722  0.6894  0.5310  0.6672
17770TIP3    H274802   0.118   1.315  15.860  0.1923 -0.4492  0.4387
17771TIP3   OH274803   2.992   0.824   1.542  0.2269 -0.3954 -0.2817
17771TIP3    H174804   2.945   0.741   1.549 -0.3327 -0.1046 -0.5308
17771TIP3    H274805   3.079   0.799   1.510 -0.5107 -0.7399 -2.1917
17772TIP3   OH274806   2.852   3.670  11.034 -0.3903 -0.5737 -0.9603
17772TIP3    H174807   2.790   3.649  10.964 -1.1502 -0.5458 -0.3063
17772TIP3    H274808   2.830   3.760  11.058 -0.6411 -0.8365 -0.1794
17773TIP3   OH274809   5.076   4.428   0.131 -0.3902 -0.0480 -0.8568
17773TIP3    H174810   5.069   4.488   0.057 -1.7472  0.5169 -0.3007
17773TIP3    H274811   5.006   4.365   0.118 -0.7507  0.1576  0.0291
17774TIP3   OH274812   4.920   1.803  12.098  0.2454  0.5884 -0.5822
17774TIP3    H174813   4.961   1.890  12.098  0.5751  0.5263  2.3261
17774TIP3    H274814   4.994   1.743  12.094  0.1247  0.4416 -0.5849
17775TIP3   OH274815   5.825   2.151   3.897  0.1025 -0.6868 -0.7280
17775TIP3    H174816   5.907   2.120   3.937  0.4358  1.2832  0.2458
17775TIP3    H274817   5.756   2.108   3.948  0.5330 -0.5755 -0.0405
17776TIP3   OH274818   2.689   5.362  14.049  0.0761  0.3531 -0.1671
17776TIP3    H174819   2.774   5.322  14.069 -0.7633 -1.4599 -0.0897
17776TIP3    H274820   2.672   5.338  13.958  0.4327  2.2527 -0.7811
17777TIP3   OH274821   0.194   6.755   1.197  0.7782 -0.0330  0.1615
17777TIP3    H174822   0.222   6.738   1.107  0.8562 -0.5126  0.2689
17777TIP3    H274823   0.191   6.668   1.237  1.1093  0.2139  0.7272
17778TIP3   OH274824   0.733   3.025  14.268  0.0971 -0.3188 -0.4705
17778TIP3    H174825   0.701   3.008  14.179  0.3120 -0.3173 -0.5493
17778TIP3    H274826   0.723   3.120  14.279 -0.4750 -0.4006 -0.2786
17779TIP3   OH274827   4.706   4.890  17.233 -0.2530  0.3741 -0.3082
17779TIP3    H174828   4.789   4.854  17.264 -0.0157  0.0882 -1.2598
17779TIP3    H274829   4.647   4.882  17.309  0.3595 -0.1560  0.1216
17780TIP3   OH274830   2.516   6.469  17.155  0.2874  0.3808  0.1549
17780TIP3    H174831   2.493   6.499  17.242 -1.6427 -1.0198  0.1810
17780TIP3    H274832   2.443   6.497  17.099  0.2341 -0.9739 -0.4946
17781TIP3   OH274833   5.795   3.409   3.509 -0.4248  0.1312 -0.4992
17781TIP3    H174834   5.718   3.461   3.533  0.2906  1.1037 -0.2426
17781TIP3    H274835   5.829   3.452   3.431 -0.0282 -0.1774 -0.4967
17782TIP3   OH274836   5.748   5.744  14.724  0.1446  0.2186  0.0616
17782TIP3    H174837   5.673   5.722  14.668 -1.4294  0.8625  1.8270
17782TIP3    H274838   5.803   5.800  14.669 -1.0205  0.3171 -1.0519
17783TIP3   OH274839   5.670   4.000  12.813  0.1379  0.2667  0.0775
17783TIP3    H174840   5.607   3.957  12.871  1.7502  0.7746  2.3276
17783TIP3    H274841   5.755   3.963  12.836  1.0481  1.6644 -0.8296
17784TIP3   OH274842   3.471   5.141  10.804 -0.2121 -0.1386  0.4052
17784TIP3    H174843   3.516   5.208  10.752 -1.8160  0.5380 -0.1954
17784TIP3    H274844   3.534   5.069  10.809  1.8207  1.5992  1.6081
17785TIP3   OH274845   6.733   3.414  15.421 -0.5418 -0.6508 -0.1418
17785TIP3    H174846   6.820   3.374  15.430  0.0669  0.8257  1.1924
17785TIP3    H274847   6.698   3.378  15.340  2.5552  0.9134 -2.4236
17786TIP3   OH274848   0.102   2.575  17.167 -0.5443  0.0631  0.3034
17786TIP3    H174849   0.149   2.614  17.241  0.4039 -0.6961  0.1194
17786TIP3    H274850   0.064   2.495  17.202  2.2849 -1.8239 -0.6475
17787TIP3   OH274851   1.336   6.714   2.260  0.0915 -1.2211 -0.3339
17787TIP3    H174852   1.367   6.690   2.347 -3.8547 -1.0955  1.3332
17787TIP3    H274853   1.335   6.809   2.260  0.2278 -1.2194 -0.5784
17788TIP3   OH274854   3.208   6.578   2.137 -0.4101  0.5805  0.9364
17788TIP3    H174855   3.121   6.540   2.150  0.2204 -1.2514  0.1285
17788TIP3    H274856   3.194   6.673   2.145 -2.5289  0.3602  0.4717
17789TIP3   OH274857   1.892   4.576  14.188 -0.0405  0.6526  0.3135
17789TIP3    H174858   1.877   4.487  14.220 -0.4981  0.8924  0.8014
17789TIP3    H274859   1.937   4.565  14.105 -1.1332 -0.0816 -0.2111
17790TIP3   OH274860   6.570   4.694   3.104 -0.1054  0.0897 -0.4652
17790TIP3    H174861   6.544   4.707   3.012 -1.6086 -0.1372 -0.0984
17790TIP3    H274862   6.606   4.779   3.131 -2.1552  1.0208 -0.5081
17791TIP3   OH274863   5.180   4.368  15.275 -0.2534 -0.4452 -0.4888
17791TIP3    H174864   5.230   4.353  15.356 -2.0291 -0.3546  0.6755
17791TIP3    H274865   5.182   4.284  15.230 -0.6836 -1.0161  0.5106
17792TIP3   OH274866   0.753   6.349   5.989 -0.1466 -0.0938 -0.7852
17792TIP3    H174867   0.690   6.280   6.011 -2.3601  2.2181  0.6654
17792TIP3    H274868   0.724   6.382   5.905 -0.1942  0.2542 -0.6311
17793TIP3   OH274869   0.318   5.734   1.054 -0.2248  0.7072  0.2392
17793TIP3    H174870   0.246   5.679   1.086  2.0197 -2.0383  0.8742
17793TIP3    H274871   0.288   5.765   0.968 -2.2214 -0.1644  0.5608
17794TIP3   OH274872   0.521   3.819  13.193 -0.2174 -0.1877 -0.1039
17794TIP3    H174873   0.599   3.865  13.164 -0.7546 -0.7428 -2.6368
17794TIP3    H274874   0.481   3.787  13.113 -3.2741  0.3925  1.0648
17795TIP3   OH274875   2.226   6.545  16.009  0.4369  0.8367  0.0942
17795TIP3    H174876   2.168   6.563  16.083 -1.4026  1.2722 -1.4049
17795TIP3    H274877   2.311   6.580  16.037 -0.4211  1.7891  1.6334
17796TIP3   OH274878   6.142   4.785   1.148 -0.0667  0.8106 -0.2734
17796TIP3    H174879   6.140   4.724   1.222  0.4985  0.6477 -0.3882
17796TIP3    H274880   6.183   4.864   1.184 -1.0375  1.2375 -0.0515
17797TIP3   OH274881   2.097   3.039  15.683  0.3142 -0.2714  0.1002
17797TIP3    H174882   2.177   3.042  15.736 -0.1836  1.4318  0.8422
17797TIP3    H274883   2.096   3.123  15.637 -1.2767 -0.0417  0.4876
17798TIP3   OH274884   3.787   2.327   3.566 -0.7051 -0.6087 -0.3207
17798TIP3    H174885   3.694   2.305   3.562 -0.7034 -0.8467  0.7104
17798TIP3    H274886   3.788   2.422   3.578 -0.7715 -0.4178 -1.6448
17799TIP3   OH274887   6.173   6.534  16.525  0.0979 -0.1117  0.5383
17799TIP3    H174888   6.245   6.505  16.581 -0.7891  0.1425  1.8506
17799TIP3    H274889   6.116   6.458  16.519  0.9891 -0.6897 -1.4439
17800TIP3   OH274890   3.323   6.439  17.021  0.1491  0.4629 -0.1263
17800TIP3    H174891   3.252   6.377  17.041 -0.4816  1.1724 -0.1355
17800TIP3    H274892   3.361   6.459  17.106  0.7767 -0.4116 -0.1823
17801TIP3   OH274893   5.280   5.446  17.169  0.8718  0.2114 -0.2341
17801TIP3    H174894   5.221   5.456  17.244 -2.3717 -3.0316 -2.0564
17801TIP3    H274895   5.352   5.393  17.203  0.3897  0.3069  0.9862
17802TIP3   OH274896   2.565   1.479   3.685 -0.3309  0.1782  0.0486
17802TIP3    H174897   2.633   1.449   3.746 -1.9487 -1.5566  1.0834
17802TIP3    H274898   2.533   1.561   3.723 -1.5471 -1.0414  1.7961
17803TIP3   OH274899   0.646   5.582   4.007  0.8285 -0.5064 -0.0502
17803TIP3    H174900   0.552   5.574   3.990  0.0638  0.1624  3.0963
17803TIP3    H274901   0.666   5.674   3.992  0.9131 -0.5944 -0.4712
17804TIP3   OH274902   0.333   3.543  15.866 -0.4859 -0.3419 -0.1000
17804TIP3    H174903   0.286   3.552  15.783  0.9907 -1.3498 -1.0920
17804TIP3    H274904   0.279   3.482  15.917  0.0173 -2.0372 -1.4919
17805TIP3   OH274905   4.243   6.441  11.197 -0.0698 -0.0740 -0.1515
17805TIP3    H174906   4.307   6.377  11.165 -0.1525  0.0204 -0.5024
17805TIP3    H274907   4.275   6.464  11.285 -1.6386 -2.8497  1.2868
17806TIP3   OH274908   6.433   4.969   6.216  0.1219 -0.5515  0.1137
17806TIP3    H174909   6.473   5.040   6.166  1.3221 -1.8617 -0.8801
17806TIP3    H274910   6.462   4.984   6.306  1.9197 -0.7714 -0.3829
17807TIP3   OH274911   1.827   2.805   5.032 -0.1593  0.5199 -0.7123
17807TIP3    H174912   1.809   2.894   5.001 -2.2945  0.1013 -0.8277
17807TIP3    H274913   1.887   2.768   4.967  0.4016  1.7090 -0.8906
17808TIP3   OH274914   2.433   0.319  12.636  0.4109 -0.0658  0.7589
17808TIP3    H174915   2.454   0.274  12.718 -1.7849 -1.8541  0.4294
17808TIP3    H274916   2.369   0.262  12.593 -0.1250  1.8886 -1.2007
17809TIP3   OH274917   0.296   2.138   4.868  0.2610  0.0995 -0.4186
17809TIP3    H174918   0.215   2.142   4.917 -0.4564  0.9025 -1.6163
17809TIP3    H274919   0.327   2.229   4.864  1.4768 -0.2609  0.4322
17810TIP3   OH274920   1.335   4.361  12.097 -0.2332  0.5014 -0.0722
17810TIP3    H174921   1.331   4.269  12.070 -1.3322  1.2593 -2.8090
17810TIP3    H274922   1.427   4.374  12.122  0.2040 -1.0848 -0.6779
17811TIP3   OH274923   0.647   0.829  12.813 -0.6537  0.2940  0.5156
17811TIP3    H174924   0.583   0.803  12.880 -0.0060 -0.8013  0.7448
17811TIP3    H274925   0.662   0.922  12.828 -0.7723  0.1411  1.6890
17812TIP3   OH274926   6.503   2.458  13.518  0.4907  0.8560  0.3571
17812TIP3    H174927   6.464   2.376  13.487 -0.0068  0.9589  0.7051
17812TIP3    H274928   6.501   2.451  13.614 -0.6635  1.7821  0.4241
17813TIP3   OH274929   2.299   3.086   6.741  0.0335  0.2276  0.3943
17813TIP3    H174930   2.271   3.167   6.697  0.2755 -0.3108 -0.8012
17813TIP3    H274931   2.230   3.023   6.721  0.2241 -0.0694  0.6724
17814TIP3   OH274932   4.434   0.474  15.068 -0.2547 -0.4591 -1.0305
17814TIP3    H174933   4.382   0.489  14.990 -1.6999 -2.5650 -0.5719
17814TIP3    H274934   4.411   0.385  15.095  1.0442 -0.2062  1.1635
17815TIP3   OH274935   1.625   3.499  13.402  0.0670 -0.0308  0.4247
17815TIP3    H174936   1.576   3.443  13.341 -0.8669 -0.9929  1.9895
17815TIP3    H274937   1.608   3.588  13.372 -0.1071 -0.4886 -0.9003
17816TIP3   OH274938   4.546   2.780   0.938 -0.0401  0.1211 -0.4284
17816TIP3    H174939   4.566   2.713   0.872  0.5784  0.0209 -0.1446
17816TIP3    H274940   4.544   2.733   1.021 -0.3826  0.3242 -0.3197
17817TIP3   OH274941   1.708   6.754   1.666  0.4209 -0.0273  0.1437
17817TIP3    H174942   1.617   6.781   1.657  0.9462  1.5815 -0.6851
17817TIP3    H274943   1.758   6.828   1.633  2.0414 -0.8499  0.6688
17818TIP3   OH274944   6.456   6.117  11.165 -0.5096 -0.1659 -0.1940
17818TIP3    H174945   6.459   6.042  11.106  1.4162  0.0017 -0.3710
17818TIP3    H274946   6.455   6.080  11.253 -0.0726 -0.3982 -0.2882
17819TIP3   OH274947   3.084   0.288   0.030  0.1075  0.5671 -0.1510
17819TIP3    H174948   3.156   0.229   0.008  0.1924  1.4071 -2.4303
17819TIP3    H274949   3.022   0.278  -0.043 -1.4486  0.8824  1.0718
17820TIP3   OH274950   2.553   1.953  16.459 -0.0192 -0.2292  0.0799
17820TIP3    H174951   2.641   1.961  16.495 -0.3190 -2.3831  1.4986
17820TIP3    H274952   2.565   1.955  16.364  1.3514  0.9966  0.2492
17821TIP3   OH274953   4.557   0.675  13.292 -0.9138 -0.2504 -0.1581
17821TIP3    H174954   4.539   0.753  13.345  0.5965  0.0396 -0.0276
17821TIP3    H274955   4.489   0.613  13.317 -2.4770  1.1840 -0.6400
17822TIP3   OH274956   0.434   2.349   3.300 -0.6779 -0.2836 -0.2273
17822TIP3    H174957   0.386   2.424   3.265  0.1185  1.4310  2.0643
17822TIP3    H274958   0.383   2.322   3.377 -1.6149 -2.9666 -1.6925
17823TIP3   OH274959   2.512   5.094  14.501 -0.0164 -0.5451 -0.2769
17823TIP3    H174960   2.482   5.180  14.530 -0.0410 -0.7533  0.3316
17823TIP3    H274961   2.469   5.080  14.416  0.5126  0.3232 -0.6969
17824TIP3   OH274962   5.611   1.051  16.660 -0.3526 -0.3238 -0.2250
17824TIP3    H174963   5.636   0.998  16.735  0.0722  0.6611  0.3423
17824TIP3    H274964   5.585   0.988  16.593  0.6741 -1.2586  0.2394
17825TIP3   OH274965   5.856   4.758  14.919 -0.3576  0.2513  0.4612
17825TIP3    H174966   5.831   4.848  14.899 -0.0468  0.0220 -1.1514
17825TIP3    H274967   5.931   4.741  14.862  0.0359 -0.8059  1.2517
17826TIP3   OH274968   1.835   1.038   1.876  0.4873  0.3021  0.1970
17826TIP3    H174969   1.765   0.988   1.833  0.3206  1.3357 -0.7611
17826TIP3    H274970   1.916   0.993   1.849  0.2998  0.1328 -0.0939
17827TIP3   OH274971   2.547   4.673   1.425 -0.4964  0.6199 -0.4562
17827TIP3    H174972   2.529   4.726   1.347 -0.2976  1.0359 -0.2187
17827TIP3    H274973   2.640   4.654   1.419 -0.8099 -0.8960 -1.2824
17828TIP3   OH274974   2.688   3.746   4.466  0.0528 -0.3518 -1.1163
17828TIP3    H174975   2.612   3.705   4.508  0.3336  0.1423 -0.1065
17828TIP3    H274976   2.650   3.805   4.400 -0.3947 -0.9930 -1.4387
17829TIP3   OH274977   4.432   2.315  11.287  0.3331  0.6562  0.1537
17829TIP3    H174978   4.518   2.331  11.249 -0.1699  0.1757 -1.2730
17829TIP3    H274979   4.391   2.401  11.291 -0.3041  0.5564 -2.2708
17830TIP3   OH274980   5.994   4.769   2.103 -0.2873  0.2947  0.0456
17830TIP3    H174981   6.005   4.799   2.013  2.5270  0.4996  0.3811
17830TIP3    H274982   5.940   4.836   2.144 -0.6933  0.7568 -1.1979
17831TIP3   OH274983   6.760   4.392  15.523  0.0010 -0.0366 -0.4374
17831TIP3    H174984   6.685   4.335  15.539 -1.2394  1.5416 -0.3048
17831TIP3    H274985   6.773   4.439  15.606 -0.6576  1.6648 -1.2425
17832TIP3   OH274986   4.499   2.555  15.962  0.3457 -0.6315  0.9277
17832TIP3    H174987   4.431   2.536  16.026 -1.3355  1.3175 -0.1497
17832TIP3    H274988   4.465   2.520  15.879  1.6251 -1.4585  0.7161
17833TIP3   OH274989   3.645   3.126   5.016 -0.5380 -0.2748 -0.3724
17833TIP3    H174990   3.627   3.217   4.993 -0.6152 -0.2046 -0.0374
17833TIP3    H274991   3.648   3.125   5.112  0.7834 -0.3696 -0.3914
17834TIP3   OH274992   2.241   1.084  12.552  0.0566 -0.1583 -0.4548
17834TIP3    H174993   2.315   1.067  12.611  0.6902 -0.9291 -1.4320
17834TIP3    H274994   2.192   1.154  12.595  0.3088 -0.9089  1.1373
17835TIP3   OH274995   2.211   2.123   2.010  0.3937 -0.1324 -0.0472
17835TIP3    H174996   2.192   2.129   2.103  0.4643  0.7759 -0.0802
17835TIP3    H274997   2.152   2.054   1.978 -1.7863  1.5344  0.1429
17836TIP3   OH274998   2.073   6.044   5.749  0.1219 -0.0721  0.1500
17836TIP3    H174999   2.018   6.117   5.720  0.3068 -0.7623 -2.1462
17836TIP3    H275000   2.071   5.982   5.676  3.3844 -0.4598  0.2503
17837TIP3   OH275001   1.709   4.183   0.047 -0.0898  0.2591 -0.0120
17837TIP3    H175002   1.761   4.161   0.124 -0.5475 -0.2748  0.1534
17837TIP3    H275003   1.720   4.108  -0.011  0.9780  1.0551 -0.8637
17838TIP3   OH275004   1.534   5.904  11.425 -0.0289 -0.4143  0.7778
17838TIP3    H175005   1.534   5.959  11.347  1.9355  0.5629  1.3933
17838TIP3    H275006   1.445   5.912  11.460 -1.6985 -2.6974 -2.4784
17839TIP3   OH275007   5.493   2.451   3.532  0.2786 -0.1030 -0.0132
17839TIP3    H175008   5.531   2.424   3.448 -0.4986 -0.9676 -0.0922
17839TIP3    H275009   5.531   2.391   3.596  0.3022  0.0830  0.1479
17840TIP3   OH275010   5.927   2.714   3.090 -0.4874  0.0458  0.4684
17840TIP3    H175011   5.959   2.788   3.039  0.9337 -0.4041  0.6725
17840TIP3    H275012   5.851   2.683   3.041 -1.0059  1.5068  0.2853
17841TIP3   OH275013   3.645   4.927  14.268 -0.4214  0.1699 -0.9254
17841TIP3    H175014   3.659   5.017  14.298  0.4259 -0.2823  0.0988
17841TIP3    H275015   3.550   4.917  14.264 -0.5349  1.4931 -2.2812
17842TIP3   OH275016   3.429   4.490   4.295  0.6389  0.1596  0.1749
17842TIP3    H175017   3.372   4.447   4.231 -0.2427 -0.1549  1.1440
17842TIP3    H275018   3.381   4.484   4.377  1.3419  1.3675  0.6973
17843TIP3   OH275019   2.986   5.067   5.397  0.0463 -0.2515 -0.2946
17843TIP3    H175020   2.966   5.126   5.470  0.6652 -1.2671  0.7337
17843TIP3    H275021   2.977   4.980   5.434  0.7149 -0.7887 -1.3517
17844TIP3   OH275022   1.438   6.080   2.140 -0.0703 -0.0136  0.4022
17844TIP3    H175023   1.465   6.147   2.077 -0.3242 -0.2641  0.0252
17844TIP3    H275024   1.469   5.997   2.101 -1.3763 -0.3122 -0.0419
17845TIP3   OH275025   3.593   4.854   1.949  0.1749  0.2808  0.1265
17845TIP3    H175026   3.513   4.831   1.902  1.1993 -0.2209 -1.4465
17845TIP3    H275027   3.605   4.784   2.013 -0.9892  0.7188  0.8378
17846TIP3   OH275028   3.767   4.554  12.360  0.2695 -0.3654 -0.0149
17846TIP3    H175029   3.832   4.501  12.405  0.1149 -1.0632 -0.5986
17846TIP3    H275030   3.810   4.638  12.345  0.0725  0.1706  2.0900
17847TIP3   OH275031   6.095   1.349   4.368 -0.4171 -0.3522 -1.1708
17847TIP3    H175032   6.174   1.299   4.388 -1.2452 -1.3351 -0.2071
17847TIP3    H275033   6.113   1.390   4.284 -0.1507 -3.3008 -2.6867
17848TIP3   OH275034   6.587   6.741  11.556 -0.1685  0.2837  0.5769
17848TIP3    H175035   6.677   6.734  11.586  0.8762 -1.9749 -2.6113
17848TIP3    H275036   6.579   6.831  11.524  0.7534  0.6623  1.3772
17849TIP3   OH275037   3.839   6.817  11.117 -0.0288  0.3011  0.2592
17849TIP3    H175038   3.796   6.895  11.153 -0.4609  0.2704 -0.1808
17849TIP3    H275039   3.827   6.824  11.023  1.8694  0.8289  0.0118
17850TIP3   OH275040   5.023   1.977   0.165 -0.5520 -0.2184 -0.2489
17850TIP3    H175041   5.093   1.917   0.189 -1.1675 -1.0221 -0.4364
17850TIP3    H275042   4.943   1.926   0.174 -1.1366  0.7394  0.1312
17851TIP3   OH275043   3.168   3.524  13.247 -0.0546  0.4414  0.0072
17851TIP3    H175044   3.245   3.571  13.216  0.6262 -0.4407  0.3092
17851TIP3    H275045   3.111   3.518  13.170  0.3217  0.8180 -0.3061
17852TIP3   OH275046   2.279   4.631  16.434  0.6560 -0.4985  0.0534
17852TIP3    H175047   2.198   4.668  16.472  1.2153  0.5496  0.2727
17852TIP3    H275048   2.302   4.693  16.365  1.4667 -0.5919  0.2395
17853TIP3   OH275049   5.321   3.097  17.196 -0.0000 -0.2203 -0.4144
17853TIP3    H175050   5.388   3.057  17.252  0.4592  2.0567  0.7673
17853TIP3    H275051   5.267   3.148  17.256 -1.1339  0.1946 -1.7356
17854TIP3   OH275052   5.191   1.882   0.475 -0.0808 -0.5212  0.7418
17854TIP3    H175053   5.183   1.972   0.442 -2.5281 -2.1433 -3.9732
17854TIP3    H275054   5.246   1.838   0.411 -1.4980 -3.0534  1.1601
17855TIP3   OH275055   6.633   2.166  11.133 -0.0204  0.0498 -0.1962
17855TIP3    H175056   6.705   2.103  11.133 -0.5012 -0.5040  0.2550
17855TIP3    H275057   6.634   2.202  11.044  1.8334  1.2576  0.2499
17856TIP3   OH275058   2.264   3.207   5.741  0.7855  0.4831  0.4323
17856TIP3    H175059   2.200   3.240   5.805 -1.0472 -1.8933 -0.0362
17856TIP3    H275060   2.215   3.205   5.658  1.5619 -1.0523 -0.0173
17857TIP3   OH275061   3.616   4.201   4.337 -0.2323 -0.3077 -1.0318
17857TIP3    H175062   3.605   4.131   4.273 -1.0600  0.8705 -2.2379
17857TIP3    H275063   3.529   4.212   4.376  0.6351 -2.2762  1.7704
17858TIP3   OH275064   3.933   4.958   1.997  0.0990 -0.2610 -0.1750
17858TIP3    H175065   4.026   4.976   2.012 -0.4323  1.1389  1.7762
17858TIP3    H275066   3.922   4.866   2.024  0.7481 -0.1761  0.4063
17859TIP3   OH275067   3.210   1.625  10.601 -0.4006 -0.0802  0.2636
17859TIP3    H175068   3.251   1.542  10.575 -0.4607 -0.6305  1.8320
17859TIP3    H275069   3.174   1.608  10.688 -0.1344  1.6946  0.7551
17860TIP3   OH275070   4.446   0.306  11.995 -0.2361  0.2757  0.1990
17860TIP3    H175071   4.481   0.326  12.082 -1.3935  1.2030  0.4905
17860TIP3    H275072   4.353   0.329  12.002 -0.3776  0.2046 -1.2374
17861TIP3   OH275073   1.706   2.237   5.221 -0.9624 -0.2508 -0.2630
17861TIP3    H175074   1.794   2.213   5.191 -1.1926  0.1162 -1.2879
17861TIP3    H275075   1.695   2.190   5.304  0.8412  0.9894  0.7540
17862TIP3   OH275076   3.239   5.895   0.728 -0.0322  0.0576 -0.4029
17862TIP3    H175077   3.145   5.906   0.743 -0.0182 -2.2925  2.2437
17862TIP3    H275078   3.245   5.825   0.663 -0.1728 -0.7873  0.4662
17863TIP3   OH275079   4.937   2.325   5.524  0.4379 -0.2180  0.1272
17863TIP3    H175080   4.916   2.337   5.432  1.3926 -0.7629 -0.1805
17863TIP3    H275081   5.024   2.365   5.534  1.3279 -2.0761  0.2655
17864TIP3   OH275082   2.401   3.599  14.231  0.3957  0.6864  0.0052
17864TIP3    H175083   2.367   3.552  14.155  2.3997  0.7180 -0.9920
17864TIP3    H275084   2.444   3.676  14.193  0.3841  1.3522  1.2931
17865TIP3   OH275085   0.110   3.747  11.727 -0.2229  0.0275  0.2560
17865TIP3    H175086   0.164   3.774  11.802  0.9088  0.0082 -0.5202
17865TIP3    H275087   0.065   3.828  11.701  0.0139  0.2249  0.4472
17866TIP3   OH275088   4.895   5.524   4.313  0.4615 -0.1821 -0.6816
17866TIP3    H175089   4.968   5.495   4.368 -1.0631 -0.9168  1.0832
17866TIP3    H275090   4.920   5.611   4.284  2.6454 -0.9559 -1.3366
17867TIP3   OH275091   6.012   4.340   4.106 -0.4842  0.2059 -0.3225
17867TIP3    H175092   5.969   4.287   4.039 -1.1788  0.7157 -0.2929
17867TIP3    H275093   6.096   4.363   4.067 -0.6462  0.0212 -0.7909
17868TIP3   OH275094   0.987   1.892  14.124  0.2998 -0.1688  0.0711
17868TIP3    H175095   0.894   1.908  14.134  0.3296  0.7196 -0.9817
17868TIP3    H275096   1.005   1.908  14.032  2.1194  3.1722  0.8586
17869TIP3   OH275097   5.534   5.167   3.197  0.2679  0.0469 -0.0277
17869TIP3    H175098   5.560   5.080   3.169 -1.6702 -0.1302 -1.5124
17869TIP3    H275099   5.570   5.176   3.285  1.8051 -1.6312 -0.4307
17870TIP3   OH275100   0.839   5.715  16.359  0.0749  0.1527  0.2364
17870TIP3    H175101   0.910   5.753  16.307 -0.5598 -0.0697 -0.8229
17870TIP3    H275102   0.760   5.760  16.328 -0.7442 -2.1211 -1.2260
17871TIP3   OH275103   1.854   5.481   5.072 -0.2824 -0.0915  0.1868
17871TIP3    H175104   1.773   5.475   5.124  0.6736  1.1907  1.9490
17871TIP3    H275105   1.866   5.575   5.058 -0.3632 -0.3729 -2.2549
17872TIP3   OH275106   6.441   3.856  10.998 -0.4285  0.1712 -0.2704
17872TIP3    H175107   6.429   3.834  11.090  1.0619  2.1134  0.4424
17872TIP3    H275108   6.351   3.860  10.963 -1.0768  0.5268  1.3605
17873TIP3   OH275109   5.758   6.134   4.932  0.1023 -0.1294  0.0627
17873TIP3    H175110   5.761   6.165   4.842  0.3747 -1.8111 -0.5323
17873TIP3    H275111   5.850   6.131   4.959  0.0674 -0.3036  0.1615
17874TIP3   OH275112   2.727   5.351   4.615  0.0810  0.5968 -0.2240
17874TIP3    H175113   2.730   5.354   4.711 -0.4350  0.5723 -0.2045
17874TIP3    H275114   2.792   5.285   4.591 -0.0342  0.3570  0.1233
17875TIP3   OH275115   1.381   6.280   1.473 -0.3826  0.0126  0.0068
17875TIP3    H175116   1.314   6.322   1.528 -0.7851  0.5646 -0.8675
17875TIP3    H275117   1.355   6.188   1.470 -0.0994 -0.1117  1.0913
17876TIP3   OH275118   2.352   1.047  16.043 -0.1524 -0.3958 -0.0067
17876TIP3    H175119   2.438   1.075  16.074 -0.4706  0.4587  0.1075
17876TIP3    H275120   2.323   0.983  16.107  0.2914 -0.5139  0.0835
17877TIP3   OH275121   6.219   3.087   2.526 -0.0837 -0.1293 -0.6202
17877TIP3    H175122   6.245   3.077   2.618  1.0702  0.6380 -0.8425
17877TIP3    H275123   6.260   3.013   2.482 -1.3098 -0.9645 -0.4161
17878TIP3   OH275124   5.272   1.040   0.459 -0.1967 -0.6466  0.3780
17878TIP3    H175125   5.177   1.037   0.452 -0.1311 -1.7459 -0.1971
17878TIP3    H275126   5.288   1.081   0.544 -1.2087 -1.6985  1.1050
17879TIP3   OH275127   2.749   4.518   5.958  0.3517  0.1065  0.2413
17879TIP3    H175128   2.733   4.522   6.052  1.8337 -0.5969  0.5570
17879TIP3    H275129   2.809   4.590   5.940  1.7582 -1.0059  0.2518
17880TIP3   OH275130   2.529   3.807   5.597 -0.0787 -0.6542  0.2291
17880TIP3    H175131   2.514   3.896   5.563 -1.2522 -1.4431 -1.5078
17880TIP3    H275132   2.618   3.787   5.571 -0.2009 -0.3949 -0.4251
17881TIP3   OH275133   2.891   3.250   4.945  0.5407  0.2640 -0.0587
17881TIP3    H175134   2.961   3.189   4.968  2.5164  2.0547 -0.9493
17881TIP3    H275135   2.811   3.199   4.952  1.9864 -2.0903  0.3109
17882TIP3   OH275136   1.505   5.769   2.342 -0.1587 -0.4754 -0.0145
17882TIP3    H175137   1.506   5.784   2.247  1.2460  4.3477  0.5111
17882TIP3    H275138   1.594   5.743   2.363 -0.6537 -2.2698 -0.0298
17883TIP3   OH275139   0.562   5.455   2.801 -0.0039 -0.3451 -0.0682
17883TIP3    H175140   0.501   5.508   2.750  0.7870 -0.7658 -1.5269
17883TIP3    H275141   0.647   5.498   2.788  0.2865 -0.7283  0.5252
17884TIP3   OH275142   6.020   2.144  12.683 -0.3241 -0.1932 -0.2417
17884TIP3    H175143   6.113   2.166  12.675 -0.7734  1.2117 -3.0397
17884TIP3    H275144   6.017   2.049  12.672  0.7309 -0.1172 -1.5002
17885TIP3   OH275145   1.948   6.016  17.191  0.1287 -0.8160 -0.2032
17885TIP3    H175146   1.960   6.092  17.248  0.1497 -1.5101  0.7369
17885TIP3    H275147   1.899   5.953  17.244 -0.7518 -1.0906 -1.3082
17886TIP3   OH275148   2.155   2.405   5.990 -0.1145 -0.0866  0.1890
17886TIP3    H175149   2.109   2.331   6.031  0.7427 -1.2531 -0.8705
17886TIP3    H275150   2.222   2.430   6.054 -0.7209  0.1136  0.7595
17887TIP3   OH275151   1.301   3.299  16.879 -0.4573 -0.2618 -0.6254
17887TIP3    H175152   1.344   3.328  16.959 -1.1230 -1.4874  0.2094
17887TIP3    H275153   1.363   3.238  16.838 -0.3069  0.0070 -0.7949
17888TIP3   OH275154   3.674   1.956   0.148  0.3677  0.5618 -0.1929
17888TIP3    H175155   3.764   1.980   0.169  0.5782 -0.8950  0.7548
17888TIP3    H275156   3.621   2.002   0.213  0.5336  0.4765  0.0024
17889TIP3   OH275157   2.541   0.418  11.735  0.6952 -0.2381 -0.4100
17889TIP3    H175158   2.480   0.492  11.736  0.4138 -0.4700 -0.2189
17889TIP3    H275159   2.535   0.381  11.823  0.4673 -0.7841 -0.6520
17890TIP3   OH275160   2.736   3.677  11.759 -0.0789 -0.3070 -0.3874
17890TIP3    H175161   2.665   3.740  11.772 -0.7377 -0.1438 -3.6837
17890TIP3    H275162   2.814   3.730  11.745 -0.3842 -0.1997 -1.8774
17891TIP3   OH275163   2.038   2.246   6.183 -0.2887  0.3478  0.0783
17891TIP3    H175164   2.119   2.225   6.229 -0.5428  0.7763  0.7508
17891TIP3    H275165   1.969   2.206   6.236 -0.4757 -0.7102 -0.9237
17892TIP3   OH275166   1.826   0.530  14.793 -0.1976 -0.1894  0.6736
17892TIP3    H175167   1.805   0.622  14.810 -1.3180 -0.3180  0.0651
17892TIP3    H275168   1.770   0.480  14.852  0.2655 -0.4900  0.8633
17893TIP3   OH275169   3.255   0.478   4.248  0.1458  0.3505  0.3751
17893TIP3    H175170   3.235   0.397   4.294 -2.2241  0.8570  0.3636
17893TIP3    H275171   3.287   0.450   4.162 -2.9705 -0.6853 -0.5753
17894TIP3   OH275172   5.755   3.440  13.557  0.4917 -0.4690 -0.5096
17894TIP3    H175173   5.761   3.379  13.630  0.2043  0.0237 -0.0665
17894TIP3    H275174   5.662   3.465  13.553  0.5794 -0.1690 -0.7694
17895TIP3   OH275175   1.609   1.020   5.245 -0.6879 -0.1233  0.4575
17895TIP3    H175176   1.627   1.019   5.151 -0.5700 -0.0216  0.4781
17895TIP3    H275177   1.685   0.977   5.284 -1.1933 -1.0523  0.4339
17896TIP3   OH275178   1.946   5.319   1.702 -0.0267 -0.0664 -0.9584
17896TIP3    H175179   1.874   5.346   1.758  1.0680  1.0872 -0.0762
17896TIP3    H275180   1.920   5.347   1.614 -0.1523  1.3976 -0.4728
17897TIP3   OH275181   4.742   3.698   3.904  0.0887 -0.5689 -0.0549
17897TIP3    H175182   4.769   3.659   3.821 -0.5181 -0.3474 -0.3619
17897TIP3    H275183   4.816   3.753   3.929 -0.5677  1.1295 -1.5895
17898TIP3   OH275184   0.290   2.696   4.031  0.3574  0.6074 -0.1982
17898TIP3    H175185   0.296   2.623   4.093  1.3296  1.0034  0.2004
17898TIP3    H275186   0.308   2.774   4.084  0.3827  1.0340 -0.8186
17899TIP3   OH275187   2.228   4.160  13.641  0.5123 -0.1466 -0.2776
17899TIP3    H175188   2.146   4.207  13.657 -0.2203 -1.6009  0.4920
17899TIP3    H275189   2.240   4.107  13.720  1.4637 -0.9878 -0.9659
17900TIP3   OH275190   2.159   4.352  14.793  0.1209  0.0312  0.4741
17900TIP3    H175191   2.162   4.447  14.801 -0.1797 -0.0708  2.5398
17900TIP3    H275192   2.234   4.322  14.845  0.1444 -0.8528 -0.0607
17901TIP3   OH275193   5.356   6.174   2.175 -0.4426 -0.0798 -0.1704
17901TIP3    H175194   5.440   6.159   2.132  0.2966  0.2879  1.1020
17901TIP3    H275195   5.374   6.160   2.268 -1.9142 -0.5039  0.0790
17902TIP3   OH275196   5.041   3.433  16.859 -0.4041 -0.0348  0.3985
17902TIP3    H175197   5.128   3.457  16.825 -0.6628  1.4190  0.7060
17902TIP3    H275198   5.040   3.337  16.856  0.3552 -0.0320 -1.7374
17903TIP3   OH275199   2.046   6.261   6.558 -0.2272  0.3145  0.2786
17903TIP3    H175200   1.978   6.197   6.576 -0.7606  0.6415 -0.5337
17903TIP3    H275201   2.128   6.210   6.560 -0.6024 -0.3064  0.0659
17904TIP3   OH275202   4.104   5.199   0.434  0.5450 -0.2147 -0.8080
17904TIP3    H175203   4.085   5.229   0.523  1.0126 -2.4972  0.1318
17904TIP3    H275204   4.087   5.105   0.436  0.5970 -0.3311 -3.1501
17905TIP3   OH275205   1.294   5.231   2.578  0.5542  0.4987  0.0130
17905TIP3    H175206   1.244   5.276   2.646  0.4368  2.8839 -1.5317
17905TIP3    H275207   1.266   5.272   2.496  0.2814 -2.6061 -1.6145
17906TIP3   OH275208   5.489   1.750   3.346 -0.2865 -0.3780  0.3187
17906TIP3    H175209   5.419   1.732   3.409 -0.7119 -0.4336 -0.1617
17906TIP3    H275210   5.450   1.729   3.261  1.1646 -3.0705  0.2148
17907TIP3   OH275211   3.479   5.932  12.822 -0.4827 -0.1060 -0.0619
17907TIP3    H175212   3.471   5.988  12.899  0.3058 -1.0328  0.7214
17907TIP3    H275213   3.521   5.852  12.854  0.7077 -0.1688 -1.6032
17908TIP3   OH275214   0.786   2.194  13.958  0.0313 -0.4338  0.1418
17908TIP3    H175215   0.729   2.125  13.924  0.7463 -1.2246  0.5035
17908TIP3    H275216   0.728   2.270  13.969 -1.2681 -1.5966  1.7657
17909TIP3   OH275217   0.376   3.876  13.977 -0.3503  0.3603  0.2800
17909TIP3    H175218   0.371   3.967  14.008 -0.6806  0.4858 -0.1369
17909TIP3    H275219   0.329   3.876  13.894 -0.9784 -0.3495  0.6271
17910TIP3   OH275220   1.376   1.205  16.465  0.0064  0.1811  0.1093
17910TIP3    H175221   1.465   1.240  16.465  0.3305 -0.6190 -0.0403
17910TIP3    H275222   1.381   1.127  16.520 -1.1660  1.4614  2.1757
17911TIP3   OH275223   6.521   0.663   3.829  0.4098  0.3080 -0.0332
17911TIP3    H175224   6.582   0.590   3.815 -0.0834 -0.1236  0.0328
17911TIP3    H275225   6.550   0.730   3.767 -0.7293 -0.9465 -2.0712
17912TIP3   OH275226   6.317   3.767  12.206 -0.5190 -0.1016  0.8238
17912TIP3    H175227   6.343   3.734  12.292 -1.0863 -1.1175  0.6203
17912TIP3    H275228   6.270   3.694  12.166  1.3607 -0.3439 -1.1128
17913TIP3   OH275229   3.265   3.337   2.650  0.3389  0.3101  0.5524
17913TIP3    H175230   3.283   3.300   2.563  0.9325  0.3250  0.6635
17913TIP3    H275231   3.178   3.305   2.672  0.9592 -1.3173  0.7913
17914TIP3   OH275232   2.893   1.646  13.980 -0.3166 -0.1432  0.0025
17914TIP3    H175233   2.912   1.554  13.965  2.5862  0.1963  1.0499
17914TIP3    H275234   2.945   1.670  14.057 -2.1908  2.0242  0.7323
17915TIP3   OH275235   1.624   6.448   4.519 -0.7418  0.4476  0.2862
17915TIP3    H175236   1.676   6.385   4.470 -1.5459 -1.5016  1.8044
17915TIP3    H275237   1.688   6.512   4.551  0.4607 -0.8468  0.5551
17916TIP3   OH275238   0.028   4.422  13.372 -0.4648 -0.3855 -0.1532
17916TIP3    H175239   0.098   4.447  13.313 -0.0516  1.3770  1.0214
17916TIP3    H275240   0.028   4.489  13.441 -0.7572 -2.4403  1.9899
17917TIP3   OH275241   0.936   6.003  16.489 -0.5729 -0.0862 -0.5227
17917TIP3    H175242   1.021   5.961  16.504 -0.5412  0.3135  0.5162
17917TIP3    H275243   0.873   5.945  16.529 -0.5294  0.8209  0.9184
17918TIP3   OH275244   5.484   5.948  15.734  0.5913 -0.1548 -0.2212
17918TIP3    H175245   5.435   5.964  15.654  0.3632 -0.3131 -0.1148
17918TIP3    H275246   5.567   5.993  15.721  0.2630  0.4475 -0.2380
17919TIP3   OH275247   5.747   5.118   1.684 -0.4849 -0.0339  0.1545
17919TIP3    H175248   5.798   5.085   1.609 -1.5572 -2.9097  0.5712
17919TIP3    H275249   5.800   5.094   1.760 -0.0247  1.7286  0.4382
17920TIP3   OH275250   5.071   4.144   1.988  0.0082  0.0172  0.4149
17920TIP3    H175251   5.094   4.125   1.897  0.2345 -0.0571  0.4875
17920TIP3    H275252   5.102   4.068   2.037  1.9658  1.0587  0.8804
17921TIP3   OH275253   6.648   0.247   4.094 -0.8240 -0.1140  0.7763
17921TIP3    H175254   6.630   0.175   4.034 -0.8009  0.0618  0.5583
17921TIP3    H275255   6.730   0.223   4.136  0.6099  1.0357 -1.2220
17922TIP3   OH275256   0.175   5.944   0.320  0.3988 -0.1706 -0.5029
17922TIP3    H175257   0.161   5.874   0.256  2.2188 -1.4313  0.3580
17922TIP3    H275258   0.094   5.949   0.369 -0.8550  0.4696 -2.4990
17923TIP3   OH275259   6.587   4.676  10.749 -0.4821  0.6275 -0.1900
17923TIP3    H175260   6.555   4.646  10.663 -2.4121  1.7833  0.0581
17923TIP3    H275261   6.680   4.692  10.736 -0.8242  1.2928 -2.2603
17924TIP3   OH275262   4.228   2.818  13.031  0.8601 -0.2126  0.4592
17924TIP3    H175263   4.277   2.896  13.055  0.7088  0.1452 -0.3782
17924TIP3    H275264   4.282   2.775  12.964  0.9621 -0.8527  0.9360
17925TIP3   OH275265   3.466   2.960   4.884  0.4379  0.6209 -0.3139
17925TIP3    H175266   3.538   3.022   4.898 -0.7786  1.8040  1.2339
17925TIP3    H275267   3.431   2.983   4.798  2.0504 -0.1786 -1.2252
17926TIP3   OH275268   5.952   4.918  16.835 -0.3013  0.7778 -0.5627
17926TIP3    H175269   5.882   4.912  16.900 -0.3423  1.3557 -0.5449
17926TIP3    H275270   6.006   4.991  16.866  1.5182 -0.9574  0.5819
17927TIP3   OH275271   2.949   2.206   1.192 -0.5604 -0.5618  0.4182
17927TIP3    H175272   3.004   2.283   1.205 -1.3760 -0.3293  2.9527
17927TIP3    H275273   2.860   2.235   1.215 -1.4992 -1.4168 -1.8084
17928TIP3   OH275274   1.807   0.884  14.004  0.3896  0.2952  0.6130
17928TIP3    H175275   1.864   0.858  14.076  3.3211  2.2063 -0.8039
17928TIP3    H275276   1.830   0.825  13.932 -1.3197 -0.5420  0.7138
17929TIP3   OH275277   1.517   5.484  11.641 -0.1567  0.1559 -0.5575
17929TIP3    H175278   1.451   5.552  11.639 -1.8670 -1.4274 -0.5808
17929TIP3    H275279   1.478   5.413  11.692  1.9196 -0.4887  0.2666
17930TIP3   OH275280   2.334   5.915  16.710 -0.1443 -0.6354  0.2293
17930TIP3    H175281   2.317   5.837  16.763 -0.2988 -1.2012 -0.6388
17930TIP3    H275282   2.428   5.929  16.718 -0.4725  0.8427  2.7483
17931TIP3   OH275283   6.357   2.850   0.485  0.0730  0.2995 -0.3075
17931TIP3    H175284   6.343   2.938   0.522  1.1386  0.2486  0.2673
17931TIP3    H275285   6.442   2.823   0.519 -0.0855 -0.8299 -0.7537
17932TIP3   OH275286   3.686   4.979  15.728 -0.2695 -0.2488 -0.4609
17932TIP3    H175287   3.707   5.070  15.707  0.7322 -0.3832 -0.0867
17932TIP3    H275288   3.632   4.950  15.654 -2.0647  1.1363  0.2213
17933TIP3   OH275289   5.039   1.538  14.205 -0.5056  0.3629  0.2472
17933TIP3    H175290   4.950   1.503  14.195  0.2912 -1.4818 -1.0164
17933TIP3    H275291   5.094   1.460  14.213  0.9734  1.4775  1.5483
17934TIP3   OH275292   1.815   4.844  14.235 -0.1132  0.5159 -0.2389
17934TIP3    H175293   1.808   4.749  14.223 -0.7163  0.2754  1.6277
17934TIP3    H275294   1.863   4.874  14.158  1.2805 -1.4747 -0.2496
17935TIP3   OH275295   5.653   2.606   0.256 -0.4984  0.2760 -0.5018
17935TIP3    H175296   5.691   2.642   0.177 -0.1446  0.4720 -0.2458
17935TIP3    H275297   5.603   2.678   0.294 -0.6234  0.1981 -0.5180
17936TIP3   OH275298   1.022   2.216   4.076 -0.1902 -0.0363  0.1287
17936TIP3    H175299   0.974   2.135   4.059 -1.3288  0.7533 -0.5201
17936TIP3    H275300   0.957   2.275   4.114  0.0447  1.3020 -1.4498
17937TIP3   OH275301   4.440   0.932   5.152 -0.1397  0.4197 -0.0709
17937TIP3    H175302   4.490   0.917   5.072  1.1426  1.5239  0.4746
17937TIP3    H275303   4.368   0.870   5.147  0.7372 -0.5619 -1.3645
17938TIP3   OH275304   1.378   6.399  12.469 -0.0209 -0.5203  0.1507
17938TIP3    H175305   1.322   6.447  12.529 -0.7560 -0.2887 -0.6923
17938TIP3    H275306   1.317   6.356  12.409  0.5424 -3.1375  1.3008
17939TIP3   OH275307   1.706   3.738   3.029  0.3270  0.1166  0.5186
17939TIP3    H175308   1.619   3.742   3.068 -0.3732 -1.5395 -0.7278
17939TIP3    H275309   1.756   3.681   3.088  0.2114  0.1371  0.6361
17940TIP3   OH275310   5.817   0.529  11.246 -0.1957  0.5451  0.3781
17940TIP3    H175311   5.832   0.452  11.191 -0.5976  1.9744 -1.8644
17940TIP3    H275312   5.769   0.496  11.322 -2.2573 -1.1426 -1.5288
17941TIP3   OH275313   3.302   4.064  13.367 -0.5613  0.2959  0.5326
17941TIP3    H175314   3.230   4.002  13.351 -0.4467  0.0230  1.0428
17941TIP3    H275315   3.268   4.148  13.338 -1.1837  0.2146  0.9948
17942TIP3   OH275316   4.437   5.240   0.518 -0.0217  0.6347 -0.1544
17942TIP3    H175317   4.395   5.247   0.604 -0.3609  0.4184 -0.3016
17942TIP3    H275318   4.441   5.145   0.501 -1.4952  0.7236 -1.1324
17943TIP3   OH275319   0.575   4.101  17.205 -0.0134  0.0439  0.7005
17943TIP3    H175320   0.613   4.165  17.265 -1.1638  0.1630  1.3387
17943TIP3    H275321   0.494   4.143  17.175 -0.6668 -1.0049  0.9581
17944TIP3   OH275322   2.350   4.387   1.425  0.0156 -0.0307 -0.4713
17944TIP3    H175323   2.440   4.359   1.443 -0.8807 -2.1853  1.1145
17944TIP3    H275324   2.354   4.430   1.340  2.2437 -1.6394 -1.2474
17945TIP3   OH275325   4.942   6.412   1.037  1.0685  0.0681  0.1722
17945TIP3    H175326   4.890   6.396   1.115  0.3528  0.9197 -0.1030
17945TIP3    H275327   5.032   6.422   1.068  0.8485  0.0013  0.8288
17946TIP3   OH275328   5.921   1.577  13.075 -0.0910  0.8580  0.1586
17946TIP3    H175329   5.982   1.575  13.002  1.0199 -1.3516  1.0520
17946TIP3    H275330   5.874   1.494  13.070 -0.0441  0.6797  1.8815
17947TIP3   OH275331   0.091   6.218  11.567 -0.2515 -0.2402  0.1881
17947TIP3    H175332   0.038   6.146  11.602 -0.1319  0.0006  0.8823
17947TIP3    H275333   0.029   6.269  11.514 -0.9797  0.5366  1.6906
17948TIP3   OH275334   2.008   3.542   4.520 -0.4865  0.1416  0.1438
17948TIP3    H175335   2.032   3.491   4.597 -0.3435 -0.0023  0.0032
17948TIP3    H275336   2.052   3.626   4.533  1.2160 -0.5668 -0.7577
17949TIP3   OH275337   1.265   1.020  11.231 -0.6334 -0.1278 -0.2341
17949TIP3    H175338   1.212   1.019  11.151  0.5857  0.9587 -1.1003
17949TIP3    H275339   1.215   1.074  11.292 -1.7329 -1.2344 -0.1115
17950TIP3   OH275340   5.045   4.009   0.223  0.6393 -0.2709 -0.4752
17950TIP3    H175341   5.021   4.063   0.298 -0.2472 -2.1551  0.6624
17950TIP3    H275342   4.967   3.957   0.204  0.5057  0.7850 -3.3432
17951TIP3   OH275343   5.037   3.218   3.532  0.0134  0.0390 -0.0863
17951TIP3    H175344   4.947   3.225   3.499 -0.1236  1.0681  0.4829
17951TIP3    H275345   5.052   3.300   3.579  1.3352 -0.0160 -0.3765
17952TIP3   OH275346   1.484   0.648   3.260 -0.6585  0.3754 -0.1959
17952TIP3    H175347   1.512   0.596   3.185 -0.1209  0.9456 -0.3908
17952TIP3    H275348   1.543   0.723   3.262  0.9907 -0.8671  2.2865
17953TIP3   OH275349   2.949   5.191   0.456  0.8470  0.2870  0.0983
17953TIP3    H175350   2.876   5.165   0.512  1.2592  0.9564  0.9624
17953TIP3    H275351   2.928   5.279   0.428  0.5295 -0.1235 -1.0196
17954TIP3   OH275352   2.857   4.848   5.506  0.3138 -0.3200  0.2786
17954TIP3    H175353   2.808   4.795   5.443 -0.3575  0.2066  0.3473
17954TIP3    H275354   2.793   4.869   5.575  0.7846 -0.0880  0.6512
17955TIP3   OH275355   1.844   0.717   3.941  0.1215  0.2591  0.3841
17955TIP3    H175356   1.830   0.635   3.989  1.5655 -0.5038 -0.4490
17955TIP3    H275357   1.938   0.722   3.928  0.1351  2.3785  0.9211
17956TIP3   OH275358   3.616   1.058   5.010 -0.1819  0.2606  0.3154
17956TIP3    H175359   3.698   1.043   5.057 -1.1395  0.7323  2.2524
17956TIP3    H275360   3.618   0.996   4.937  1.2681 -0.7294  1.1451
17957TIP3   OH275361   1.663   6.666  16.355  0.3866 -0.6172 -0.1392
17957TIP3    H175362   1.601   6.735  16.380 -0.1732 -1.7886  1.9135
17957TIP3    H275363   1.607   6.590  16.338  1.1364 -1.1694 -0.1435
17958TIP3   OH275364   0.383   3.272   6.054 -0.1804  0.0540  0.5434
17958TIP3    H175365   0.442   3.329   6.006 -0.3154 -0.0393  0.2677
17958TIP3    H275366   0.403   3.184   6.022  0.1760 -0.0793  1.1216
17959TIP3   OH275367   1.240   6.172   0.302 -0.2100  0.1514  0.2430
17959TIP3    H175368   1.296   6.122   0.242  0.8431  2.4124 -0.7986
17959TIP3    H275369   1.165   6.198   0.248 -0.6950 -0.1929  0.7411
17960TIP3   OH275370   0.033   3.332   4.843 -0.2004  0.2489  0.2936
17960TIP3    H175371   0.042   3.250   4.794 -2.6450  0.4717 -0.6667
17960TIP3    H275372   0.022   3.399   4.776 -0.4970  1.0239  1.0958
17961TIP3   OH275373   6.756   4.621   2.351  0.5791  0.2980  1.0649
17961TIP3    H175374   6.689   4.620   2.419  1.3216 -0.3413  1.8130
17961TIP3    H275375   6.826   4.565   2.386  1.4934  0.9426  0.3085
17962TIP3   OH275376   4.578   5.561   6.098  0.2364 -0.0840  0.1590
17962TIP3    H175377   4.564   5.637   6.154 -0.9599 -0.8244  0.9211
17962TIP3    H275378   4.661   5.578   6.054  0.5123  1.1621  1.1106
17963TIP3   OH275379   2.030   6.148  16.521  0.3294  0.4122  0.6664
17963TIP3    H175380   1.935   6.159  16.506  0.2589 -0.7071  0.1723
17963TIP3    H275381   2.070   6.198  16.450  0.0956  0.2549  0.4197
17964TIP3   OH275382   2.008   1.949  11.125  0.2424 -0.3993  0.1991
17964TIP3    H175383   2.027   2.020  11.187  1.3334 -0.8348  0.3880
17964TIP3    H275384   1.958   1.991  11.055  0.3329  0.4251  0.6169
17965TIP3   OH275385   4.274   4.806   0.653  0.0227  0.6078  0.2811
17965TIP3    H175386   4.302   4.747   0.723 -0.3470  0.9771  0.7546
17965TIP3    H275387   4.235   4.749   0.587 -0.1759  0.3097  0.6530
17966TIP3   OH275388   6.474   2.800  16.374 -0.4468  0.4435 -0.0214
17966TIP3    H175389   6.424   2.738  16.320 -1.3889 -0.2503  1.5898
17966TIP3    H275390   6.556   2.755  16.393 -0.0173  0.7760 -1.0058
17967TIP3   OH275391   1.347   5.834  12.695  0.0043  0.7217 -0.1558
17967TIP3    H175392   1.269   5.856  12.643  1.5680  3.1802 -1.6671
17967TIP3    H275393   1.357   5.909  12.755  1.8525  1.0947 -0.8594
17968TIP3   OH275394   1.469   1.703   5.233  0.7603  0.0945  0.4296
17968TIP3    H175395   1.465   1.792   5.197  4.1762  0.3017  0.2096
17968TIP3    H275396   1.481   1.647   5.156  1.1350 -0.2573  0.7413
17969TIP3   OH275397   4.419   2.044   0.494  0.0376 -0.2875 -0.4672
17969TIP3    H175398   4.479   1.970   0.480 -0.5009 -0.7047 -0.5738
17969TIP3    H275399   4.441   2.106   0.424  0.6717 -0.2237 -0.2187
17970TIP3   OH275400   6.331   0.809   2.857 -0.1831  0.1331  0.3170
17970TIP3    H175401   6.252   0.856   2.830 -2.1066 -3.2291 -0.4827
17970TIP3    H275402   6.375   0.788   2.774 -1.0795 -2.0532  0.3126
17971TIP3   OH275403   6.609   3.088   1.608 -0.2994 -0.3231 -0.2423
17971TIP3    H175404   6.665   3.020   1.571  0.6034 -0.2732  0.9779
17971TIP3    H275405   6.595   3.061   1.698  0.9365  1.5985  0.5923
17972TIP3   OH275406   2.747   3.709  14.407 -0.4264 -0.2739  0.3327
17972TIP3    H175407   2.668   3.757  14.430  0.2109 -0.1354  2.4791
17972TIP3    H275408   2.817   3.774  14.414 -0.0248 -0.5426 -0.9276
17973TIP3   OH275409   1.710   3.336   5.835  0.5805 -0.2968 -0.4639
17973TIP3    H175410   1.701   3.417   5.785 -2.0934 -0.5989 -0.6172
17973TIP3    H275411   1.689   3.360   5.925 -2.1091 -1.0365 -0.7948
17974TIP3   OH275412   4.057   2.321  15.737  0.1821 -0.7318 -0.6126
17974TIP3    H175413   4.017   2.307  15.651  0.6609  0.4724 -1.0516
17974TIP3    H275414   4.084   2.234  15.766 -2.2101 -1.5139 -0.5471
17975TIP3   OH275415   5.921   5.163  13.277  0.1062 -0.3731  0.5979
17975TIP3    H175416   5.852   5.103  13.250 -1.2616  0.6609  1.6326
17975TIP3    H275417   5.998   5.136  13.227 -1.6862  0.0934 -2.6610
17976TIP3   OH275418   0.312   5.784  15.000 -0.4239 -0.1807 -0.5087
17976TIP3    H175419   0.217   5.786  14.995 -0.4056  0.3288 -0.7517
17976TIP3    H275420   0.338   5.876  14.993  0.0608 -0.2663  0.0293
17977TIP3   OH275421   1.124   3.216   3.750  0.5652  0.0099 -0.3539
17977TIP3    H175422   1.050   3.161   3.726  0.3498  0.4520 -0.7380
17977TIP3    H275423   1.201   3.160   3.740  0.2362 -0.6162  0.6076
17978TIP3   OH275424   0.206   6.601  16.030 -0.6157 -0.1097  0.1066
17978TIP3    H175425   0.285   6.653  16.012 -0.0300 -1.1753 -0.5308
17978TIP3    H275426   0.234   6.511  16.016 -1.9752 -0.5049 -0.1835
17979TIP3   OH275427   3.090   3.670   2.454 -0.1328  0.1258  0.5105
17979TIP3    H175428   3.005   3.665   2.411 -0.5805  1.1237  1.2381
17979TIP3    H275429   3.154   3.668   2.382 -0.8101  0.3609 -0.1046
17980TIP3   OH275430   3.256   5.952  16.290 -0.3572 -0.0169 -0.1323
17980TIP3    H175431   3.329   5.897  16.261  0.0264  0.3211  0.1868
17980TIP3    H275432   3.285   5.988  16.374 -0.6833  0.5295 -0.2521
17981TIP3   OH275433   6.370   4.744  13.341  0.5716 -0.1298  0.4565
17981TIP3    H175434   6.344   4.783  13.425 -1.7814 -0.0990 -0.2198
17981TIP3    H275435   6.325   4.796  13.275  1.0567 -1.1704 -0.7440
17982TIP3   OH275436   1.259   3.695  11.220  0.0830 -0.3131 -0.0027
17982TIP3    H175437   1.272   3.608  11.183 -0.8125 -1.4957  2.2919
17982TIP3    H275438   1.323   3.750  11.175  1.4740 -2.3814 -0.6867
17983TIP3   OH275439   6.230   2.537  16.476  0.2284  0.2335 -0.6998
17983TIP3    H175440   6.181   2.462  16.441  0.0042 -0.2861  0.6644
17983TIP3    H275441   6.176   2.613  16.455 -1.2124 -0.3253  0.7712
17984TIP3   OH275442   0.455   0.256  13.108  0.2419 -0.2533  0.0061
17984TIP3    H175443   0.543   0.220  13.124  0.2373 -0.1166  0.3342
17984TIP3    H275444   0.420   0.201  13.037  1.1322  0.5622 -1.1090
17985TIP3   OH275445   2.791   4.657  15.197  0.3526 -0.1022 -0.0706
17985TIP3    H175446   2.765   4.708  15.274  0.7401 -0.6211  0.4122
17985TIP3    H275447   2.736   4.579  15.199 -1.9004  1.3147 -2.1058
17986TIP3   OH275448   2.727   3.281  13.619 -0.7170  0.3795 -0.1967
17986TIP3    H175449   2.643   3.316  13.589 -0.5318 -0.4756 -1.8334
17986TIP3    H275450   2.783   3.281  13.541  0.1468 -0.9912  0.3741
17987TIP3   OH275451   5.012   0.556  12.235 -0.1047  0.5302 -0.4530
17987TIP3    H175452   4.949   0.551  12.163  1.6505  0.5177 -2.0731
17987TIP3    H275453   5.053   0.642  12.225  0.1203  0.5688  0.6183
17988TIP3   OH275454   1.523   2.994   5.323  0.2409 -0.1293  0.1257
17988TIP3    H175455   1.482   3.038   5.398 -0.0245 -2.2743  1.3271
17988TIP3    H275456   1.606   3.041   5.310 -0.4982  1.3759  0.6222
17989TIP3   OH275457   5.670   0.944   3.590 -0.1391  0.1774 -0.4711
17989TIP3    H175458   5.597   0.931   3.529  0.2008 -1.9163 -0.5150
17989TIP3    H275459   5.746   0.906   3.545  0.7313  1.1753  0.1073
17990TIP3   OH275460   2.439   2.716  14.278  0.1974 -0.1174 -0.3524
17990TIP3    H175461   2.376   2.769  14.326  1.1411 -0.5902  1.4841
17990TIP3    H275462   2.438   2.751  14.189 -1.9349  0.4938 -0.1276
17991TIP3   OH275463   6.097   4.138   6.304  0.1290  0.3757 -0.6278
17991TIP3    H175464   6.161   4.193   6.349 -0.1630 -0.6778  1.2119
17991TIP3    H275465   6.012   4.178   6.324  0.0588  0.4450 -1.0651
17992TIP3   OH275466   3.857   3.115  10.636 -0.0972 -0.2960  0.1723
17992TIP3    H175467   3.900   3.192  10.598 -0.6413 -1.6771 -3.6973
17992TIP3    H275468   3.801   3.150  10.705  1.1377  2.5097 -0.1139
17993TIP3   OH275469   4.096   0.901  12.125  0.5006 -0.1902 -0.5313
17993TIP3    H175470   4.107   0.957  12.203  0.1371 -0.6126 -0.1728
17993TIP3    H275471   4.047   0.955  12.064  0.4258 -0.0014 -0.3080
17994TIP3   OH275472   2.336   5.850  15.881 -0.2418  0.5841 -0.0517
17994TIP3    H175473   2.328   5.944  15.894 -0.5691  0.8786 -2.1242
17994TIP3    H275474   2.287   5.811  15.954 -2.6526  2.0683 -0.7927
17995TIP3   OH275475   5.837   3.397   2.574 -0.9949  0.1263  0.5542
17995TIP3    H175476   5.889   3.327   2.613 -2.6706 -0.4392  1.9008
17995TIP3    H275477   5.785   3.353   2.506 -1.4370  0.2198  0.8277
17996TIP3   OH275478   0.864   1.221   0.617 -0.1192 -0.9164  0.3836
17996TIP3    H175479   0.910   1.155   0.566  1.4955 -0.1563  0.7809
17996TIP3    H275480   0.926   1.246   0.686 -0.6143  1.0477  0.2008
17997TIP3   OH275481   2.565   4.911  15.010  0.5315 -0.6021 -0.2601
17997TIP3    H175482   2.571   4.958  15.093  2.1512 -1.4998  0.1760
17997TIP3    H275483   2.538   4.823  15.033  0.7943 -0.8053 -0.7017
17998TIP3   OH275484   2.575   4.107   2.553  0.4037 -0.2319  0.0474
17998TIP3    H175485   2.549   4.053   2.627  2.3499 -0.9385  0.2796
17998TIP3    H275486   2.645   4.163   2.587  1.5452 -0.7796 -1.2781
17999TIP3   OH275487   0.900   0.253  16.780 -0.1513 -0.3440  0.8655
17999TIP3    H175488   0.859   0.259  16.867 -0.3394 -0.4119  0.7814
17999TIP3    H275489   0.958   0.329  16.776 -0.3574 -0.1818  0.9413
18000TIP3   OH275490   3.891   2.626   6.234  0.6525 -0.5310  0.3053
18000TIP3    H175491   3.935   2.574   6.302  1.5700 -0.0708  0.0762
18000TIP3    H275492   3.800   2.594   6.235  1.1837 -2.1104  0.1846
18001TIP3   OH275493   6.706   0.968   4.585 -0.2067 -0.1343  0.4250
18001TIP3    H175494   6.728   0.885   4.628 -0.0312 -0.3726 -0.1183
18001TIP3    H275495   6.631   0.946   4.529  1.2384 -0.4966 -1.4861
18002TIP3   OH275496   5.055   3.733   1.466 -0.1689  0.3001 -0.8346
18002TIP3    H175497   5.147   3.707   1.454  0.1364  1.8331 -2.2267
18002TIP3    H275498   5.060   3.822   1.501 -1.1718 -0.6754  2.0288
18003TIP3   OH275499   3.241   2.952  10.752 -0.3083  0.0466  0.0285
18003TIP3    H175500   3.265   3.031  10.703 -1.6782  0.6171  0.2451
18003TIP3    H275501   3.296   2.883  10.714 -0.9941  0.5543 -2.0015
18004TIP3   OH275502   6.153   5.990  12.765 -0.0377  0.0687 -0.7670
18004TIP3    H175503   6.174   5.922  12.830 -0.1527 -0.4120 -1.2215
18004TIP3    H275504   6.218   6.058  12.780  0.6337 -0.5325 -0.8779
18005TIP3   OH275505   1.497   3.448  10.919  0.9385 -0.0393  0.4284
18005TIP3    H175506   1.455   3.396  10.987 -0.6013  0.1385 -0.3558
18005TIP3    H275507   1.578   3.401  10.900 -0.0511 -1.7707  0.2659
18006TIP3   OH275508   2.654   6.816  15.185 -0.1892  0.2515  0.2654
18006TIP3    H175509   2.720   6.849  15.245 -0.4572 -0.5650  1.0235
18006TIP3    H275510   2.572   6.854  15.216 -0.4400 -0.7949  0.8957
18007TIP3   OH275511   0.871   1.436   5.406 -0.6264 -0.3043  0.3238
18007TIP3    H175512   0.788   1.391   5.389 -0.4835 -1.4439  2.3061
18007TIP3    H275513   0.891   1.415   5.498  2.0171 -0.3483 -0.1863
18008TIP3   OH275514   1.702   1.873  12.157  0.7044 -0.1130  0.0938
18008TIP3    H175515   1.640   1.835  12.219 -0.8201  1.6299 -0.2827
18008TIP3    H275516   1.685   1.829  12.074 -0.5368  0.7792 -0.1609
18009TIP3   OH275517   2.147   3.651   1.179 -0.5260  0.4557 -0.6352
18009TIP3    H175518   2.064   3.679   1.140 -0.4403  1.7829  0.0674
18009TIP3    H275519   2.123   3.585   1.243 -0.8233 -0.6259 -1.8354
18010TIP3   OH275520   3.098   2.887   5.842  0.0401  0.6263 -0.4169
18010TIP3    H175521   3.051   2.825   5.786  1.0180 -0.6907  0.1498
18010TIP3    H275522   3.062   2.972   5.820 -2.6298 -0.2971 -0.0059
18011TIP3   OH275523   2.713   0.030   0.702 -0.0893 -0.3401 -0.6339
18011TIP3    H175524   2.714   0.126   0.699  0.5518 -0.1519  2.4612
18011TIP3    H275525   2.666   0.010   0.783 -0.4425 -2.6761 -1.3606
18012TIP3   OH275526   2.080   3.477   1.392  0.1049  0.6921 -0.0846
18012TIP3    H175527   1.998   3.430   1.401 -0.6418  2.0938  0.8541
18012TIP3    H275528   2.121   3.471   1.479  0.5246  0.8529 -0.2650
18013TIP3   OH275529   4.596   2.581   1.137  0.4568  0.4726 -0.3804
18013TIP3    H175530   4.635   2.494   1.145  1.6555  1.0263 -0.0389
18013TIP3    H275531   4.502   2.565   1.143  0.6367 -0.8468 -0.7694
18014TIP3   OH275532   2.099   3.341  15.269 -0.4533 -0.3482  0.0004
18014TIP3    H175533   2.189   3.350  15.300  0.4133  0.2955 -2.4310
18014TIP3    H275534   2.063   3.429  15.274 -0.5860 -0.4030 -0.0031
18015TIP3   OH275535   2.865   3.736   2.909  0.0324  0.1449  0.5216
18015TIP3    H175536   2.902   3.781   2.833  0.6220 -0.1144  0.6552
18015TIP3    H275537   2.789   3.689   2.874 -1.5005  2.3559  0.6190
18016TIP3   OH275538   0.943   4.145  17.260 -0.0180  0.3623 -0.2025
18016TIP3    H175539   0.927   4.183  17.174  0.4683 -0.0450 -0.4811
18016TIP3    H275540   1.022   4.092  17.249 -0.2189 -0.0783  0.3751
18017TIP3   OH275541   0.031   2.286   2.457 -0.2651 -0.0170  0.0912
18017TIP3    H175542   0.028   2.247   2.369 -0.0622 -0.1876  0.1601
18017TIP3    H275543   0.065   2.374   2.442  1.2803 -0.5692  0.1752
18018TIP3   OH275544   2.625   4.521  15.806 -0.0746 -0.0407 -0.1916
18018TIP3    H175545   2.701   4.577  15.824 -0.1830  0.4167 -1.0865
18018TIP3    H275546   2.643   4.440  15.853  1.9702 -0.7359 -2.0280
18019TIP3   OH275547   2.982   4.800  12.621 -0.5625 -0.4128 -0.8653
18019TIP3    H175548   3.004   4.824  12.531 -0.1174 -0.5817 -0.8054
18019TIP3    H275549   2.976   4.705  12.620 -1.3591 -0.3670 -0.8909
18020TIP3   OH275550   4.575   5.918  11.087 -0.5348 -0.0382  0.4876
18020TIP3    H175551   4.537   5.849  11.032 -0.2198  0.7982 -0.8208
18020TIP3    H275552   4.638   5.962  11.030  0.7533  0.0587  1.9227
18021TIP3   OH275553   3.867   6.729   2.397 -0.1164 -0.2506  0.0195
18021TIP3    H175554   3.938   6.789   2.417  0.8515 -1.4700  0.3528
18021TIP3    H275555   3.892   6.647   2.439 -0.7703 -1.2691 -1.4760
18022TIP3   OH275556   5.571   0.807  10.439 -0.2930  0.1885 -0.2177
18022TIP3    H175557   5.615   0.752  10.373  1.1466  1.6014 -0.4876
18022TIP3    H275558   5.638   0.868  10.468 -0.9580 -0.2575  2.4690
18023TIP3   OH275559   5.125   2.233   2.040  0.6071 -0.0845 -0.3820
18023TIP3    H175560   5.205   2.264   1.997  0.0255  0.0923 -1.3506
18023TIP3    H275561   5.057   2.240   1.973 -0.2217 -0.2597  0.4224
18024TIP3   OH275562   0.564   6.748  14.962 -0.7157  0.1064  0.0978
18024TIP3    H175563   0.633   6.687  14.988 -1.0857 -1.1383 -1.5937
18024TIP3    H275564   0.493   6.691  14.932 -1.5854  1.3780 -0.3199
18025TIP3   OH275565   5.680   2.718  16.982  0.4227 -0.5850 -0.3816
18025TIP3    H175566   5.638   2.689  16.902 -0.3599  1.1255 -0.6326
18025TIP3    H275567   5.613   2.710  17.050 -0.2014  1.5174 -0.6594
18026TIP3   OH275568   0.860   0.404   1.933  0.4799 -0.6466 -0.5576
18026TIP3    H175569   0.788   0.400   1.995  0.1949 -0.1443 -0.8447
18026TIP3    H275570   0.817   0.416   1.848  0.9027 -0.0325 -0.6941
18027TIP3   OH275571   5.334   0.039   4.262  0.6294  0.2266  0.0766
18027TIP3    H175572   5.348   0.033   4.167 -1.2768 -1.4452 -0.1767
18027TIP3    H275573   5.300  -0.047   4.286 -1.6450  1.4856  1.7551
18028TIP3   OH275574   6.392   1.340  12.017 -0.2840 -0.1284 -0.2719
18028TIP3    H175575   6.391   1.430  11.983  0.2186  0.6042  1.4933
18028TIP3    H275576   6.327   1.294  11.964  0.6095  0.8187 -2.3193
18029TIP3   OH275577   3.848   2.439  15.892 -0.4270  0.3156 -0.4793
18029TIP3    H175578   3.864   2.435  15.986 -0.6074 -1.5739 -0.5010
18029TIP3    H275579   3.935   2.429  15.853 -0.5684 -0.7962 -0.5210
18030TIP3   OH275580   0.683   1.831  15.975 -0.2689  0.5765  0.3988
18030TIP3    H175581   0.666   1.771  15.903  2.7280  1.1491 -0.9408
18030TIP3    H275582   0.698   1.775  16.051  0.1088 -0.2508 -0.2729
18031TIP3   OH275583   6.122   4.180   3.896  0.2938 -0.3288 -0.2907
18031TIP3    H175584   6.198   4.228   3.930  1.1965 -0.6981 -1.7156
18031TIP3    H275585   6.115   4.208   3.805  0.2676 -2.1756 -0.8904
18032TIP3   OH275586   6.379   1.485   3.860 -0.1778  0.0983 -0.3735
18032TIP3    H175587   6.309   1.517   3.917 -0.4343  2.6613 -1.9477
18032TIP3    H275588   6.427   1.422   3.913 -1.7768  0.6371  1.8331
18033TIP3   OH275589   3.763   3.612   5.759 -0.5576 -0.1561  0.0214
18033TIP3    H175590   3.805   3.697   5.748  0.6711 -0.8891 -1.2396
18033TIP3    H275591   3.673   3.626   5.729 -0.2140  0.5791 -0.6990
18034TIP3   OH275592   5.193   4.291  13.883  0.5842 -0.2091  0.1311
18034TIP3    H175593   5.242   4.364  13.845  2.9931 -1.3684  0.8237
18034TIP3    H275594   5.193   4.224  13.815  1.8191 -0.9728  0.8450
18035TIP3   OH275595   0.271   0.942   5.723 -0.6229 -0.4016 -0.4179
18035TIP3    H175596   0.232   0.958   5.809  2.4744 -2.4338  1.5757
18035TIP3    H275597   0.267   0.847   5.712  0.7988 -0.3576 -1.6006
18036TIP3   OH275598   0.676   1.289   2.449 -0.1778 -0.5557 -0.4730
18036TIP3    H175599   0.674   1.370   2.500 -0.0364 -0.3255 -0.8238
18036TIP3    H275600   0.586   1.256   2.452  0.0499 -1.1181  0.8128
18037TIP3   OH275601   5.660   5.202  15.064  0.1482 -0.1027  0.0425
18037TIP3    H175602   5.690   5.179  15.152  1.8151  0.2107 -0.4173
18037TIP3    H275603   5.598   5.273  15.078  2.3569  1.7861  0.8603
18038TIP3   OH275604   3.188   5.206   1.271  0.7419  0.0607 -0.1040
18038TIP3    H175605   3.243   5.274   1.311 -1.0877  1.5555  0.0523
18038TIP3    H275606   3.213   5.206   1.179  1.0502  0.6619 -0.0276
18039TIP3   OH275607   4.407   1.292  13.366 -0.4202 -0.0555 -0.2313
18039TIP3    H175608   4.356   1.223  13.323 -1.4206  0.0947  0.6645
18039TIP3    H275609   4.497   1.279  13.334 -0.6850 -1.4389 -0.4826
18040TIP3   OH275610   2.594   0.613  17.075 -0.0777 -0.0466 -0.1933
18040TIP3    H175611   2.584   0.658  16.991  0.4737  0.4228 -0.0137
18040TIP3    H275612   2.688   0.594  17.081 -0.2202 -0.7109 -0.0059
18041TIP3   OH275613   2.574   2.285   6.535 -0.0369  0.3113  0.7019
18041TIP3    H175614   2.640   2.354   6.531  1.3378 -0.9951 -0.2173
18041TIP3    H275615   2.546   2.274   6.444 -2.1245  1.3493  1.1626
18042TIP3   OH275616   4.874   2.666   1.349  0.2025 -0.3670 -0.0999
18042TIP3    H175617   4.833   2.733   1.295  2.2585  0.8216 -0.3259
18042TIP3    H275618   4.802   2.619   1.389 -1.3886 -0.3259 -2.6951
18043TIP3   OH275619   4.249   1.321  14.156  0.5883  0.4103  0.2194
18043TIP3    H175620   4.297   1.401  14.180  0.6980  0.2915  0.3946
18043TIP3    H275621   4.176   1.353  14.102 -0.3140  0.7907  1.6282
18044TIP3   OH275622   4.491   0.213  13.341  0.1516  0.1426  0.3485
18044TIP3    H175623   4.463   0.237  13.430 -0.0554  2.4829 -0.2743
18044TIP3    H275624   4.526   0.294  13.305 -0.6559 -0.4967 -2.0405
18045TIP3   OH275625   0.401   4.152  12.250  0.0945  0.5556  0.1168
18045TIP3    H175626   0.457   4.117  12.181  0.4364  1.1459  0.0881
18045TIP3    H275627   0.348   4.078  12.278  0.2256  0.2191 -0.5135
18046TIP3   OH275628   2.682   3.703  15.307  0.1383 -0.7985  0.0069
18046TIP3    H175629   2.682   3.650  15.228 -1.1524  0.1726 -0.7008
18046TIP3    H275630   2.700   3.641  15.378  1.1825 -1.7068 -1.0240
18047TIP3   OH275631   1.486   4.718   2.974 -0.2809  0.1353 -0.1226
18047TIP3    H175632   1.516   4.801   2.937  1.9732 -0.7878 -0.5643
18047TIP3    H275633   1.542   4.704   3.050 -0.9324 -0.7600  0.2065
18048TIP3   OH275634   0.305   0.435  16.644  0.2122  0.5936 -0.4886
18048TIP3    H175635   0.247   0.392  16.706 -0.0406  0.3693 -0.8777
18048TIP3    H275636   0.255   0.437  16.562  1.0950 -0.4500 -1.0832
18049TIP3   OH275637   2.778   5.353  13.724  0.2276 -0.1471 -0.4824
18049TIP3    H175638   2.861   5.306  13.735 -0.1316 -0.4687  1.0269
18049TIP3    H275639   2.802   5.429  13.671  0.9825 -1.5214 -2.2555
18050TIP3   OH275640   0.255   6.681  13.086 -0.0322 -0.0334  0.0625
18050TIP3    H175641   0.171   6.710  13.051 -0.6503 -0.0224  1.4806
18050TIP3    H275642   0.240   6.672  13.180  1.7394  0.6015  0.4433
18051TIP3   OH275643   6.747   4.567   6.134 -0.1193 -0.3122 -0.8159
18051TIP3    H175644   6.836   4.596   6.156  0.0602 -0.9938 -0.6256
18051TIP3    H275645   6.701   4.648   6.112  0.1207  0.2451  0.5838
18052TIP3   OH275646   6.454   3.209   1.989 -0.0695  0.0537  0.3346
18052TIP3    H175647   6.403   3.231   1.912  0.1825 -1.0353 -0.1747
18052TIP3    H275648   6.503   3.288   2.010 -3.8550  2.0834  2.4578
18053TIP3   OH275649   0.114   3.549   4.683 -0.2121  0.5212 -0.4728
18053TIP3    H175650   0.154   3.632   4.710 -1.1103  0.7816  0.0738
18053TIP3    H275651   0.167   3.521   4.608  1.2548  0.6360  0.4768
18054TIP3   OH275652   6.651   0.867   2.987  0.3341 -0.0071 -0.1337
18054TIP3    H175653   6.660   0.962   2.996 -0.1683  0.2304 -1.7828
18054TIP3    H275654   6.567   0.847   3.029 -0.0234  0.4452 -0.6061
18055TIP3   OH275655   0.997   4.814  17.030  0.1646  0.6483  0.3197
18055TIP3    H175656   1.063   4.790  16.964  0.5179  0.6267  0.6738
18055TIP3    H275657   1.049   4.835  17.108 -0.3028 -1.2540  1.2096
18056TIP3   OH275658   1.708   2.093   2.518 -0.7281 -0.1895  0.0092
18056TIP3    H175659   1.646   2.025   2.544 -1.0826 -0.1180 -0.6315
18056TIP3    H275660   1.654   2.170   2.502 -0.5250 -0.2338 -0.9440
18057TIP3   OH275661   3.224   3.967  11.320  0.1108 -0.1965  0.0615
18057TIP3    H175662   3.140   3.920  11.327  0.2665 -0.3090  1.5097
18057TIP3    H275663   3.282   3.905  11.278 -0.1249 -0.7252  0.4915
18058TIP3   OH275664   2.300   3.435   5.410 -0.3127  0.2685 -0.3406
18058TIP3    H175665   2.354   3.450   5.487 -1.7497 -1.1454  1.0190
18058TIP3    H275666   2.342   3.487   5.341  2.0966  0.1223  0.8936
18059TIP3   OH275667   1.449   3.159   1.614 -0.8098 -0.0806  0.0358
18059TIP3    H175668   1.400   3.085   1.649 -0.7564 -0.0674  0.1391
18059TIP3    H275669   1.541   3.133   1.621 -0.7697  0.1476  0.4337
18060TIP3   OH275670   1.829   2.481  14.397 -0.1490 -0.1114  0.5401
18060TIP3    H175671   1.862   2.399  14.361 -0.8746  0.5010 -1.6786
18060TIP3    H275672   1.867   2.549  14.342 -0.1900  1.0136  1.8433
18061TIP3   OH275673   5.402   2.368  14.939  0.5044  0.2437 -0.0517
18061TIP3    H175674   5.318   2.364  14.983  0.6428 -2.1576  0.1063
18061TIP3    H275675   5.381   2.355  14.846  0.5962  1.0526 -0.1935
18062TIP3   OH275676   2.919   3.882   0.326  0.0321 -0.1760  0.4399
18062TIP3    H175677   2.981   3.950   0.350 -1.9736  1.6511  0.8238
18062TIP3    H275678   2.882   3.910   0.243 -0.3590 -1.1681  0.2553
18063TIP3   OH275679   1.447   6.363   0.339  0.0459 -0.1122 -0.0029
18063TIP3    H175680   1.433   6.432   0.403  0.3695 -0.3253  0.2988
18063TIP3    H275681   1.394   6.290   0.371 -0.8478  0.2156 -0.6880
18064TIP3   OH275682   4.991   3.570  17.121  0.0589 -0.3833 -0.3924
18064TIP3    H175683   5.032   3.560  17.208  0.0606  0.0527 -0.3430
18064TIP3    H275684   5.064   3.562  17.060 -0.0869 -1.7296 -0.4112
18065TIP3   OH275685   5.280   0.927   3.801  0.2585 -0.6084  0.2531
18065TIP3    H175686   5.251   0.960   3.716 -0.6324  1.5035  1.3214
18065TIP3    H275687   5.233   0.843   3.811 -2.1953  0.6458  0.0228
18066TIP3   OH275688   5.278   3.531  17.115 -0.0104  0.0371 -0.0447
18066TIP3    H175689   5.305   3.543  17.024 -0.7485  0.5591 -0.2010
18066TIP3    H275690   5.309   3.609  17.160  0.5031 -0.2984  0.1979
18067TIP3   OH275691   0.677   1.772   4.003  0.7079  0.3181  0.3830
18067TIP3    H175692   0.642   1.861   4.005  1.1439  0.4870  1.4295
18067TIP3    H275693   0.602   1.716   3.987 -0.1077  0.6558  2.6882
18068TIP3   OH275694   6.788   6.630  11.789 -0.2993 -0.1066 -0.0737
18068TIP3    H175695   6.870   6.676  11.770 -1.4957  1.3526 -2.1539
18068TIP3    H275696   6.796   6.546  11.745  0.2088 -0.0925 -0.0086
18069TIP3   OH275697   5.349   0.424   2.590 -0.1462 -0.2846 -0.3908
18069TIP3    H175698   5.426   0.455   2.542 -0.2141 -0.7505 -0.8050
18069TIP3    H275699   5.370   0.334   2.612 -0.5524 -0.3934 -0.4523
18070TIP3   OH275700   2.953   1.196  14.003 -0.0938  0.4951 -0.0444
18070TIP3    H175701   2.937   1.263  14.070 -0.0896  0.1900  0.2625
18070TIP3    H275702   2.957   1.245  13.921  2.9526  1.3026  0.4610
18071TIP3   OH275703   4.864   6.285   6.344 -0.7102  0.3384  0.4848
18071TIP3    H175704   4.852   6.380   6.352 -2.0837  0.0362  2.5837
18071TIP3    H275705   4.953   6.270   6.377 -0.1217  0.9411 -0.7217
18072TIP3   OH275706   1.672   2.540  16.873  0.5332 -0.1354 -0.4994
18072TIP3    H175707   1.665   2.629  16.839  1.5180  0.0648 -0.2045
18072TIP3    H275708   1.625   2.543  16.957  0.6397  0.1281 -0.4475
18073TIP3   OH275709   3.204   4.946   0.009 -1.1256  0.5041 -0.0544
18073TIP3    H175710   3.207   4.897   0.091 -2.1555 -1.2672 -1.0312
18073TIP3    H275711   3.241   5.032   0.032  1.3081 -0.8407  1.5817
18074TIP3   OH275712   4.912   2.826  15.483 -0.5202 -0.3568 -0.4022
18074TIP3    H175713   4.978   2.894  15.490 -0.1394 -0.6959 -0.6918
18074TIP3    H275714   4.933   2.780  15.402 -1.5455 -0.0063 -0.8861
18075TIP3   OH275715   6.520   0.016   3.515  0.1627  0.6352  0.5922
18075TIP3    H175716   6.451  -0.015   3.574 -0.2522 -1.9592 -1.1130
18075TIP3    H275717   6.556   0.093   3.559 -1.5397  0.0810  3.1683
18076TIP3   OH275718   5.416   2.611   0.662  0.2509 -0.0314  0.1494
18076TIP3    H175719   5.490   2.649   0.614 -0.3139 -0.0543 -0.7494
18076TIP3    H275720   5.343   2.669   0.644  0.1853  0.3918  1.6129
18077TIP3   OH275721   2.798   3.891   0.979 -0.4340 -0.5406  0.4114
18077TIP3    H175722   2.707   3.920   0.976 -0.4933 -0.8332 -1.5729
18077TIP3    H275723   2.798   3.807   0.932  1.0952  0.1614 -0.9022
18078TIP3   OH275724   6.299   0.017   3.378  0.3168  0.4492  0.6562
18078TIP3    H175725   6.286  -0.077   3.393  2.0851 -0.2478 -1.5731
18078TIP3    H275726   6.390   0.033   3.404  0.5817  1.1245 -0.6234
18079TIP3   OH275727   1.051   6.204   2.431 -0.0666 -0.0099 -0.0864
18079TIP3    H175728   1.073   6.111   2.428 -1.6894 -0.5031  1.6834
18079TIP3    H275729   1.049   6.231   2.339  2.6238 -1.1157 -0.5565
18080TIP3   OH275730   3.233   3.928  15.028 -0.3491 -0.8065  0.0543
18080TIP3    H175731   3.298   3.970  15.084 -1.0708 -0.0141  0.3056
18080TIP3    H275732   3.266   3.838  15.016  1.2839 -0.1620 -0.6091
18081TIP3   OH275733   4.897   0.413   4.356 -0.4931  0.1926 -0.1565
18081TIP3    H175734   4.938   0.444   4.275 -2.5220 -1.1366 -1.8074
18081TIP3    H275735   4.967   0.366   4.401  0.8493  1.4796 -0.8001
18082TIP3   OH275736   1.148   2.502  17.227  0.0801 -0.4310 -0.2114
18082TIP3    H175737   1.234   2.527  17.194  0.4564  0.0147  1.0411
18082TIP3    H275738   1.159   2.411  17.254  0.9622  0.3286  2.3165
18083TIP3   OH275739   4.523   5.817  15.572 -0.5801  0.0542 -0.0226
18083TIP3    H175740   4.438   5.857  15.553 -0.3435 -0.3458 -2.1773
18083TIP3    H275741   4.584   5.862  15.515  0.4576 -0.4799  0.6410
18084TIP3   OH275742   5.059   1.223   6.555  0.1721  0.2567 -0.0284
18084TIP3    H175743   5.021   1.142   6.523 -1.3826  0.2671  1.6245
18084TIP3    H275744   4.989   1.288   6.548  0.4554  0.7539  1.2762
18085TIP3   OH275745   0.210   2.188  15.274  0.1156 -0.0540 -0.2451
18085TIP3    H175746   0.244   2.230  15.195 -1.9918 -1.1479 -1.8539
18085TIP3    H275747   0.139   2.246  15.303  1.1228  0.5385  1.1268
18086TIP3   OH275748   3.235   4.261  13.593  0.4055  0.2623 -0.5508
18086TIP3    H175749   3.162   4.319  13.611  1.8195  2.4239 -1.3564
18086TIP3    H275750   3.226   4.238  13.500  0.6360  0.3739 -0.6022
18087TIP3   OH275751   6.114   5.115  16.622  0.1685  0.1490 -0.1290
18087TIP3    H175752   6.056   5.188  16.643  0.1199 -0.1485  0.8481
18087TIP3    H275753   6.056   5.040  16.612  0.2517  0.1608 -0.7437
18088TIP3   OH275754   2.382   5.650  11.787 -0.3081 -0.4876  0.0298
18088TIP3    H175755   2.344   5.733  11.817  0.2582 -0.2722  0.1741
18088TIP3    H275756   2.384   5.596  11.866 -2.0326 -1.1894 -0.3568
18089TIP3   OH275757   5.093   4.051  15.456 -0.0119 -0.1003 -0.3020
18089TIP3    H175758   5.077   4.001  15.376  0.0707  0.6357 -0.7856
18089TIP3    H275759   5.176   4.096  15.440  1.7427 -2.4781  1.4677
18090TIP3   OH275760   6.754   0.449  16.003 -0.0600  0.0017  0.1417
18090TIP3    H175761   6.754   0.465  16.097  1.2562  1.5979 -0.0875
18090TIP3    H275762   6.791   0.361  15.994  0.4484  0.0979  1.1049
18091TIP3   OH275763   3.032   1.654   4.134 -0.2991  0.0015 -0.6235
18091TIP3    H175764   2.968   1.593   4.171 -0.1071  0.8063  1.1624
18091TIP3    H275765   2.983   1.734   4.119 -0.0012  0.2072 -0.5104
18092TIP3   OH275766   0.830   5.244  10.989 -0.6196 -0.4430 -0.0941
18092TIP3    H175767   0.839   5.196  10.907  0.6064 -1.6544  0.7147
18092TIP3    H275768   0.914   5.232  11.033 -0.2803  2.3256  0.2452
18093TIP3   OH275769   2.310   5.083  11.588  0.0046 -0.2618  0.1814
18093TIP3    H175770   2.356   5.150  11.639 -0.2005 -0.5399  0.7305
18093TIP3    H275771   2.327   5.001  11.633  2.2019 -0.9842 -1.7593
18094TIP3   OH275772   6.311   4.867  13.824  0.3564  0.1168  0.3076
18094TIP3    H175773   6.336   4.914  13.904 -0.3069  0.6234  0.2225
18094TIP3    H275774   6.382   4.804  13.810  0.3493 -0.1593  1.4451
18095TIP3   OH275775   5.379   3.585  11.547 -0.2974 -0.5713  0.3666
18095TIP3    H175776   5.463   3.575  11.503 -0.9863  0.3727 -1.2637
18095TIP3    H275777   5.317   3.537  11.492 -0.9185 -0.8141  1.2560
18096TIP3   OH275778   0.595   4.206   1.685  0.5019  0.4882 -0.5185
18096TIP3    H175779   0.680   4.205   1.639  0.9824  0.9922  0.3384
18096TIP3    H275780   0.604   4.139   1.753 -0.1789 -0.1957 -1.0849
18097TIP3   OH275781   2.596   5.808   6.644  1.0838 -0.8796  0.1789
18097TIP3    H175782   2.632   5.878   6.588  0.0182  0.9929  1.7031
18097TIP3    H275783   2.503   5.804   6.621  0.8270 -0.7228  1.1377
18098TIP3   OH275784   2.808   6.743  11.070 -0.1876  0.6897 -0.2086
18098TIP3    H175785   2.795   6.827  11.027 -0.2527  0.0977 -1.4172
18098TIP3    H275786   2.831   6.683  10.998 -1.6399 -0.6576  0.3859
18099TIP3   OH275787   4.339   0.544  12.605  0.1705  0.6379 -0.1983
18099TIP3    H175788   4.260   0.491  12.616 -0.1784  1.1506 -0.1687
18099TIP3    H275789   4.306   0.633  12.592  0.7976  1.2950  2.3010
18100TIP3   OH275790   4.625   3.249  13.017  0.0862  0.1488  0.6491
18100TIP3    H175791   4.709   3.208  12.996  0.1037  0.4834  0.0543
18100TIP3    H275792   4.562   3.206  12.959 -0.2174 -0.3063  1.2930
18101TIP3   OH275793   5.415   2.399   2.743  0.1433  1.1652 -0.2513
18101TIP3    H175794   5.326   2.404   2.780  0.3629 -0.1659  0.5235
18101TIP3    H275795   5.420   2.311   2.707  1.3205  1.0609  0.1482
18102TIP3   OH275796   4.709   5.939  14.467  0.0357  0.2656 -0.1204
18102TIP3    H175797   4.681   6.006  14.529 -0.1510  0.4890 -0.4422
18102TIP3    H275798   4.643   5.941  14.397 -0.3261 -0.6930  0.1740
18103TIP3   OH275799   0.569   1.108  16.710 -0.3107 -0.1221  0.5489
18103TIP3    H175800   0.494   1.074  16.662 -2.1442  1.8549  1.8138
18103TIP3    H275801   0.593   1.037  16.771 -1.1747 -0.7564  0.1641
18104TIP3   OH275802   3.689   1.618   2.165 -0.4973  0.0489 -0.0592
18104TIP3    H175803   3.739   1.566   2.229  0.1509 -1.8182 -1.9393
18104TIP3    H275804   3.673   1.701   2.209 -0.4281 -1.2573  2.6540
18105TIP3   OH275805   0.139   3.252  15.353 -0.3945 -0.2159  0.6150
18105TIP3    H175806   0.107   3.166  15.323 -2.4713  0.4589  0.7382
18105TIP3    H275807   0.181   3.289  15.276 -1.2825 -0.5372 -0.0481
18106TIP3   OH275808   1.296   0.226  16.484 -0.0057  0.0533  0.4566
18106TIP3    H175809   1.302   0.154  16.548 -1.3386  0.4347  1.0463
18106TIP3    H275810   1.322   0.186  16.401 -0.7177 -1.1336  0.7672
18107TIP3   OH275811   4.914   4.416   1.326 -0.2226 -0.3161 -0.4741
18107TIP3    H175812   4.858   4.355   1.374 -0.7785 -0.5673 -1.4081
18107TIP3    H275813   4.887   4.503   1.357  0.8992 -0.5239  1.2078
18108TIP3   OH275814   5.296   3.570   0.527  0.0110  0.2369  0.0213
18108TIP3    H175815   5.244   3.571   0.447  1.4532  1.7073 -0.9503
18108TIP3    H275816   5.232   3.554   0.597 -1.6227  1.1736 -1.1906
18109TIP3   OH275817   1.858   5.122   5.317 -0.0353 -0.3848 -0.2490
18109TIP3    H175818   1.861   5.027   5.326  1.1196 -0.3194  0.2781
18109TIP3    H275819   1.847   5.154   5.406 -1.8884 -0.0388 -0.5689
18110TIP3   OH275820   2.321   6.552  16.981 -0.3266 -0.3810  0.2711
18110TIP3    H175821   2.341   6.485  16.915  1.8175  0.3872  0.0543
18110TIP3    H275822   2.232   6.582  16.959 -0.1463 -1.0235 -1.4956
18111TIP3   OH275823   6.637   2.787   5.968 -0.1516  0.0955 -0.7273
18111TIP3    H175824   6.566   2.840   6.005 -1.2934 -0.5154 -1.9733
18111TIP3    H275825   6.593   2.729   5.906  0.8772 -3.0719  1.2981
18112TIP3   OH275826   4.940   1.363   0.008  0.5092  0.0413 -0.1114
18112TIP3    H175827   4.928   1.277   0.049  0.1967 -0.0973 -0.4872
18112TIP3    H275828   4.851   1.396  -0.004  0.3554 -1.1833 -3.3689
18113TIP3   OH275829   1.884   2.413   1.620  0.1882  0.4461 -0.0290
18113TIP3    H175830   1.865   2.328   1.660 -1.2098  1.1172  0.8387
18113TIP3    H275831   1.853   2.405   1.530  1.3013 -0.3657 -0.3650
18114TIP3   OH275832   2.910   2.513  10.816  0.3428 -0.3505 -0.3211
18114TIP3    H175833   2.890   2.520  10.722 -0.4215  0.8548 -0.0901
18114TIP3    H275834   3.005   2.526  10.820  1.0669 -4.0753 -1.2265
18115TIP3   OH275835   3.374   0.933   4.146 -0.4602 -0.4247  0.5532
18115TIP3    H175836   3.389   0.991   4.071 -1.2092 -3.2570 -1.9671
18115TIP3    H275837   3.454   0.882   4.153 -1.2706 -1.7908  0.1089
18116TIP3   OH275838   2.564   5.242   2.244  0.2001 -0.1002 -0.2275
18116TIP3    H175839   2.585   5.197   2.163  2.8624 -2.1857  1.4230
18116TIP3    H275840   2.494   5.190   2.284  3.6197 -3.6176  1.9344
18117TIP3   OH275841   1.064   3.973   3.797  0.3572  0.0954  0.1974
18117TIP3    H175842   0.995   4.033   3.826 -0.7451 -1.0114 -0.1021
18117TIP3    H275843   1.071   3.988   3.703  0.5927  0.2599  0.2388
18118TIP3   OH275844   1.923   4.935  16.905  0.3975  0.6879 -0.0873
18118TIP3    H175845   1.967   4.850  16.911 -0.9575 -0.0711 -0.4069
18118TIP3    H275846   1.941   4.977  16.989 -2.4119 -1.7590  1.9900
18119TIP3   OH275847   3.342   3.499  14.796  0.0272  0.1769 -0.2601
18119TIP3    H175848   3.257   3.510  14.753 -0.7958  1.9542  1.6924
18119TIP3    H275849   3.328   3.429  14.860  0.2131  0.0671 -0.3375
18120TIP3   OH275850   1.710   1.055   0.463  0.3477 -0.1025 -0.1158
18120TIP3    H175851   1.654   1.005   0.522 -0.5608 -0.0323 -0.9063
18120TIP3    H275852   1.668   1.048   0.378  1.4114  0.1557 -0.6847
18121TIP3   OH275853   4.485   1.435  15.142  0.5071  0.2676  0.2298
18121TIP3    H175854   4.463   1.528  15.146 -0.1850  0.0945  0.5633
18121TIP3    H275855   4.569   1.428  15.187  0.0265  0.5677  1.1809
18122TIP3   OH275856   5.378   0.039   5.194  0.0067 -0.4619  0.1298
18122TIP3    H175857   5.440  -0.015   5.244  0.4249 -0.8461 -0.7704
18122TIP3    H275858   5.419   0.048   5.107 -0.5626  0.4208 -0.0661
18123TIP3   OH275859   5.873   4.752   1.203 -0.3554  0.0649  0.1780
18123TIP3    H175860   5.963   4.764   1.173  0.0224  2.2172  1.9110
18123TIP3    H275861   5.831   4.701   1.134  1.8632  0.0387 -1.2445
18124TIP3   OH275862   6.514   2.245   1.188  0.4353 -0.2551  0.0960
18124TIP3    H175863   6.439   2.272   1.135  0.5204 -1.0579 -0.4520
18124TIP3    H275864   6.522   2.314   1.255 -1.8402 -1.0044  1.2435
18125TIP3   OH275865   2.033   4.826   1.831 -0.3409 -0.3913 -0.0853
18125TIP3    H175866   2.124   4.825   1.858 -0.3292 -1.0970 -0.1445
18125TIP3    H275867   2.021   4.913   1.792  0.5836 -0.6540 -0.9977
18126TIP3   OH275868   1.727   1.450  13.704  0.2476  0.6345 -0.2718
18126TIP3    H175869   1.820   1.469  13.697  0.0817  0.8595 -2.7489
18126TIP3    H275870   1.684   1.527  13.667 -0.8893  0.2406  0.1800
18127TIP3   OH275871   0.045   4.750   0.266  0.2365 -0.0337  0.2362
18127TIP3    H175872  -0.031   4.724   0.317  0.5006 -0.1835  0.5596
18127TIP3    H275873   0.065   4.839   0.295  0.3308 -0.0846  0.3296
18128TIP3   OH275874   0.218   4.495   1.326  0.5376 -0.1094 -0.1031
18128TIP3    H175875   0.182   4.449   1.402  0.7187 -1.1723 -0.6345
18128TIP3    H275876   0.289   4.438   1.297  0.9147  0.6420 -0.6487
18129TIP3   OH275877   6.398   2.656   5.489 -0.0969  0.6585  0.0929
18129TIP3    H175878   6.423   2.625   5.402  0.7887  2.8712 -0.5151
18129TIP3    H275879   6.316   2.704   5.475 -0.9957 -0.5944  0.8537
18130TIP3   OH275880   5.139   0.837  11.737  0.2229  0.2117  0.2371
18130TIP3    H175881   5.170   0.913  11.786 -1.2652 -0.0295  1.6403
18130TIP3    H275882   5.058   0.867  11.696  0.4271 -0.1782 -0.4697
18131TIP3   OH275883   2.922   3.940   3.375  0.1583 -0.4469 -0.8554
18131TIP3    H175884   2.877   4.024   3.373 -2.9162 -1.7678  2.2363
18131TIP3    H275885   2.932   3.915   3.283 -1.8368  1.8093 -1.7723
18132TIP3   OH275886   1.572   6.657  13.814 -0.4452 -0.2831 -0.1289
18132TIP3    H175887   1.620   6.576  13.796  1.5154  0.8569 -0.3132
18132TIP3    H275888   1.496   6.629  13.865 -0.2665 -2.3146 -0.8776
18133TIP3   OH275889   6.023   1.129   4.185  0.1081 -0.2525  0.1498
18133TIP3    H175890   6.061   1.046   4.212  2.2574  0.8436  0.8036
18133TIP3    H275891   6.015   1.179   4.267  0.1055  0.6382 -0.3846
18134TIP3   OH275892   3.656   0.378   3.343  0.3611  0.3913  0.5319
18134TIP3    H175893   3.640   0.469   3.317 -4.4424 -0.5184 -0.6277
18134TIP3    H275894   3.661   0.329   3.260 -1.1416 -0.8399  1.1240
18135TIP3   OH275895   4.713   4.203  13.677 -0.1994 -0.1933 -0.4525
18135TIP3    H175896   4.693   4.203  13.770  2.0704  1.0028  0.1268
18135TIP3    H275897   4.656   4.270  13.639 -1.1668 -0.7227  0.0624
18136TIP3   OH275898   2.098   0.419   3.805 -0.1615  0.2865 -0.7765
18136TIP3    H175899   2.145   0.336   3.796  0.9931  0.6258  1.4325
18136TIP3    H275900   2.006   0.394   3.807  0.2016 -1.0978  0.9088
18137TIP3   OH275901   5.933   4.398  17.137  0.1639 -0.4798  0.4383
18137TIP3    H175902   6.020   4.438  17.135 -0.3018  0.5466 -1.2360
18137TIP3    H275903   5.949   4.304  17.130  1.1921 -0.4757  2.1666
18138TIP3   OH275904   5.433   4.521  14.377  0.1432 -0.1139  0.0289
18138TIP3    H175905   5.436   4.604  14.328  0.7106 -1.0575 -1.5878
18138TIP3    H275906   5.340   4.506  14.392 -0.0847 -0.1024 -1.2991
18139TIP3   OH275907   4.292   3.888   3.000 -0.2391  0.0728  0.4941
18139TIP3    H175908   4.327   3.975   3.013 -0.6752  0.2399  0.5764
18139TIP3    H275909   4.198   3.896   3.020 -0.1212 -0.6166  1.4079
18140TIP3   OH275910   1.820   4.329  16.093 -0.8248  0.0897 -0.0702
18140TIP3    H175911   1.856   4.303  16.008  0.7384  0.9752  0.2800
18140TIP3    H275912   1.813   4.247  16.142  1.4344 -0.0902  0.0680
18141TIP3   OH275913   4.142   1.973  16.717 -0.0349 -0.8697 -0.0332
18141TIP3    H175914   4.061   2.018  16.741 -0.6846 -2.1124  0.1569
18141TIP3    H275915   4.170   1.929  16.797 -0.7150 -2.7354 -0.7566
18142TIP3   OH275916   6.553   1.104  15.477  0.5644  0.1956 -0.0158
18142TIP3    H175917   6.636   1.061  15.454  0.9287  0.5365  0.6237
18142TIP3    H275918   6.562   1.124  15.570 -0.6328 -0.6280  0.2904
18143TIP3   OH275919   3.356   1.818  12.498 -0.2876  0.0173 -0.3052
18143TIP3    H175920   3.273   1.794  12.539 -0.5835 -0.0035 -0.9126
18143TIP3    H275921   3.331   1.864  12.418  0.2887  0.0691 -0.4596
18144TIP3   OH275922   5.599   0.533   3.207 -0.2662  0.5068  0.4357
18144TIP3    H175923   5.595   0.627   3.190  1.8508  0.7231  0.9050
18144TIP3    H275924   5.682   0.505   3.169 -0.9212 -1.2248  0.1891
18145TIP3   OH275925   2.617   0.863  15.578 -0.0056 -0.0190  0.1883
18145TIP3    H175926   2.616   0.820  15.663 -2.1045  0.0173  0.2413
18145TIP3    H275927   2.649   0.797  15.517  1.6988  0.0156  1.0024
18146TIP3   OH275928   3.758   2.204  15.733 -0.0621 -0.0919 -0.0520
18146TIP3    H175929   3.849   2.186  15.757  0.1034 -0.0027 -0.6045
18146TIP3    H275930   3.739   2.288  15.773  0.7393  0.8580 -1.5576
18147TIP3   OH275931   3.743   6.656  13.366 -0.4420 -0.1100  0.4492
18147TIP3    H175932   3.799   6.731  13.388  0.0244 -0.2623 -0.1663
18147TIP3    H275933   3.800   6.580  13.380  0.1002 -0.1907 -1.7893
18148TIP3   OH275934   1.308   0.707   0.536  0.6688  0.1481  0.5111
18148TIP3    H175935   1.319   0.638   0.470  0.2880 -2.0736  2.6126
18148TIP3    H275936   1.246   0.670   0.599  1.0386  2.1341  2.1423
18149TIP3   OH275937   1.923   1.715   2.626  0.4203 -0.0727 -0.2644
18149TIP3    H175938   2.000   1.760   2.661  0.7942 -0.3466 -0.7300
18149TIP3    H275939   1.859   1.719   2.697  0.1316  1.9486 -0.5591
18150TIP3   OH275940   0.398   1.539  15.670 -0.3324 -0.1863 -0.0181
18150TIP3    H175941   0.399   1.493  15.754  0.1202  1.2775  0.8149
18150TIP3    H275942   0.467   1.605  15.678  0.0038 -0.2960 -1.7177
18151TIP3   OH275943   0.186   1.686   4.342 -0.0536 -0.3823  0.6191
18151TIP3    H175944   0.222   1.772   4.318  0.2192 -0.3399  1.1557
18151TIP3    H275945   0.124   1.705   4.412 -0.8517 -0.5026 -0.0416
18152TIP3   OH275946   4.551   2.475   4.807  0.0013  0.1839  0.0168
18152TIP3    H175947   4.463   2.440   4.794  0.4148 -0.5546 -0.9976
18152TIP3    H275948   4.538   2.566   4.831 -1.0293  0.2710 -0.8212
18153TIP3   OH275949   1.804   0.989   0.827  0.2523 -0.2139  0.5984
18153TIP3    H175950   1.812   1.072   0.780  0.6582 -0.7633 -0.3223
18153TIP3    H275951   1.805   1.014   0.920 -0.5721  0.8883  0.3345
18154TIP3   OH275952   3.060   1.677   1.306  0.0637 -0.4613  0.2388
18154TIP3    H175953   2.999   1.744   1.338  0.0883 -0.8027  1.0396
18154TIP3    H275954   3.059   1.610   1.375  0.9908 -0.6907  0.0392
18155TIP3   OH275955   0.992   3.894   6.218  0.4625  0.0324  0.5229
18155TIP3    H175956   0.914   3.839   6.227  0.1304  0.5040  0.5481
18155TIP3    H275957   0.976   3.969   6.275  0.0777  1.0885 -0.9359
18156TIP3   OH275958   0.971   5.324   4.232  0.0271  0.0445  0.2070
18156TIP3    H175959   1.030   5.376   4.288  0.3118 -0.4228  0.3447
18156TIP3    H275960   1.001   5.343   4.143  0.7821 -0.6468  0.2995
18157TIP3   OH275961   5.231   3.552  15.021  0.2271  0.6618  0.0947
18157TIP3    H175962   5.326   3.557  15.022  0.1683  2.4342  0.2935
18157TIP3    H275963   5.202   3.629  15.071 -1.3000  0.6362 -0.6766
18158TIP3   OH275964   3.596   1.803  14.135 -0.6321  0.3922  0.0855
18158TIP3    H175965   3.584   1.780  14.042  1.3141 -0.1488 -0.0779
18158TIP3    H275966   3.512   1.781  14.175 -1.1554 -0.4377 -1.3537
18159TIP3   OH275967   1.606   2.555  15.607  0.6333  0.6535 -0.4748
18159TIP3    H175968   1.690   2.528  15.569  1.9490  0.5851  2.2378
18159TIP3    H275969   1.616   2.649  15.620  0.3049  0.6327 -0.0764
18160TIP3   OH275970   1.896   2.230  10.350  0.7375  0.0872  0.1531
18160TIP3    H175971   1.915   2.151  10.400 -2.2201 -0.7215  0.1762
18160TIP3    H275972   1.976   2.282  10.356  2.2011 -2.1625  1.5058
18161TIP3   OH275973   2.347   2.932   4.961 -0.7112 -0.0989 -0.0927
18161TIP3    H175974   2.439   2.956   4.956 -0.9551  0.6583 -1.7582
18161TIP3    H275975   2.329   2.886   4.879 -1.1920 -2.7319  1.3829
18162TIP3   OH275976   1.657   2.133  16.003  0.3323  0.8974  0.2837
18162TIP3    H175977   1.629   2.076  16.075 -0.2605  0.7596 -0.0542
18162TIP3    H275978   1.752   2.138  16.013  0.6664 -1.6454 -0.7307
18163TIP3   OH275979   2.569   0.800  14.902  0.1586  0.1773  0.3016
18163TIP3    H175980   2.489   0.781  14.854  0.8453 -1.4400 -0.2677
18163TIP3    H275981   2.605   0.878  14.859  0.0577 -0.4360 -0.9246
18164TIP3   OH275982   3.192   0.403  13.582 -0.5214 -0.1144 -0.0958
18164TIP3    H175983   3.264   0.438  13.635 -1.1207  4.5057 -1.8937
18164TIP3    H275984   3.233   0.334  13.529  1.6614 -0.1019  1.4402
18165TIP3   OH275985   2.676   3.638  16.912  0.3789 -0.2649 -0.4514
18165TIP3    H175986   2.633   3.608  16.992  0.2153 -0.1196 -0.4832
18165TIP3    H275987   2.638   3.582  16.844 -1.5571  1.3903 -0.8513
18166TIP3   OH275988   5.363   2.038  16.473  0.0933 -0.5051 -0.3741
18166TIP3    H175989   5.317   2.063  16.553 -1.1538  2.5060 -1.8836
18166TIP3    H275990   5.361   1.942  16.474 -2.7188 -0.5532  1.6262
18167TIP3   OH275991   0.663   4.425   1.886 -0.8799 -0.0515  0.8586
18167TIP3    H175992   0.584   4.380   1.856 -1.5043  2.9533 -2.8639
18167TIP3    H275993   0.730   4.402   1.822  0.7164 -0.8276  2.7111
18168TIP3   OH275994   0.417   1.066   2.222 -0.0246  0.0799  0.4541
18168TIP3    H175995   0.368   1.114   2.156  1.6522 -1.3188 -1.9496
18168TIP3    H275996   0.416   1.123   2.299 -1.8739  1.8816 -0.8193
18169TIP3   OH275997   1.543   6.601   5.403 -0.1545  0.3539 -0.7578
18169TIP3    H175998   1.592   6.525   5.433  0.8000  0.9332 -0.8219
18169TIP3    H275999   1.464   6.601   5.457 -0.6114 -1.1923 -1.3752
18170TIP3   OH276000   2.739   0.298  11.924  0.3400 -0.7284 -0.6048
18170TIP3    H176001   2.792   0.378  11.929 -1.4390  0.5034 -0.7794
18170TIP3    H276002   2.689   0.307  11.843 -2.0266 -0.6024  0.7750
18171TIP3   OH276003   6.267   6.592   2.800 -0.4096 -0.0237  0.2210
18171TIP3    H176004   6.196   6.616   2.859  0.1061  1.6918  0.1913
18171TIP3    H276005   6.340   6.647   2.826  0.9065 -1.6525  0.1564
18172TIP3   OH276006   2.088   3.602   3.628  0.1577  0.3518 -0.2787
18172TIP3    H176007   2.119   3.512   3.617  0.5774  0.4420  0.1129
18172TIP3    H276008   2.050   3.603   3.716 -1.1979  0.1806 -0.8464
18173TIP3   OH276009   2.071   6.264   5.216  0.4099  0.7618 -0.0213
18173TIP3    H176010   2.152   6.291   5.261  1.0503 -0.2072 -0.5496
18173TIP3    H276011   2.091   6.275   5.123 -0.9734  2.9436 -0.1259
18174TIP3   OH276012   4.149   1.943  16.175  0.0889  0.4954  0.0784
18174TIP3    H176013   4.207   1.886  16.125 -0.6240 -0.9654  0.8606
18174TIP3    H276014   4.191   1.951  16.261 -0.2942  0.3580  0.2809
18175TIP3   OH276015   6.532   1.579  11.582  0.0716 -0.1314  0.6551
18175TIP3    H176016   6.623   1.609  11.592  0.1268 -0.3891  0.9480
18175TIP3    H276017   6.500   1.626  11.505  0.5583 -0.2946  0.3471
18176TIP3   OH276018   3.156   5.408   1.656  0.4729  1.0265  0.1513
18176TIP3    H176019   3.107   5.359   1.590 -0.8877 -0.5944  2.2228
18176TIP3    H276020   3.244   5.372   1.654  0.2760  0.5749 -0.3683
18177TIP3   OH276021   4.668   6.446   1.650 -0.4077 -0.1954 -0.2178
18177TIP3    H176022   4.757   6.413   1.657 -0.3190  0.1236  0.2053
18177TIP3    H276023   4.654   6.457   1.556 -0.1221 -0.5618 -0.3080
18178TIP3   OH276024   4.060   6.522  11.479 -0.1144  0.5821  0.0757
18178TIP3    H176025   4.035   6.584  11.411 -0.3712  0.7536  0.3280
18178TIP3    H276026   3.983   6.468  11.493 -1.1354  2.4104  2.3122
18179TIP3   OH276027   2.355   5.449  16.790  0.1368  0.5211 -1.4950
18179TIP3    H176028   2.400   5.451  16.705  0.5799  0.2378 -1.2640
18179TIP3    H276029   2.332   5.357  16.803 -0.3866  0.6395 -1.5424
18180TIP3   OH276030   0.826   4.229   1.541 -0.2818 -0.2614  0.0911
18180TIP3    H176031   0.853   4.241   1.450  0.3510 -0.0078  0.3028
18180TIP3    H276032   0.887   4.163   1.576 -0.2382 -0.0375  0.4491
18181TIP3   OH276033   1.792   5.353  16.229 -0.7391 -0.3027  1.2822
18181TIP3    H176034   1.786   5.442  16.263  1.6161  0.3826  0.0844
18181TIP3    H276035   1.706   5.337  16.189 -0.9203  1.7721  0.7325
18182TIP3   OH276036   2.396   3.098   4.281  0.5246 -0.2536 -0.0731
18182TIP3    H176037   2.451   3.101   4.203 -0.0381  2.2701 -0.4626
18182TIP3    H276038   2.439   3.156   4.343  1.3385 -2.7339  1.8775
18183TIP3   OH276039   4.945   6.566  15.483 -0.5377  0.0088  0.0014
18183TIP3    H176040   4.877   6.503  15.508 -0.7610  0.2000 -0.1175
18183TIP3    H276041   5.021   6.512  15.460 -0.4191 -0.1833  0.8100
18184TIP3   OH276042   4.688   3.001   5.595 -0.7228  0.4452  0.3066
18184TIP3    H176043   4.680   3.058   5.672 -0.2545  0.3656  0.4176
18184TIP3    H276044   4.648   2.919   5.622 -0.9812  0.5715  0.3057
18185TIP3   OH276045   2.995   0.011  13.459 -0.6399  0.5519  0.5841
18185TIP3    H176046   2.966  -0.074  13.491 -0.0748 -0.1065 -0.5909
18185TIP3    H276047   3.080  -0.006  13.419 -1.0256  1.4358 -0.6596
18186TIP3   OH276048   1.413   2.440  14.157  0.3108 -0.3801  0.0702
18186TIP3    H176049   1.471   2.415  14.085  0.0430 -2.9552  0.6630
18186TIP3    H276050   1.468   2.496  14.213  0.7667  0.9811 -1.6325
18187TIP3   OH276051   0.599   6.383   2.375  0.3439 -0.1656  0.1859
18187TIP3    H176052   0.605   6.393   2.280 -0.5987  3.5455  0.3688
18187TIP3    H276053   0.507   6.365   2.392  0.6351 -1.5441  0.3992
18188TIP3   OH276054   5.469   4.991  11.110 -0.4431 -0.0902 -0.6514
18188TIP3    H176055   5.552   4.964  11.070 -0.5514  1.1509 -1.7630
18188TIP3    H276056   5.415   4.912  11.107  0.5897 -0.8597 -0.1102
18189TIP3   OH276057   2.094   0.141   0.573  0.2501 -0.5251  0.3214
18189TIP3    H176058   2.173   0.108   0.615  0.0104 -1.6212 -0.0620
18189TIP3    H276059   2.097   0.105   0.484 -0.4707 -0.2513  0.1768
18190TIP3   OH276060   2.840   6.134  13.332 -0.1590  0.0432 -0.2691
18190TIP3    H176061   2.890   6.214  13.314  1.9638 -1.0897  0.2724
18190TIP3    H276062   2.803   6.110  13.247 -0.6902  1.4993 -0.4718
18191TIP3   OH276063   6.420   0.432  16.005 -1.0313  1.0081 -0.2061
18191TIP3    H176064   6.428   0.390  15.919  2.0172 -1.1565  0.9301
18191TIP3    H276065   6.463   0.517  15.993 -0.0747  0.4775 -0.7481
18192TIP3   OH276066   6.564   4.180   1.122  0.2355 -0.1229  0.0796
18192TIP3    H176067   6.583   4.094   1.160 -0.7584 -1.1193 -1.5906
18192TIP3    H276068   6.488   4.212   1.171  0.5504 -0.2182  0.6435
18193TIP3   OH276069   0.394   0.220  13.910 -0.1175 -0.0394  0.3194
18193TIP3    H176070   0.461   0.246  13.973 -1.2407 -2.3532  2.6488
18193TIP3    H276071   0.419   0.133  13.882 -2.0895 -0.9911  1.3124
18194TIP3   OH276072   0.729   0.882   0.626  0.0413 -0.7505  0.0406
18194TIP3    H176073   0.807   0.895   0.679 -1.3829 -3.0105  2.9170
18194TIP3    H276074   0.748   0.803   0.575 -0.7713 -2.0256  1.6664
18195TIP3   OH276075   3.890   6.015   3.556 -0.1969 -0.3502 -0.2332
18195TIP3    H176076   3.929   5.929   3.573 -0.5756 -0.2783  1.0736
18195TIP3    H276077   3.824   5.998   3.489 -0.0298 -1.0160 -0.2418
18196TIP3   OH276078   0.069   6.775  14.500 -0.5195  0.4168 -0.0491
18196TIP3    H176079   0.109   6.823  14.426 -0.2271 -0.1289 -0.2499
18196TIP3    H276080  -0.021   6.807  14.503 -1.4048 -1.5707 -2.4434
18197TIP3   OH276081   6.716   6.030  14.415 -0.2314 -0.4230  0.2805
18197TIP3    H176082   6.773   6.107  14.417  2.4813 -2.2900 -0.0928
18197TIP3    H276083   6.761   5.964  14.468 -1.5112 -2.3449 -0.8859
18198TIP3   OH276084   5.560   3.845   2.892 -0.0299  0.2049 -0.3984
18198TIP3    H176085   5.474   3.862   2.931  0.5079 -2.6569  2.5140
18198TIP3    H276086   5.542   3.781   2.823 -0.2756  0.0486 -0.1913
18199TIP3   OH276087   0.406   0.664   4.212 -0.4842 -0.0593 -0.4154
18199TIP3    H176088   0.401   0.717   4.132  1.9216 -2.2763 -2.1866
18199TIP3    H276089   0.468   0.711   4.267  1.3123 -0.7377 -1.7915
18200TIP3   OH276090   5.940   3.397   4.914  0.0849 -0.6890  0.0139
18200TIP3    H176091   5.925   3.466   4.978 -1.1341 -1.1231  0.2042
18200TIP3    H276092   6.035   3.400   4.898  0.1102  0.7889  0.2726
18201TIP3   OH276093   2.205   1.115  14.786  0.1185  0.3183  0.2862
18201TIP3    H176094   2.142   1.046  14.808  1.5426 -1.0382  0.2835
18201TIP3    H276095   2.189   1.133  14.693  0.5613 -0.9380 -0.0544
18202TIP3   OH276096   0.926   4.342  12.964  0.7341 -0.4143  0.3422
18202TIP3    H176097   1.000   4.281  12.953  2.8554  1.2768  3.6485
18202TIP3    H276098   0.853   4.286  12.989  1.3605 -1.9471 -1.0127
18203TIP3   OH276099   3.461   2.149   3.124  0.1017 -0.3694 -0.5474
18203TIP3    H176100   3.416   2.076   3.081  0.4242  0.1495 -1.8123
18203TIP3    H276101   3.417   2.159   3.208  0.3596 -2.3251 -0.1309
18204TIP3   OH276102   5.130   6.573  16.756  0.6806  0.0641  0.1893
18204TIP3    H176103   5.185   6.519  16.699 -0.5628  0.7503 -1.7552
18204TIP3    H276104   5.050   6.588  16.706 -0.1309  1.4427  1.7819
18205TIP3   OH276105   2.366   0.517  16.719 -0.2582  0.0767  0.2911
18205TIP3    H176106   2.280   0.523  16.761 -0.9250  1.3622 -1.1343
18205TIP3    H276107   2.422   0.575  16.769 -1.0132  1.5021 -0.4484
18206TIP3   OH276108   4.224   1.776  13.871 -0.6253 -1.2474  0.0418
18206TIP3    H176109   4.283   1.835  13.920 -1.2196  0.3947 -1.1130
18206TIP3    H276110   4.156   1.752  13.934 -0.2431 -0.8791  0.6077
18207TIP3   OH276111   6.171   6.236  14.266 -0.0848 -0.0424  0.1819
18207TIP3    H176112   6.149   6.311  14.212 -0.3653 -0.1945  0.0813
18207TIP3    H276113   6.250   6.262  14.313  0.6070 -0.1993 -0.8707
18208TIP3   OH276114   3.558   1.594  14.933 -0.4788 -0.5273 -0.0503
18208TIP3    H176115   3.494   1.598  15.005  1.2587 -0.4575  1.5529
18208TIP3    H276116   3.621   1.528  14.961  2.4191  2.2333  0.4475
18209TIP3   OH276117   1.008   2.248   6.393 -0.5459 -0.0769  0.4148
18209TIP3    H176118   1.031   2.211   6.478 -1.5480 -0.2554  0.6311
18209TIP3    H276119   1.050   2.190   6.329  2.3088  1.4555  0.7469
18210TIP3   OH276120   0.043   4.602   3.455 -0.5203  0.2993  0.6212
18210TIP3    H176121   0.121   4.550   3.472  0.4506  2.3045  3.0807
18210TIP3    H276122   0.074   4.676   3.403 -1.1998  0.1408 -0.0294
18211TIP3   OH276123   4.771   2.909   2.169 -0.0795  0.7347  0.1018
18211TIP3    H176124   4.677   2.897   2.183  0.2180 -0.8865  1.0353
18211TIP3    H276125   4.798   2.967   2.240 -0.2630  0.6381  0.2521
18212TIP3   OH276126   5.843   0.712   1.104  0.6183 -0.0802  0.0425
18212TIP3    H176127   5.858   0.805   1.120 -0.2615  0.3929 -1.6549
18212TIP3    H276128   5.866   0.699   1.012 -0.7054 -1.2121 -0.1606
18213TIP3   OH276129   6.245   1.882  11.699 -0.0057  0.4120  0.0515
18213TIP3    H176130   6.171   1.887  11.760  1.0758 -1.8352  1.6941
18213TIP3    H276131   6.320   1.862  11.754  1.3538 -0.0395 -1.8617
18214TIP3   OH276132   3.560   4.766  17.102 -0.3839  0.2291 -0.1162
18214TIP3    H176133   3.509   4.685  17.107  0.6066 -0.4209 -0.2705
18214TIP3    H276134   3.617   4.754  17.026  0.5353  0.6070  0.4955
18215TIP3   OH276135   0.890   2.420   4.547  0.4671 -0.3304  0.2986
18215TIP3    H176136   0.888   2.366   4.626  0.6351 -0.5726  0.1408
18215TIP3    H276137   0.850   2.503   4.573  1.1472 -0.1573  0.8283
18216TIP3   OH276138   2.774   0.486  11.523  0.1352  0.0300 -0.5227
18216TIP3    H176139   2.726   0.409  11.553 -1.9183  1.8161  1.0938
18216TIP3    H276140   2.853   0.487  11.578 -1.4190  0.7782  1.8966
18217TIP3   OH276141   2.097   2.827   1.441  0.4030 -0.0463 -0.6768
18217TIP3    H176142   2.007   2.850   1.464  0.5246 -1.7421  1.9792
18217TIP3    H276143   2.143   2.911   1.439 -0.6750  0.6436  0.9526
18218TIP3   OH276144   1.832   4.329   3.807  0.0302  0.3706 -0.3641
18218TIP3    H176145   1.847   4.269   3.879 -2.4316  1.6299  1.3406
18218TIP3    H276146   1.915   4.330   3.759  0.6060 -3.2360  0.2915
18219TIP3   OH276147   4.782   1.551   5.152 -0.4080  0.3859  0.2133
18219TIP3    H176148   4.763   1.514   5.065  1.3317  0.7111 -0.3380
18219TIP3    H276149   4.833   1.483   5.196 -1.9172 -0.0955  1.3124
18220TIP3   OH276150   0.700   4.906  12.082  0.2753 -0.0443 -0.2618
18220TIP3    H176151   0.701   4.840  12.012 -0.2790  0.2221 -0.5278
18220TIP3    H276152   0.792   4.914  12.109  0.1449 -2.3210  1.1113
18221TIP3   OH276153   1.378   0.942  12.117 -0.1768 -0.8640 -0.3031
18221TIP3    H176154   1.435   0.955  12.042 -1.5634  1.3336 -1.0775
18221TIP3    H276155   1.289   0.941  12.080 -0.9576  1.0673  1.3059
18222TIP3   OH276156   5.573   4.451  14.771  0.5515  0.5435 -1.0037
18222TIP3    H176157   5.613   4.464  14.857 -1.7936 -0.6400  0.3531
18222TIP3    H276158   5.588   4.533  14.724  5.2438 -0.0453 -1.0389
18223TIP3   OH276159   6.608   2.138   3.370 -0.6321  0.0565 -1.0292
18223TIP3    H176160   6.604   2.177   3.282  1.1665  1.3944 -0.5699
18223TIP3    H276161   6.598   2.212   3.429  1.5550 -0.2943 -0.1272
18224TIP3   OH276162   5.942   1.546  11.476 -0.1051 -0.4422  0.3697
18224TIP3    H176163   5.983   1.621  11.520 -1.2363  1.5785 -1.7533
18224TIP3    H276164   5.852   1.546  11.509 -0.6887  0.4952 -1.1137
18225TIP3   OH276165   5.595   1.432  13.335 -0.1953 -0.0643  0.3904
18225TIP3    H176166   5.610   1.445  13.242 -1.7059  1.3216  0.2936
18225TIP3    H276167   5.558   1.344  13.342 -0.9346  0.1764 -0.4307
18226TIP3   OH276168   6.334   0.154  10.931 -0.1592 -0.5258  0.2667
18226TIP3    H176169   6.355   0.075  10.881  1.4236  0.0553 -0.0723
18226TIP3    H276170   6.419   0.189  10.957 -0.8386  0.8361  0.7777
18227TIP3   OH276171   4.034   1.745  13.398  0.0428  0.1520 -0.4112
18227TIP3    H176172   4.033   1.659  13.356 -0.2660 -0.5940  1.0586
18227TIP3    H276173   3.997   1.804  13.332 -0.6695 -1.0177 -1.0966
18228TIP3   OH276174   5.923   1.530   1.108  0.0876 -0.2555 -0.5768
18228TIP3    H176175   5.990   1.497   1.048  0.9955 -0.6356  0.6142
18228TIP3    H276176   5.859   1.459   1.113  1.6769 -1.6515  1.4206
18229TIP3   OH276177   0.515   0.986   0.489  0.5603 -0.3251 -0.5506
18229TIP3    H176178   0.577   0.999   0.417  0.6254 -0.1325 -0.4589
18229TIP3    H276179   0.569   0.977   0.567  0.5649 -1.8301 -0.6853
18230TIP3   OH276180   3.662   2.848  16.900  0.0965  0.3939 -0.0685
18230TIP3    H176181   3.703   2.768  16.935  2.4978  0.9338 -1.4015
18230TIP3    H276182   3.568   2.832  16.907  0.4919 -1.3565  2.3232
18231TIP3   OH276183   4.009   3.665  13.536 -0.9599  1.1441  1.2821
18231TIP3    H176184   4.030   3.636  13.625 -0.7003  1.3834  1.3008
18231TIP3    H276185   3.917   3.641  13.523 -0.2422 -1.5745  0.5746
18232TIP3   OH276186   2.663   4.376   0.862 -0.9972  0.2187  0.3699
18232TIP3    H176187   2.753   4.403   0.876 -0.3361 -1.1375 -0.9603
18232TIP3    H276188   2.641   4.323   0.938 -1.1740  1.6659  1.3654
18233TIP3   OH276189   4.609   0.511   2.537 -0.1256 -0.0818  0.2982
18233TIP3    H176190   4.666   0.474   2.604 -0.0650 -1.9248 -0.6960
18233TIP3    H276191   4.652   0.490   2.454 -1.1450  0.4456 -0.3882
18234TIP3   OH276192   4.928   5.655   4.833  0.6744  0.0750  0.2400
18234TIP3    H176193   4.966   5.576   4.872  0.6489 -0.6812 -1.1960
18234TIP3    H276194   5.003   5.712   4.816  0.8864 -0.3467 -0.2515
18235TIP3   OH276195   1.323   4.201  11.593 -0.4304  0.3754 -0.4150
18235TIP3    H176196   1.407   4.161  11.568 -0.9605 -0.8047 -0.4159
18235TIP3    H276197   1.260   4.162  11.532 -0.9622  1.3838 -0.5272
18236TIP3   OH276198   1.586   1.030  13.580 -0.5342 -0.4227 -0.3088
18236TIP3    H176199   1.672   1.022  13.538 -0.4839 -0.4988 -0.1907
18236TIP3    H276200   1.564   1.123  13.571 -0.8513 -0.5687 -1.1472
18237TIP3   OH276201   5.531   6.800   4.949 -0.1964 -0.0289  0.2478
18237TIP3    H176202   5.600   6.735   4.962  0.5137  0.5202 -0.6758
18237TIP3    H276203   5.573   6.871   4.901 -2.2303 -1.2563 -3.7735
18238TIP3   OH276204   2.586   1.649  11.990 -0.2601 -0.3207  0.2712
18238TIP3    H176205   2.642   1.572  11.983 -1.0201 -1.1555  2.4673
18238TIP3    H276206   2.647   1.723  11.986  0.4817 -0.9660 -1.8653
18239TIP3   OH276207   5.474   1.604  14.907  0.7007  0.1357 -0.6651
18239TIP3    H176208   5.422   1.594  14.986  0.0085 -2.3305 -1.3681
18239TIP3    H276209   5.414   1.587  14.835  1.6559  0.8724 -1.6815
18240TIP3   OH276210   5.021   0.366  14.923 -0.2418 -0.3959  0.2879
18240TIP3    H176211   4.964   0.319  14.862 -1.2087  0.1324  0.7583
18240TIP3    H276212   5.084   0.300  14.952 -0.6383 -1.0105 -0.2180
18241TIP3   OH276213   4.184   1.311   3.470 -0.0390  0.1243  0.0723
18241TIP3    H176214   4.273   1.338   3.492 -1.0551  1.0308  3.8110
18241TIP3    H276215   4.132   1.392   3.475 -1.3123 -0.6059 -0.6655
18242TIP3   OH276216   4.547   2.325  12.550  0.1524 -0.0892  0.0425
18242TIP3    H176217   4.561   2.380  12.473 -1.8655 -0.2343 -0.4866
18242TIP3    H276218   4.506   2.246  12.516  0.0524 -0.5452  1.1738
18243TIP3   OH276219   5.521   5.714  15.296 -0.0289  0.0812  0.3874
18243TIP3    H176220   5.501   5.709  15.202 -0.8327 -0.5970  0.5847
18243TIP3    H276221   5.435   5.712  15.339  0.2822  1.2923  1.1150
18244TIP3   OH276222   2.885   4.707   1.374 -0.3256  0.3899 -0.3555
18244TIP3    H176223   2.880   4.778   1.438 -0.6267  0.7317 -0.7563
18244TIP3    H276224   2.975   4.674   1.382  0.5183  2.2046 -1.6255
18245TIP3   OH276225   5.797   2.493   3.387 -0.1651  0.0684  0.5241
18245TIP3    H176226   5.714   2.537   3.368 -0.0595 -0.5071 -1.4870
18245TIP3    H276227   5.856   2.564   3.414  0.1768  1.4222 -3.2114
18246TIP3   OH276228   1.993   6.159  11.256  0.3929 -0.2060  0.2679
18246TIP3    H176229   1.955   6.112  11.182  1.6376  1.7351 -1.7426
18246TIP3    H276230   2.024   6.091  11.315 -2.2865 -1.8160 -0.0378
18247TIP3   OH276231   2.289   6.463   4.000 -0.0411  0.4251 -0.0869
18247TIP3    H176232   2.329   6.504   4.076 -0.0701  0.4673 -0.0939
18247TIP3    H276233   2.337   6.381   3.988 -0.5287  0.0612  0.4220
18248TIP3   OH276234   4.806   1.477  12.274 -0.8339 -0.5319  0.0986
18248TIP3    H176235   4.818   1.426  12.193  0.7206 -0.3363  0.1667
18248TIP3    H276236   4.783   1.565  12.244  1.6148  0.0718 -0.3013
18249TIP3   OH276237   0.422   0.429  15.988  0.4406 -0.3417 -0.2004
18249TIP3    H176238   0.348   0.390  15.941  0.0637  1.4363 -1.1817
18249TIP3    H276239   0.406   0.406  16.080  0.3189 -2.5148 -0.7068
18250TIP3   OH276240   6.691   5.219  13.744  0.2554  0.0123  0.5325
18250TIP3    H176241   6.609   5.269  13.738  0.3592  0.6089  3.0596
18250TIP3    H276242   6.664   5.128  13.736 -0.9071  0.1096  2.6957
18251TIP3   OH276243   2.164   2.557   3.245  0.7872 -0.1579  0.1484
18251TIP3    H176244   2.074   2.544   3.217  0.2313  2.0027  0.6944
18251TIP3    H276245   2.174   2.653   3.250  2.9313 -0.3457  0.6464
18252TIP3   OH276246   2.847   2.276  11.541  0.1258  0.0698 -0.4984
18252TIP3    H176247   2.760   2.275  11.500 -0.9938 -0.0123  1.6978
18252TIP3    H276248   2.843   2.349  11.603  1.8967  0.4801 -0.8162
18253TIP3   OH276249   5.229   6.657  13.841  0.3331  0.2158  0.0346
18253TIP3    H176250   5.237   6.562  13.835  0.7188  0.0744  2.1500
18253TIP3    H276251   5.154   6.678  13.785  0.8295 -1.1841 -1.2388
18254TIP3   OH276252   1.973   1.105  13.780  0.3078 -0.7613 -0.0624
18254TIP3    H176253   2.032   1.034  13.804  1.9177  0.3366 -0.5665
18254TIP3    H276254   1.927   1.074  13.702  2.3302 -0.6120 -1.3784
18255TIP3   OH276255   3.173   0.349   1.452  0.0426 -0.5780  0.0083
18255TIP3    H176256   3.120   0.320   1.378  0.4869 -0.2145 -0.4601
18255TIP3    H276257   3.250   0.292   1.450  0.1393 -0.4522  0.0830
18256TIP3   OH276258   6.791   0.632   1.879  0.0891 -0.9213 -0.1774
18256TIP3    H176259   6.879   0.608   1.911  0.5589  0.8726  0.0028
18256TIP3    H276260   6.782   0.724   1.904 -1.9311 -1.1204 -0.0673
18257TIP3   OH276261   2.818   5.959  10.942 -0.2315 -0.1049  0.0771
18257TIP3    H176262   2.729   5.940  10.914 -1.0861  3.3084  0.0590
18257TIP3    H276263   2.813   5.961  11.038 -0.1066 -0.2186  0.0866
18258TIP3   OH276264   2.407   0.779  13.528  0.0643 -0.1717 -0.4986
18258TIP3    H176265   2.427   0.702  13.474 -1.6404 -0.3733 -0.8819
18258TIP3    H276266   2.389   0.743  13.615  1.5250  0.0365 -0.0833
18259TIP3   OH276267   5.600   6.394  16.441 -0.1304  0.2049 -0.1699
18259TIP3    H176268   5.675   6.360  16.392  0.3229  0.2847  0.4618
18259TIP3    H276269   5.552   6.447  16.377  0.6956  0.6641 -0.4228
18260TIP3   OH276270   1.798   0.222  12.623  0.2657  0.3796 -0.5773
18260TIP3    H176271   1.840   0.155  12.677  0.4610  1.3613  0.5545
18260TIP3    H276272   1.765   0.175  12.547 -1.6026 -1.4172  1.2091
18261TIP3   OH276273   2.043   5.040   1.670  0.6670  0.5905 -0.9981
18261TIP3    H176274   2.093   5.074   1.596  0.8226  1.1557 -0.6311
18261TIP3    H276275   1.986   5.112   1.696  0.8022  0.4807 -0.3942
18262TIP3   OH276276   2.306   1.902  14.164  0.3002  0.0524  0.0717
18262TIP3    H176277   2.301   1.982  14.216 -3.2012  0.4797 -0.6565
18262TIP3    H276278   2.311   1.831  14.228 -0.0100  0.7298  0.8542
18263TIP3   OH276279   1.714   5.070  15.321 -0.8841 -0.6401  0.2889
18263TIP3    H176280   1.620   5.057  15.333 -1.2708  0.5337 -1.2222
18263TIP3    H276281   1.727   5.165  15.326 -0.2730 -0.4988 -2.4312
18264TIP3   OH276282   4.019   0.976   4.934  0.1157  0.0166 -0.1103
18264TIP3    H176283   4.046   0.907   4.874  0.3906  1.4092 -1.6655
18264TIP3    H276284   4.098   1.030   4.946  0.7659 -1.4423  3.3872
18265TIP3   OH276285   5.414   2.312  13.937  0.2331  0.1216  0.6936
18265TIP3    H176286   5.356   2.250  13.981 -1.2277  0.3828 -0.7379
18265TIP3    H276287   5.448   2.264  13.861 -0.0031  0.6901  0.2132
18266TIP3   OH276288   1.719   4.145  13.377  0.4696 -0.2470 -0.1532
18266TIP3    H176289   1.641   4.122  13.325 -0.9004  0.0166  1.6903
18266TIP3    H276290   1.750   4.227  13.338  0.4228 -0.8422 -1.5033
18267TIP3   OH276291   1.781   5.438   3.618 -0.3705 -0.5574  0.0821
18267TIP3    H176292   1.792   5.369   3.684  1.7289  1.3168  1.8608
18267TIP3    H276293   1.686   5.450   3.612 -0.6917 -2.0536  1.4133
18268TIP3   OH276294   1.392   3.983  15.592 -0.7176 -0.8999 -0.0154
18268TIP3    H176295   1.323   4.030  15.640  0.1345 -1.6886  2.1468
18268TIP3    H276296   1.345   3.921  15.536 -1.7822  0.0932 -0.2483
18269TIP3   OH276297   0.449   5.800  14.221 -0.3622 -0.1065 -0.1767
18269TIP3    H176298   0.503   5.729  14.187 -1.4986 -1.2550  0.3330
18269TIP3    H276299   0.409   5.763  14.300  1.9725  2.3366  2.3641
18270TIP3   OH276300   1.048   5.691  13.220  0.6381 -0.7250 -0.4919
18270TIP3    H176301   0.995   5.670  13.297  0.7310 -1.2096 -0.5579
18270TIP3    H276302   1.123   5.632  13.225  0.9196 -0.3852 -0.6676
18271TIP3   OH276303   6.648   5.336   5.461 -0.4440 -0.1996  0.2148
18271TIP3    H176304   6.614   5.257   5.503 -0.1647 -0.0483  0.7338
18271TIP3    H276305   6.572   5.376   5.420 -0.3259 -1.6275 -1.5502
18272TIP3   OH276306   3.071   1.175  17.197 -0.2792 -0.9323  0.6343
18272TIP3    H176307   3.036   1.189  17.285 -0.9003  0.4541  0.1922
18272TIP3    H276308   3.084   1.263  17.162  2.1305 -1.3939  0.1601
18273TIP3   OH276309   3.548   3.838  14.462  0.6636  0.2054  0.3489
18273TIP3    H176310   3.516   3.774  14.526 -0.9342  1.3818  0.7979
18273TIP3    H276311   3.472   3.893  14.443  1.9322  1.8753 -0.1558
18274TIP3   OH276312   5.276   5.981  10.494  0.1029  0.9141  0.3274
18274TIP3    H176313   5.251   6.022  10.412  0.0834 -0.8145 -0.5700
18274TIP3    H276314   5.194   5.972  10.542  0.3638  3.9299  1.5936
18275TIP3   OH276315   3.296   3.183  14.218  0.6829 -0.2959 -0.1016
18275TIP3    H176316   3.355   3.185  14.143  0.6390 -2.1371 -0.2272
18275TIP3    H276317   3.351   3.151  14.290  0.6676  1.2240  0.6313
18276TIP3   OH276318   3.860   0.279  12.783  0.1252 -0.0207  0.0567
18276TIP3    H176319   3.774   0.285  12.825  0.7688  0.0468  1.4436
18276TIP3    H276320   3.852   0.332  12.704 -1.3546 -0.7217 -0.2896
18277TIP3   OH276321   2.973   2.694  16.363  0.1957  0.4751  0.0874
18277TIP3    H176322   2.960   2.599  16.359 -1.4329  0.6911 -0.4648
18277TIP3    H276323   2.951   2.725  16.276  1.4755  1.3035  0.0378
18278TIP3   OH276324   4.886   1.573   2.766  0.2516  0.0745 -0.5993
18278TIP3    H176325   4.812   1.602   2.820  0.2855 -1.7913  0.5454
18278TIP3    H276326   4.933   1.510   2.822  0.1263 -2.1951 -2.8792
18279TIP3   OH276327   3.134   6.694  17.189  0.5240 -0.2240 -0.2157
18279TIP3    H176328   3.147   6.783  17.157  2.3435  0.5358  2.3219
18279TIP3    H276329   3.201   6.642  17.144 -0.9331 -0.5339 -2.1656
18280TIP3   OH276330   4.128   2.201   3.342  0.2303  0.0125  0.0165
18280TIP3    H176331   4.138   2.149   3.422 -0.9753  1.1923  0.9690
18280TIP3    H276332   4.126   2.136   3.272 -2.3991 -1.3983  1.2544
18281TIP3   OH276333   1.868   6.684  16.132  0.1989  0.4342  0.3237
18281TIP3    H176334   1.873   6.775  16.103 -0.0601  0.9724  1.8498
18281TIP3    H276335   1.790   6.680  16.187  0.7920 -0.4281  1.1614
18282TIP3   OH276336   4.904   2.171   5.184  0.1641 -0.2543  0.1828
18282TIP3    H176337   4.888   2.154   5.091  2.7009 -2.3688  0.0335
18282TIP3    H276338   4.821   2.207   5.216 -1.3254 -1.0135 -2.5215
18283TIP3   OH276339   4.141   2.070   1.013  0.1108  0.0322  0.2332
18283TIP3    H176340   4.093   2.002   1.059  0.5822  0.7901  1.9382
18283TIP3    H276341   4.233   2.043   1.019  0.0696 -0.8318 -2.0099
18284TIP3   OH276342   3.863   3.688  13.904 -0.0408  0.2782 -0.3774
18284TIP3    H176343   3.894   3.602  13.878 -1.1989 -0.0155 -0.8786
18284TIP3    H276344   3.788   3.671  13.961  0.8356  0.9513  1.0067
18285TIP3   OH276345   6.624   5.011  17.128  0.1475  0.3684  0.1897
18285TIP3    H176346   6.581   4.931  17.097 -0.1925  0.6327 -0.0300
18285TIP3    H276347   6.631   5.066  17.050 -1.8623  1.5641  0.7879
18286TIP3   OH276348   4.985   6.155   1.444  0.0108 -0.0934 -0.2415
18286TIP3    H176349   5.028   6.152   1.530 -0.1360 -1.6599 -0.1926
18286TIP3    H276350   5.036   6.218   1.393  1.2562 -0.5650  0.3940
18287TIP3   OH276351   5.535   4.771  14.302 -0.4281 -0.3402 -0.0075
18287TIP3    H176352   5.627   4.792  14.321 -0.2016 -1.0256 -0.3089
18287TIP3    H276353   5.485   4.837  14.350  0.2497  0.9821 -1.0246
18288TIP3   OH276354   0.814   3.517   6.007 -0.0966  0.2460 -0.0758
18288TIP3    H176355   0.738   3.558   5.965 -0.8294  0.0144  0.9743
18288TIP3    H276356   0.884   3.582   6.001 -0.4145  0.5155 -0.9471
18289TIP3   OH276357   6.397   4.592  11.875 -0.4832  0.3910 -0.5836
18289TIP3    H176358   6.346   4.550  11.806 -0.7935  0.5388 -0.4451
18289TIP3    H276359   6.398   4.685  11.851 -1.4218  0.5981  0.1200
18290TIP3   OH276360   6.487   3.171  14.028  0.1812 -0.0079  0.1815
18290TIP3    H176361   6.528   3.104  13.974 -0.0870  0.3691 -0.5056
18290TIP3    H276362   6.506   3.145  14.118  0.7265 -0.5868 -0.0960
18291TIP3   OH276363   2.512   2.573   0.834  0.4041 -0.0578  0.5569
18291TIP3    H176364   2.587   2.632   0.847  1.2216 -0.5205 -1.5580
18291TIP3    H276365   2.456   2.589   0.909  0.2758  3.8675 -0.1396
18292TIP3   OH276366   0.284   5.974   4.070  0.0168  0.4168  0.2971
18292TIP3    H176367   0.235   5.893   4.078 -0.6697  0.9129  1.2880
18292TIP3    H276368   0.311   5.977   3.978  0.8517 -1.3710  0.4346
18293TIP3   OH276369   2.109   0.014  16.523 -0.1295 -0.2584 -0.0489
18293TIP3    H176370   2.176   0.009  16.591  0.4557 -0.4303 -0.6177
18293TIP3    H276371   2.031  -0.023  16.563  0.4033 -1.0361  0.2928
18294TIP3   OH276372   0.979   0.015   5.565 -0.3887  0.1974 -0.9202
18294TIP3    H176373   0.949   0.070   5.493  0.6711  1.6624 -0.3029
18294TIP3    H276374   0.899  -0.013   5.609 -0.9926  0.5476 -1.7634
18295TIP3   OH276375   4.663   2.272   4.925  0.1153 -0.2707  0.3731
18295TIP3    H176376   4.715   2.276   5.005 -0.6892 -0.6249  0.9242
18295TIP3    H276377   4.656   2.363   4.896  0.8508 -0.1999  0.4107
18296TIP3   OH276378   3.525   1.536  13.988 -0.0244  0.1041 -0.0848
18296TIP3    H176379   3.487   1.569  13.906  1.2079 -0.1798 -0.7969
18296TIP3    H276380   3.533   1.442  13.975  0.7827  0.1406  0.1027
18297TIP3   OH276381   2.137   0.982   5.010 -0.3781 -0.5392 -0.2463
18297TIP3    H176382   2.205   1.043   5.039 -0.7111 -1.2625  2.2356
18297TIP3    H276383   2.090   0.958   5.089 -2.9881 -0.7810 -1.7454
18298TIP3   OH276384   3.581   6.563   5.311  0.3691 -0.1586 -0.2333
18298TIP3    H176385   3.636   6.614   5.371  1.2705  0.0361 -1.2018
18298TIP3    H276386   3.499   6.549   5.360  1.6863 -1.5165  1.7205
18299TIP3   OH276387   0.983   1.018  12.634  0.0835  0.3171 -0.2344
18299TIP3    H176388   0.900   1.031  12.587 -0.1765  2.6149  0.7617
18299TIP3    H276389   0.995   0.923  12.633 -1.4939  0.0634 -2.1991
18300TIP3   OH276390   3.629   4.846  14.647  0.3632  0.2073 -0.0844
18300TIP3    H176391   3.715   4.815  14.676 -0.5080 -0.5596  1.8224
18300TIP3    H276392   3.649   4.921  14.591  2.4277 -2.0431 -2.6505
18301TIP3   OH276393   0.565   2.063  16.417 -0.1831  0.8662 -0.5311
18301TIP3    H176394   0.597   1.975  16.400 -0.8267  0.6716 -0.7864
18301TIP3    H276395   0.477   2.050  16.453  0.5505  1.3310  1.5567
18302TIP3   OH276396   6.257   3.250  13.897 -0.6435  0.2151 -0.5078
18302TIP3    H176397   6.342   3.215  13.923 -2.2123 -2.1175  1.9736
18302TIP3    H276398   6.237   3.316  13.963 -0.1478  1.9958 -2.0328
18303TIP3   OH276399   1.060   1.784  10.530 -1.1450  0.2386 -0.2121
18303TIP3    H176400   1.084   1.862  10.581  0.6488  0.8793 -1.9005
18303TIP3    H276401   1.046   1.817  10.441 -0.4610 -1.3362 -0.9359
18304TIP3   OH276402   2.502   4.422  13.252 -0.0112 -0.4334 -0.0993
18304TIP3    H176403   2.417   4.410  13.296 -0.7661 -1.4369 -1.7332
18304TIP3    H276404   2.507   4.516  13.236  0.2967 -0.0306  2.0730
18305TIP3   OH276405   4.768   3.149   0.624  0.1716 -0.2472 -0.4574
18305TIP3    H176406   4.686   3.186   0.658  0.4907 -1.4306  1.7730
18305TIP3    H276407   4.747   3.058   0.603  0.5602 -0.1390 -1.3612
18306TIP3   OH276408   4.887   3.373  14.038  0.2308 -0.1584  0.0241
18306TIP3    H176409   4.918   3.345  13.952 -4.0037 -0.9582 -1.5054
18306TIP3    H276410   4.853   3.461  14.024  0.3949  0.0980  1.1302
18307TIP3   OH276411   3.476   2.439  12.910 -0.2577  0.1053  0.2051
18307TIP3    H176412   3.430   2.506  12.860 -0.4200  0.2429  0.5340
18307TIP3    H276413   3.533   2.488  12.968  0.7613 -0.0775 -0.6234
18308TIP3   OH276414   3.799   2.992  15.268  0.4731  0.1303  0.6907
18308TIP3    H176415   3.802   3.082  15.301 -0.0086  0.3752  0.0957
18308TIP3    H276416   3.743   2.997  15.191 -0.1503 -0.8126  1.0620
18309TIP3   OH276417   2.503   3.474  14.718  0.1971 -0.3705  0.2910
18309TIP3    H176418   2.461   3.501  14.636  0.8856  0.1893  0.1069
18309TIP3    H276419   2.451   3.400  14.749  0.3178 -1.0470 -1.0159
18310TIP3   OH276420   5.886   6.524  13.783  0.3165 -0.0201 -0.3553
18310TIP3    H176421   5.921   6.438  13.806  0.3339 -0.4097 -1.7877
18310TIP3    H276422   5.825   6.544  13.854 -0.1121 -1.4614 -0.2773
18311TIP3   OH276423   4.220   0.809  14.783  0.3773  0.4724 -0.2731
18311TIP3    H176424   4.252   0.884  14.832  2.5416  0.0423 -0.9461
18311TIP3    H276425   4.172   0.846  14.709 -0.0223  1.1470  0.3127
18312TIP3   OH276426   5.477   5.755  12.663  0.2368  0.6678  0.1738
18312TIP3    H176427   5.519   5.669  12.656 -0.7918  0.0094  1.6267
18312TIP3    H276428   5.426   5.763  12.583  3.1816  1.6015 -1.7779
18313TIP3   OH276429   1.303   2.226  14.533  0.6332  0.7961 -0.3229
18313TIP3    H176430   1.261   2.171  14.467  0.1397  3.1711 -2.1524
18313TIP3    H276431   1.230   2.266  14.581  0.9761 -1.4263  2.3130
18314TIP3   OH276432   6.702   2.202  11.390 -0.5313  0.1461  0.1064
18314TIP3    H176433   6.731   2.292  11.379  1.1359 -0.4718 -0.9562
18314TIP3    H276434   6.662   2.179  11.306  0.4709 -0.5583 -0.2047
18315TIP3   OH276435   0.203   1.655   2.738  0.4099 -0.1440  0.6219
18315TIP3    H176436   0.172   1.626   2.823 -2.0816  1.3247  0.3156
18315TIP3    H276437   0.277   1.713   2.758  1.0820 -1.3212  1.6231
18316TIP3   OH276438   2.406   4.422   1.144  0.3341  0.1986 -0.4247
18316TIP3    H176439   2.433   4.335   1.114 -0.4440 -0.1144 -0.2401
18316TIP3    H276440   2.340   4.450   1.081 -0.4166  0.0664  0.2996
18317TIP3   OH276441   5.341   4.767  14.886 -0.3292 -0.1187 -0.3232
18317TIP3    H176442   5.332   4.765  14.982 -0.2067 -0.0943 -0.3109
18317TIP3    H276443   5.341   4.674  14.861  0.1629 -0.1470 -0.2446
18318TIP3   OH276444   5.447   4.641  11.482  0.4282  0.0113 -0.5199
18318TIP3    H176445   5.471   4.713  11.425  0.5954  0.8188  0.5540
18318TIP3    H276446   5.354   4.654  11.500  0.7463  0.7612  0.7477
18319TIP3   OH276447   4.530   2.356   2.555 -0.0538  0.5203  0.3200
18319TIP3    H176448   4.595   2.321   2.615  0.3748  0.7221 -0.0225
18319TIP3    H276449   4.557   2.324   2.469  0.3661  1.7047 -0.0102
18320TIP3   OH276450   5.596   5.913  11.529 -0.0293 -0.6972  0.5026
18320TIP3    H176451   5.654   5.861  11.473 -0.7018 -1.0924  0.1581
18320TIP3    H276452   5.559   5.849  11.590 -2.6523 -1.1192 -1.3878
18321TIP3   OH276453   0.921   4.828   4.632 -0.2114 -0.3747 -0.0799
18321TIP3    H176454   0.935   4.736   4.652  2.7865  0.4733  2.7813
18321TIP3    H276455   0.981   4.846   4.560  0.0254 -0.4492  0.0971
18322TIP3   OH276456   4.383   2.045   3.146  0.3057 -0.0952  0.8550
18322TIP3    H176457   4.306   2.090   3.111  2.1972  1.0317 -2.3292
18322TIP3    H276458   4.380   2.063   3.240 -2.8759  0.4895  0.7617
18323TIP3   OH276459   6.469   2.546  13.247  0.1005  0.8023  0.3337
18323TIP3    H176460   6.495   2.521  13.336  0.2284 -0.0388  0.0634
18323TIP3    H276461   6.461   2.463  13.200 -3.2393  0.9507  0.4186
18324TIP3   OH276462   2.804   3.111  11.119 -0.4478 -0.0313 -0.5025
18324TIP3    H176463   2.777   3.078  11.033 -1.1871 -0.0370 -0.2765
18324TIP3    H276464   2.796   3.035  11.177  2.1680 -0.6418 -0.8062
18325TIP3   OH276465   0.951   0.433   6.671 -0.0246  0.8701  0.0541
18325TIP3    H176466   0.967   0.514   6.623 -1.8892 -0.3855 -2.9896
18325TIP3    H276467   0.856   0.421   6.666  0.0099 -0.6523  1.9858
18326TIP3   OH276468   4.441   5.842   6.694 -0.2080 -0.2774 -0.2635
18326TIP3    H176469   4.443   5.786   6.616 -3.0816 -0.7517 -0.1084
18326TIP3    H276470   4.396   5.789   6.760 -0.6187  1.2548  0.7233
18327TIP3   OH276471   1.185   2.404  11.440 -0.4406 -0.5304 -0.1213
18327TIP3    H176472   1.183   2.337  11.371  1.4395  1.1409 -1.9143
18327TIP3    H276473   1.171   2.487  11.393 -0.0075  0.5778  1.6392
18328TIP3   OH276474   1.916   1.145   1.254  0.1389  0.2352  0.0479
18328TIP3    H176475   1.908   1.081   1.183  0.1960 -0.2777  0.5012
18328TIP3    H276476   2.007   1.138   1.282 -0.0757 -0.1079  0.6751
18329TIP3   OH276477   0.718   5.591  15.285 -0.5391  0.2380  0.2070
18329TIP3    H176478   0.744   5.683  15.285 -2.2855  0.7662  0.4454
18329TIP3    H276479   0.745   5.558  15.199  0.7611  0.7507  0.3955
18330TIP3   OH276480   3.118   3.215   1.080 -0.1465  0.4277 -0.2398
18330TIP3    H176481   3.128   3.291   1.138  0.9180  0.9938 -1.1170
18330TIP3    H276482   3.170   3.147   1.122 -0.9125  0.2395  0.4299
18331TIP3   OH276483   4.084   2.939  10.656  0.6027  0.3409 -0.4083
18331TIP3    H176484   4.001   2.983  10.675  0.0423 -0.3198 -1.2263
18331TIP3    H276485   4.131   3.000  10.599  0.2774  0.3224 -0.6990
18332TIP3   OH276486   6.555   0.452   1.059  0.1463 -0.4340 -0.4321
18332TIP3    H176487   6.505   0.459   1.140 -1.6497 -0.9566 -1.4591
18332TIP3    H276488   6.580   0.360   1.054  0.7044 -0.3010 -0.2445
18333TIP3   OH276489   4.931   2.752   5.704  0.8742  0.0365 -0.3141
18333TIP3    H176490   4.981   2.812   5.649  1.6638  1.4035  1.7785
18333TIP3    H276491   4.983   2.671   5.704  2.4885  1.0165  0.7834
18334TIP3   OH276492   0.566   6.306  17.081  0.2775 -0.4003  0.0495
18334TIP3    H176493   0.545   6.241  17.149  0.2790  0.6080  1.0407
18334TIP3    H276494   0.620   6.258  17.019 -1.8416 -2.0813 -0.6553
18335TIP3   OH276495   0.751   0.156  15.243  0.0769  0.5243  0.5054
18335TIP3    H176496   0.718   0.194  15.161 -1.7834  0.6830  1.2869
18335TIP3    H276497   0.725   0.064  15.239  1.2998  0.1704  0.2835
18336TIP3   OH276498   6.254   5.254   1.447 -0.1670 -0.4001 -0.7390
18336TIP3    H176499   6.239   5.180   1.388 -0.0883 -1.3102  0.3439
18336TIP3    H276500   6.305   5.217   1.519  1.6499  1.1635 -1.1418
18337TIP3   OH276501   4.157   5.443  13.435  0.0075  0.1209 -0.9089
18337TIP3    H176502   4.087   5.459  13.372 -1.3223  0.2845  0.5358
18337TIP3    H276503   4.112   5.410  13.513  1.5961 -0.1985 -0.0794
18338TIP3   OH276504   6.753   1.355  11.637 -0.3195 -0.1418 -0.0316
18338TIP3    H176505   6.728   1.410  11.563  0.6857  0.8049  0.3008
18338TIP3    H276506   6.777   1.417  11.706 -0.9056 -1.0065  0.9786
18339TIP3   OH276507   3.309   3.879  12.968 -0.3978  0.6276 -0.1453
18339TIP3    H176508   3.227   3.921  12.993 -0.8131  0.4311 -1.1047
18339TIP3    H276509   3.283   3.814  12.902  0.5708  0.8106 -0.7285
18340TIP3   OH276510   5.869   3.954  13.278  0.1189 -0.3878 -0.3553
18340TIP3    H176511   5.819   3.936  13.198 -0.9450  2.0662 -0.3470
18340TIP3    H276512   5.956   3.980  13.247  0.1047 -0.6451 -0.6182
18341TIP3   OH276513   5.282   2.097   1.621  0.1158 -0.1628 -0.2791
18341TIP3    H176514   5.191   2.084   1.648 -0.3903  1.8152 -0.8911
18341TIP3    H276515   5.332   2.086   1.702 -0.4904 -2.4993 -0.1546
18342TIP3   OH276516   2.860   3.738   5.742  0.2521 -0.0957  0.0219
18342TIP3    H176517   2.847   3.677   5.814  0.4352  1.4178  1.3929
18342TIP3    H276518   2.841   3.824   5.779 -0.1208  0.6911 -1.8763
18343TIP3   OH276519   0.166   1.592   0.148  0.4467  0.7848 -0.9368
18343TIP3    H176520   0.110   1.515   0.146 -0.8845  1.5947  1.1941
18343TIP3    H276521   0.200   1.600   0.059  0.2127 -1.9115 -1.3511
18344TIP3   OH276522   4.871   0.842   5.634 -0.5354  0.1652  0.0809
18344TIP3    H176523   4.815   0.904   5.587 -1.9708 -0.9459  0.2205
18344TIP3    H276524   4.859   0.759   5.587 -1.8288 -0.9360  2.1724
18345TIP3   OH276525   0.453   0.413   0.004 -0.3949 -0.0773 -0.0612
18345TIP3    H176526   0.393   0.487   0.018  0.1549  0.1743  1.0970
18345TIP3    H276527   0.395   0.337  -0.002 -0.9174  0.3358 -0.4572
18346TIP3   OH276528   0.584   1.695  14.771 -0.4814 -0.6175 -0.4582
18346TIP3    H176529   0.577   1.689  14.867 -2.3825 -0.8812 -0.5618
18346TIP3    H276530   0.611   1.607  14.744  0.9094 -0.3090 -0.1310
18347TIP3   OH276531   0.206   5.345   3.242 -0.0722  0.3541  0.0763
18347TIP3    H176532   0.113   5.322   3.235  0.0632  0.3395 -4.7481
18347TIP3    H276533   0.249   5.263   3.265 -1.0726 -0.1231  0.3197
18348TIP3   OH276534   3.997   1.497   6.276  0.1610 -0.4148  0.2557
18348TIP3    H176535   4.023   1.576   6.323  0.5977  0.4527 -1.3631
18348TIP3    H276536   4.079   1.465   6.237 -0.4576 -0.1487 -1.2944
18349TIP3   OH276537   5.539   6.708  13.715 -0.0798  1.0335 -0.2812
18349TIP3    H176538   5.497   6.650  13.651  0.7480  1.7511 -1.5064
18349TIP3    H276539   5.547   6.654  13.794 -1.5653  0.2913 -0.6006
18350TIP3   OH276540   1.368   2.527  11.612 -0.3020  0.3112  0.5968
18350TIP3    H176541   1.316   2.467  11.558  1.7504  0.3300 -1.5329
18350TIP3    H276542   1.339   2.614  11.585  0.2258  0.3119  0.0163
18351TIP3   OH276543   0.209   0.837   3.894  0.1132  0.3368  0.0167
18351TIP3    H176544   0.299   0.808   3.882  0.2690  0.5820  0.5576
18351TIP3    H276545   0.190   0.889   3.816 -0.0143 -0.8069 -0.7404
18352TIP3   OH276546   2.502   1.585  15.048  0.0946  0.5985 -0.2257
18352TIP3    H176547   2.564   1.524  15.007 -1.8062 -1.8888  0.3706
18352TIP3    H276548   2.424   1.533  15.065 -1.2228  2.9292  1.5353
18353TIP3   OH276549   5.436   3.567  11.954  0.3140 -0.2127 -0.0585
18353TIP3    H176550   5.348   3.568  11.914  0.0616 -0.0136  0.4926
18353TIP3    H276551   5.492   3.528  11.887 -0.2076 -0.3994 -0.3957
18354TIP3   OH276552   3.582   2.657  13.567 -0.2598  0.9468 -0.3060
18354TIP3    H176553   3.518   2.610  13.514  0.7691 -2.4307  1.2229
18354TIP3    H276554   3.667   2.633  13.529  0.3212  2.0344  0.2379
18355TIP3   OH276555   2.851   6.342   3.110  0.5509 -0.2220 -0.0045
18355TIP3    H176556   2.828   6.250   3.125  2.8960 -1.0023 -0.6508
18355TIP3    H276557   2.911   6.364   3.181  1.3043  0.2469 -0.7564
18356TIP3   OH276558   6.703   3.808   4.067  0.3960  0.0946 -0.0797
18356TIP3    H176559   6.786   3.809   4.019 -0.2310 -2.4278 -1.4276
18356TIP3    H276560   6.698   3.719   4.102 -1.7334  0.1814 -0.0680
18357TIP3   OH276561   0.443   4.577  16.858 -0.1975  0.3374 -0.3261
18357TIP3    H176562   0.378   4.510  16.879  1.3450 -0.7684  1.3131
18357TIP3    H276563   0.436   4.640  16.929  0.9574 -0.1858  0.2868
18358TIP3   OH276564   5.102   2.654  14.498 -0.1549  0.3087  0.0036
18358TIP3    H176565   5.101   2.593  14.572 -1.6492  1.5886  1.1117
18358TIP3    H276566   5.085   2.739  14.537  0.2018  1.2057 -1.7034
18359TIP3   OH276567   3.289   3.938  14.418  0.2274  0.4549  0.1846
18359TIP3    H176568   3.245   3.861  14.456  2.1438 -0.0686  1.4668
18359TIP3    H276569   3.234   3.962  14.344 -1.2564 -1.2248  0.6608
18360TIP3   OH276570   0.781   1.375   0.291 -0.3695 -0.1690 -0.2197
18360TIP3    H176571   0.781   1.298   0.348  0.8931 -0.4132 -0.5257
18360TIP3    H276572   0.859   1.424   0.315 -0.1083  0.0086 -1.3402
18361TIP3   OH276573   0.517   2.202   4.609 -0.0363 -0.3753  0.2225
18361TIP3    H176574   0.594   2.172   4.656  0.4562  0.7739  0.1641
18361TIP3    H276575   0.467   2.253   4.673 -1.4490 -2.1592  0.6519
18362TIP3   OH276576   2.308   0.668   1.330  0.1963  0.0409 -0.1147
18362TIP3    H176577   2.318   0.573   1.331  1.2909  0.1340  0.9584
18362TIP3    H276578   2.234   0.686   1.389  0.0837 -0.1357 -0.2037
18363TIP3   OH276579   0.091   5.045  15.257 -0.2934  0.2584  0.1116
18363TIP3    H176580   0.073   5.013  15.345 -0.6203  1.4401  0.4946
18363TIP3    H276581   0.105   4.966  15.205  0.0795 -0.4497  1.2540
18364TIP3   OH276582   4.373   2.945   5.132 -0.1173 -0.0806  0.3353
18364TIP3    H176583   4.444   2.928   5.194 -1.4847 -0.5771  1.8269
18364TIP3    H276584   4.398   3.027   5.089 -0.1278  1.4809  3.0994
18365TIP3   OH276585   6.566   3.530  11.576 -0.2084 -0.2059  0.0165
18365TIP3    H176586   6.556   3.579  11.657  0.9671 -1.2859  0.8547
18365TIP3    H276587   6.645   3.477  11.589 -1.8649 -3.0078 -0.4261
18366TIP3   OH276588   1.372   3.206  10.546 -0.8002  0.1169  0.5902
18366TIP3    H176589   1.322   3.175  10.621 -1.8680 -0.8415 -0.4894
18366TIP3    H276590   1.367   3.135  10.483  1.8915  0.0084  0.3943
18367TIP3   OH276591   3.605   3.323  15.160 -0.1228  0.3295  0.3696
18367TIP3    H176592   3.601   3.395  15.223  1.6583 -0.4338  1.4130
18367TIP3    H276593   3.662   3.355  15.090  0.3414  0.1031  0.6370
18368TIP3   OH276594   3.864   6.201  14.569 -0.1547 -0.2309  0.1787
18368TIP3    H176595   3.851   6.266  14.639 -1.2637  0.8663 -0.9870
18368TIP3    H276596   3.839   6.248  14.489  0.9150 -1.5080 -0.9364
18369TIP3   OH276597   3.091   0.869  14.053  0.1832 -0.1560  0.2117
18369TIP3    H176598   3.012   0.919  14.074  1.0693  1.2306  0.3840
18369TIP3    H276599   3.146   0.879  14.130  0.0806 -2.1047  0.5779
18370TIP3   OH276600   4.984   4.755  13.290 -0.1121  0.0451 -0.3622
18370TIP3    H176601   5.007   4.837  13.247 -0.1873 -0.3047 -1.0987
18370TIP3    H276602   4.889   4.756  13.296 -0.1766 -0.3323 -1.1188
18371TIP3   OH276603   1.918   3.610  12.668  0.5607  0.3571 -0.4722
18371TIP3    H176604   1.934   3.556  12.590 -2.1546  0.0388 -0.8907
18371TIP3    H276605   1.838   3.657  12.649  1.1277  2.1396  1.2193
18372TIP3   OH276606   3.382   4.080  10.932  0.0625 -0.0438  0.4065
18372TIP3    H176607   3.290   4.058  10.946 -0.4900  0.3641 -2.0297
18372TIP3    H276608   3.418   4.005  10.886  1.2324 -0.5621  2.0701
18373TIP3   OH276609   4.644   0.247  11.179 -0.2493  0.7292 -0.2020
18373TIP3    H176610   4.627   0.337  11.207  0.3064 -0.0104  2.8244
18373TIP3    H276611   4.557   0.209  11.167 -0.5098  1.1323  0.3796
18374TIP3   OH276612   3.618   2.703  12.959  0.3344 -0.6499  0.4406
18374TIP3    H176613   3.608   2.769  13.028 -2.8812  1.2529 -1.5545
18374TIP3    H276614   3.708   2.715  12.928  0.3468  1.8266  1.1800
18375TIP3   OH276615   6.778   2.888   6.721  0.5898 -0.0326  0.6611
18375TIP3    H176616   6.736   2.944   6.656  1.6745 -0.6259 -0.5909
18375TIP3    H276617   6.848   2.943   6.758  0.5712 -0.0049  0.6551
18376TIP3   OH276618   3.391   3.756  13.227 -0.6180  0.1738  0.6343
18376TIP3    H176619   3.422   3.698  13.158 -1.9790  1.0373 -0.7698
18376TIP3    H276620   3.450   3.831  13.224 -0.8516  0.3427  0.1891
18377TIP3   OH276621   2.157   1.786   1.319  0.1840 -0.6286  0.3859
18377TIP3    H176622   2.098   1.857   1.293  1.1467 -0.2436 -0.8355
18377TIP3    H276623   2.125   1.759   1.405 -1.7594 -0.4149 -0.2128
18378TIP3   OH276624   1.957   3.333  11.439  0.3427  0.1324  0.3577
18378TIP3    H176625   2.012   3.393  11.389 -1.3929  2.5887  1.1666
18378TIP3    H276626   1.965   3.363  11.530 -1.5546  0.0322  0.6108
18379TIP3   OH276627   5.689   5.046  13.176  0.6870 -0.2597  0.1685
18379TIP3    H176628   5.680   4.952  13.195  1.8526 -0.4564 -0.2040
18379TIP3    H276629   5.697   5.050  13.081 -0.2838  0.3114  0.0973
18380TIP3   OH276630   1.614   0.182   0.921  0.2754  0.8107  0.0750
18380TIP3    H176631   1.589   0.098   0.960  2.1472  0.2445  0.1849
18380TIP3    H276632   1.572   0.181   0.834  0.1517 -0.1785  0.1274
18381TIP3   OH276633   5.697   0.835  13.285  0.6547 -0.1590 -0.2558
18381TIP3    H176634   5.782   0.807  13.318 -0.0977 -0.1836  1.7781
18381TIP3    H276635   5.639   0.760  13.301  0.2109 -0.1503 -1.6263
18382TIP3   OH276636   1.106   5.283   2.765  0.3033 -0.0189 -0.1129
18382TIP3    H176637   1.155   5.283   2.848  0.8779  0.7783 -0.4382
18382TIP3    H276638   1.097   5.376   2.743  0.5537 -0.2331 -1.1642
18383TIP3   OH276639   6.637   6.151  14.099  0.3638 -0.1967  0.8529
18383TIP3    H176640   6.722   6.166  14.140  0.5220 -0.4893  0.6328
18383TIP3    H276641   6.592   6.092  14.159 -0.1949  0.9792  1.6356
18384TIP3   OH276642   1.117   4.362   0.133  0.3508  0.1732  0.2225
18384TIP3    H176643   1.121   4.270   0.106  0.4681  0.4930 -0.8815
18384TIP3    H276644   1.190   4.372   0.193  0.1774 -0.5199  0.5670
18385TIP3   OH276645   0.541   1.696   0.268  0.2817  0.5132  0.9085
18385TIP3    H176646   0.563   1.729   0.181  1.9507 -0.2597  1.0013
18385TIP3    H276647   0.488   1.619   0.252  1.6257 -0.3553  0.5091
18386TIP3   OH276648   0.118   6.330  15.873  0.1991  0.0725 -0.1011
18386TIP3    H176649   0.106   6.383  15.794  1.3189  0.6835  0.1193
18386TIP3    H276650   0.211   6.339  15.895  0.3049 -1.5752  0.2603
18387TIP3   OH276651   0.103   5.148   5.792 -0.1846  0.5656  0.0189
18387TIP3    H176652   0.031   5.086   5.805  0.7478 -0.2312  1.8615
18387TIP3    H276653   0.166   5.125   5.861  2.3631  0.5049 -2.1825
18388TIP3   OH276654   4.747   6.725  15.292  0.0989 -0.6021  0.0846
18388TIP3    H176655   4.734   6.710  15.198  1.0028  0.1429 -0.1806
18388TIP3    H276656   4.802   6.652  15.320  2.1411  0.5917 -0.5952
18389TIP3   OH276657   3.867   3.674  15.439  0.4147 -0.1466  0.1511
18389TIP3    H176658   3.936   3.673  15.372  0.6231  0.8895  0.3234
18389TIP3    H276659   3.805   3.607  15.411  1.4156 -1.0045 -0.0906
18390TIP3   OH276660   5.625   5.409   3.098  0.3914  0.1275 -0.0585
18390TIP3    H176661   5.607   5.318   3.121  0.1840  0.2778  0.3957
18390TIP3    H276662   5.703   5.405   3.043  0.3521 -0.3293 -0.0863
18391TIP3   OH276663   3.410   3.413  14.376 -0.0689 -0.1382 -0.7402
18391TIP3    H176664   3.377   3.396  14.464  0.0375  2.0831 -0.2019
18391TIP3    H276665   3.338   3.391  14.318 -0.4239 -0.8559 -0.0356
18392TIP3   OH276666   1.233   3.334  15.900 -0.0242 -0.6203 -0.3719
18392TIP3    H176667   1.316   3.289  15.916  1.1240  1.6876  0.6796
18392TIP3    H276668   1.258   3.423  15.876 -2.2015  0.3212  0.5739
18393TIP3   OH276669   6.047   6.740   5.026 -0.3500  0.0479 -0.6382
18393TIP3    H176670   6.079   6.694   4.948  1.8373  0.9900 -0.3650
18393TIP3    H276671   6.108   6.813   5.037 -1.3232  0.6189  1.2796
18394TIP3   OH276672   2.739   0.215  12.422  0.4170 -0.7331 -0.0732
18394TIP3    H176673   2.666   0.271  12.450  1.3386 -0.3560  1.7289
18394TIP3    H276674   2.721   0.196  12.330 -1.0347  0.7867 -0.1466
18395TIP3   OH276675   2.922   6.611  10.864 -0.1493  0.0557  0.7962
18395TIP3    H176676   2.924   6.519  10.888  0.6989 -0.2984 -0.4921
18395TIP3    H276677   2.946   6.612  10.771 -1.1451  1.4925  0.5159
18396TIP3   OH276678   3.758   2.228   1.645 -0.0272 -0.2617  0.0674
18396TIP3    H176679   3.663   2.212   1.645 -0.2430  0.9043 -0.8525
18396TIP3    H276680   3.796   2.140   1.648 -1.0985 -0.7211  2.2674
18397TIP3   OH276681   5.808   1.234   2.802 -0.4534  0.0021  0.2458
18397TIP3    H176682   5.821   1.241   2.897  2.2148  3.8420 -0.1597
18397TIP3    H276683   5.886   1.190   2.770 -1.5054 -1.6071 -0.2131
18398TIP3   OH276684   4.906   4.054   5.253 -0.5287 -0.1312  0.1691
18398TIP3    H176685   4.912   4.149   5.270 -2.4026  0.4745 -2.1669
18398TIP3    H276686   4.834   4.024   5.309 -1.9356  0.4679 -1.2463
18399TIP3   OH276687   2.188   1.764  11.637  0.0704  0.4515  0.1546
18399TIP3    H176688   2.155   1.763  11.727 -0.5384 -2.9966  0.0452
18399TIP3    H276689   2.176   1.854  11.608 -3.1247  0.9102  2.3507
18400TIP3   OH276690   2.961   4.090  13.750  0.3810 -0.6521 -0.0135
18400TIP3    H176691   2.933   4.011  13.795  0.3670 -0.3233  0.5572
18400TIP3    H276692   3.036   4.063  13.697 -0.2696 -1.2807 -0.6442
18401TIP3   OH276693   6.448   4.006   0.509 -0.4485  0.0949  0.2760
18401TIP3    H176694   6.367   3.955   0.506 -1.3221  1.4613  0.1104
18401TIP3    H276695   6.420   4.097   0.512  1.0832  0.7960 -2.8851
18402TIP3   OH276696   4.834   4.312  14.936 -0.7706 -0.5355  0.0687
18402TIP3    H176697   4.929   4.310  14.951 -0.3833  0.9079 -1.7826
18402TIP3    H276698   4.802   4.379  14.996 -0.4218 -0.2267 -0.0824
18403TIP3   OH276699   1.538   4.037   5.658 -0.3546  0.0544 -0.1300
18403TIP3    H176700   1.536   4.131   5.640  2.2815  0.2189  0.0979
18403TIP3    H276701   1.482   3.998   5.590 -2.7787  1.8456  0.7119
18404TIP3   OH276702   6.334   0.029   3.025 -0.2776 -0.0646 -0.2509
18404TIP3    H176703   6.360   0.060   2.938 -1.7080  1.5065 -0.1724
18404TIP3    H276704   6.390   0.077   3.086 -1.9579  1.8997 -0.1671
18405TIP3   OH276705   3.934   6.328  14.829 -0.3066 -0.2690  0.2813
18405TIP3    H176706   3.956   6.253  14.886 -0.7029 -0.7637 -0.2040
18405TIP3    H276707   3.941   6.404  14.886  0.7000 -0.6120  0.6397
18406TIP3   OH276708   4.027   4.643   3.032 -0.4639 -0.5486  0.0546
18406TIP3    H176709   3.978   4.562   3.045 -1.3308  0.0889  0.9031
18406TIP3    H276710   4.062   4.665   3.119 -0.8230  0.3379 -0.0078
18407TIP3   OH276711   3.489   5.910   3.094 -0.0989 -0.0423  0.6604
18407TIP3    H176712   3.484   5.983   3.155  0.0110  1.1582 -0.6899
18407TIP3    H276713   3.570   5.926   3.044  0.5848 -1.7693  1.1341
18408TIP3   OH276714   5.817   4.223  16.277  0.2816  0.0173  0.1629
18408TIP3    H176715   5.824   4.190  16.366 -2.0657  3.0731  1.6593
18408TIP3    H276716   5.723   4.220  16.257  0.5132  1.4124 -1.3537
18409TIP3   OH276717   1.962   0.398  11.353 -0.2224  0.4280  0.5300
18409TIP3    H176718   1.995   0.420  11.440  0.7529 -1.2201  0.6308
18409TIP3    H276719   1.872   0.370  11.368  0.1446 -0.4796  1.1365
18410TIP3   OH276720   6.134   0.300   3.128 -0.2035 -0.5495  0.0117
18410TIP3    H176721   6.219   0.336   3.151  1.9120 -4.2446 -1.1494
18410TIP3    H276722   6.111   0.343   3.046  2.2349 -1.6725 -1.3748
18411TIP3   OH276723   5.413   2.858   4.559  0.6020 -0.3189  0.1960
18411TIP3    H176724   5.505   2.880   4.545  0.4002  0.2619 -0.2485
18411TIP3    H276725   5.415   2.779   4.612  1.3505  0.1035  0.8097
18412TIP3   OH276726   2.428   3.161  16.199  0.1778 -0.4908  0.1112
18412TIP3    H176727   2.425   3.112  16.117 -1.0916 -1.2199  0.5673
18412TIP3    H276728   2.505   3.127  16.245 -0.3939 -1.7305  0.1946
18413TIP3   OH276729   3.830   2.633   5.922 -0.3717  0.1846  0.2305
18413TIP3    H176730   3.790   2.546   5.918 -0.1172 -0.0416  1.7143
18413TIP3    H276731   3.778   2.687   5.863  0.8622 -1.4624 -2.5223
18414TIP3   OH276732   4.208   2.287   1.901 -0.1126 -0.3322  0.2164
18414TIP3    H176733   4.227   2.206   1.948  1.6720 -0.8301 -1.2455
18414TIP3    H276734   4.117   2.278   1.873  0.1491 -2.0173 -0.2067
18415TIP3   OH276735   4.580   0.286   1.420  0.2003 -0.3040 -0.9026
18415TIP3    H176736   4.620   0.354   1.476  0.1117  0.8430 -2.1872
18415TIP3    H276737   4.652   0.226   1.401 -0.0401 -1.4538  1.4330
18416TIP3   OH276738   1.873   2.382  16.442 -0.0632  0.2561  0.4165
18416TIP3    H176739   1.802   2.392  16.379 -0.6139  0.8448  1.1146
18416TIP3    H276740   1.859   2.294  16.479 -0.2423  0.2498  0.3367
18417TIP3   OH276741   2.067   1.271  13.558 -0.0579  0.4174  0.1429
18417TIP3    H176742   2.036   1.300  13.472  1.0545  1.7752  0.1695
18417TIP3    H276743   2.139   1.330  13.579 -0.2516  0.0648  1.9847
18418TIP3   OH276744   4.697   1.078  15.910 -0.7216  0.1097  0.3367
18418TIP3    H176745   4.621   1.036  15.950 -1.4698 -0.2359 -1.3769
18418TIP3    H276746   4.741   1.122  15.983 -2.4806  0.2065  1.3876
18419TIP3   OH276747   4.993   6.075  13.183 -0.4424 -0.1138 -0.1098
18419TIP3    H176748   4.973   5.991  13.225 -1.9112 -1.4699 -3.1867
18419TIP3    H276749   4.922   6.133  13.211 -1.9737 -1.2866 -1.4007
18420TIP3   OH276750   2.926   5.517   3.079  0.0699 -0.2915  0.2522
18420TIP3    H176751   2.913   5.425   3.056  0.7446 -0.2761 -0.2440
18420TIP3    H276752   2.983   5.514   3.156 -0.1291 -0.2989  0.3972
18421TIP3   OH276753   0.040   4.166  15.770 -0.0663  0.2843 -0.1627
18421TIP3    H176754  -0.011   4.246  15.763  1.2212  1.4009  2.1500
18421TIP3    H276755   0.026   4.136  15.860  0.9190 -1.0854 -0.4335
18422TIP3   OH276756   1.374   2.641  10.478  0.0712  0.0565  0.0884
18422TIP3    H176757   1.454   2.624  10.429  1.3860  3.2773  0.8359
18422TIP3    H276758   1.374   2.577  10.548  1.4171 -0.6898 -0.5627
18423TIP3   OH276759   6.149   4.593  14.984  0.3701 -0.2468 -0.3992
18423TIP3    H176760   6.078   4.595  15.048  1.6898 -0.1602  1.1124
18423TIP3    H276761   6.109   4.554  14.906 -1.0453 -1.2602  0.7754
18424TIP3   OH276762   3.515   3.373  10.930 -0.2676 -0.4896 -0.0401
18424TIP3    H176763   3.437   3.330  10.964 -0.2079 -1.3563 -0.9428
18424TIP3    H276764   3.488   3.464  10.917 -0.7875 -0.5310  0.6889
18425TIP3   OH276765   0.423   3.391   5.272 -0.1787  0.2324 -0.1590
18425TIP3    H176766   0.448   3.358   5.359  0.4210  2.7657  0.7095
18425TIP3    H276767   0.328   3.397   5.276 -0.0741  1.9899  1.0571
18426TIP3   OH276768   5.149   4.491   1.198 -0.3424 -0.5989  0.1860
18426TIP3    H176769   5.195   4.425   1.251 -0.2127  0.7982  1.8920
18426TIP3    H276770   5.056   4.475   1.217 -0.4039 -1.2285 -0.5878
18427TIP3   OH276771   0.706   5.061  16.315 -0.3208 -0.4304  0.1241
18427TIP3    H176772   0.748   5.058  16.401  0.4534 -1.6892 -0.2736
18427TIP3    H276773   0.775   5.089  16.255 -0.5064 -0.8181 -0.2760
18428TIP3   OH276774   1.487   0.465   0.864  0.3793 -0.1266  0.1866
18428TIP3    H176775   1.574   0.474   0.825  0.5837 -2.6652 -0.1517
18428TIP3    H276776   1.434   0.532   0.822  2.3814  2.2293  1.1904
18429TIP3   OH276777   2.869   3.187   2.047 -0.1796 -0.4243 -0.5301
18429TIP3    H176778   2.947   3.166   2.098 -0.8560 -1.3959  0.1246
18429TIP3    H276779   2.894   3.264   1.996  1.0898 -0.5145 -0.0709
18430TIP3   OH276780   5.855   3.371  16.234  0.0440 -0.1020  0.0281
18430TIP3    H176781   5.816   3.360  16.321 -2.0906  0.3055 -0.8331
18430TIP3    H276782   5.825   3.456  16.205  1.2983  0.0632 -0.8798
18431TIP3   OH276783   1.279   0.165   2.313 -0.1669 -0.4277 -0.3451
18431TIP3    H176784   1.277   0.257   2.287  1.2075 -0.6588 -1.3889
18431TIP3    H276785   1.189   0.135   2.302 -0.5263  0.6569 -0.4804
18432TIP3   OH276786   1.073   3.467  14.759 -0.0491  0.3310 -0.4030
18432TIP3    H176787   1.127   3.476  14.838  2.0862  1.0194 -1.8395
18432TIP3    H276788   0.985   3.448  14.792  0.6472  1.0847  2.1377
18433TIP3   OH276789   3.690   0.422  13.231 -0.3104 -0.1720  0.3417
18433TIP3    H176790   3.614   0.389  13.280  0.2886  1.9566  2.9636
18433TIP3    H276791   3.689   0.517  13.247  2.0904  0.0999 -0.7557
18434TIP3   OH276792   6.257   2.304  14.294  0.1492  0.0197 -0.1737
18434TIP3    H176793   6.311   2.368  14.340 -0.4698 -0.3185  1.0727
18434TIP3    H276794   6.245   2.341  14.207  2.2246  0.1828 -0.4436
18435TIP3   OH276795   0.305   6.147   1.045  0.3635 -0.1718  0.4575
18435TIP3    H176796   0.380   6.155   1.105 -1.0222  0.3673  2.2108
18435TIP3    H276797   0.252   6.076   1.082  0.1305 -0.7586 -0.9314
18436TIP3   OH276798   2.167   0.028   4.859 -0.1284 -0.2945  0.0618
18436TIP3    H176799   2.211   0.027   4.774  0.7617  0.1734  0.5078
18436TIP3    H276800   2.108   0.103   4.855  0.6388  0.3224  0.2103
18437TIP3   OH276801   6.669   2.681  13.886 -0.0580  0.3617 -0.0750
18437TIP3    H176802   6.614   2.614  13.845  0.3698 -0.6892  1.0285
18437TIP3    H276803   6.692   2.645  13.971  1.8005  1.0445 -0.2328
18438TIP3   OH276804   5.651   6.098   2.103 -0.4953 -0.3475 -0.4956
18438TIP3    H176805   5.677   6.024   2.049  0.7727  0.3452 -0.8786
18438TIP3    H276806   5.713   6.099   2.175  2.2507  2.6816 -2.6243
18439TIP3   OH276807   3.827   1.379   5.317 -0.0413 -0.0502 -0.2318
18439TIP3    H176808   3.796   1.336   5.397 -0.4430 -0.2144 -0.4773
18439TIP3    H276809   3.900   1.433   5.347  0.2233 -0.6093  0.1363
18440TIP3   OH276810   6.538   1.873   0.677  0.5152 -0.3704 -0.1641
18440TIP3    H176811   6.534   1.887   0.772 -0.2058  2.9883 -0.5731
18440TIP3    H276812   6.457   1.826   0.656 -0.8750  1.5527  0.5882
18441TIP3   OH276813   5.013   1.559  13.191 -0.2499 -0.7619 -0.0615
18441TIP3    H176814   5.005   1.642  13.238  1.1782  0.2748 -1.5172
18441TIP3    H276815   5.104   1.532  13.206 -0.4598 -1.6499 -0.3069
18442TIP3   OH276816   0.968   0.991   6.136 -0.0943 -0.1308 -0.3221
18442TIP3    H176817   0.989   1.084   6.126  0.2804 -0.3031 -1.2145
18442TIP3    H276818   1.043   0.954   6.183  0.3568 -0.2235 -1.1040
18443TIP3   OH276819   0.522   5.910   4.668 -0.2455 -0.0166 -0.0772
18443TIP3    H176820   0.487   5.823   4.647  2.2815 -1.0340 -0.5529
18443TIP3    H276821   0.526   5.911   4.764  1.4889 -1.3142 -0.0742
18444TIP3   OH276822   0.464   4.812   0.212  0.2118 -0.0004  0.1313
18444TIP3    H176823   0.443   4.871   0.284 -0.0060  0.6724 -0.4683
18444TIP3    H276824   0.424   4.728   0.237 -0.4015  0.3935  0.4975
18445TIP3   OH276825   1.778   3.885   1.518 -0.5216 -0.8846 -0.3281
18445TIP3    H176826   1.857   3.884   1.571 -0.0970 -0.7853 -0.9444
18445TIP3    H276827   1.724   3.954   1.555 -0.4877 -1.2085  0.3344
18446TIP3   OH276828   4.504   5.640   0.121 -0.0227  0.4550  0.4244
18446TIP3    H176829   4.456   5.614   0.042 -0.5906  0.6375  0.7011
18446TIP3    H276830   4.584   5.682   0.089  0.4935 -0.8252 -0.0417
18447TIP3   OH276831   1.510   3.077   3.930  0.2380 -0.4374 -0.0442
18447TIP3    H176832   1.556   3.118   4.003  0.4670 -0.4915 -0.1552
18447TIP3    H276833   1.434   3.034   3.970  0.5298 -0.7294  0.2093
18448TIP3   OH276834   6.559   1.532   1.612  0.5028  0.2053 -0.6282
18448TIP3    H176835   6.522   1.524   1.701  0.0841 -0.0249 -0.8181
18448TIP3    H276836   6.534   1.450   1.569  2.2487 -0.4805 -0.4046
18449TIP3   OH276837   3.215   5.775   5.986 -0.3000 -0.2724 -0.2387
18449TIP3    H176838   3.220   5.814   6.073 -0.3820  0.1366 -0.4162
18449TIP3    H276839   3.142   5.714   5.990 -0.7532  0.2689 -0.2290
18450TIP3   OH276840   0.693   2.565  11.740  0.2649 -0.5202  0.1136
18450TIP3    H176841   0.781   2.603  11.731  0.3030 -0.5096  0.5348
18450TIP3    H276842   0.648   2.623  11.800 -0.0125 -0.5680 -0.0477
18451TIP3   OH276843   0.939   1.547   3.316  0.0100 -0.5512  1.2945
18451TIP3    H176844   1.033   1.566   3.318 -0.2023  0.4405  2.3905
18451TIP3    H276845   0.922   1.526   3.224  0.8876  1.4722  0.6161
18452TIP3   OH276846   2.320   2.557   0.169  0.3245 -0.4760  0.0320
18452TIP3    H176847   2.260   2.598   0.107  0.7846 -1.0665 -0.8312
18452TIP3    H276848   2.392   2.525   0.115  2.3516  1.7762  1.1891
18453TIP3   OH276849   6.603   3.373  12.302  0.4927 -0.0424 -0.3797
18453TIP3    H176850   6.545   3.412  12.367  0.3222 -1.3255  0.2732
18453TIP3    H276851   6.687   3.417  12.314 -0.2665  1.7375 -1.2386
18454TIP3   OH276852   3.894   4.987  11.851 -0.2109  0.3087 -0.1412
18454TIP3    H176853   3.947   5.047  11.799  0.3993  0.3360  0.4934
18454TIP3    H276854   3.827   5.043  11.890 -0.4841  0.3389 -0.6451
18455TIP3   OH276855   3.345   0.774  16.014 -0.1123  0.3460 -0.0087
18455TIP3    H176856   3.435   0.755  15.988 -0.2670 -1.7968  0.8285
18455TIP3    H276857   3.292   0.706  15.973 -1.7006  2.6405 -2.0574
18456TIP3   OH276858   2.482   4.685  15.169  0.2409 -0.7253  0.3904
18456TIP3    H176859   2.496   4.591  15.160  1.0472 -0.6975  1.2562
18456TIP3    H276860   2.552   4.715  15.227  1.2386  0.7657 -1.4655
18457TIP3   OH276861   1.166   5.098   1.721  0.5145  0.2683  0.0885
18457TIP3    H176862   1.127   5.056   1.798 -0.6857 -0.0907 -0.6900
18457TIP3    H276863   1.098   5.157   1.689 -0.2380 -1.7874 -2.4486
18458TIP3   OH276864   1.030   3.059  14.244  0.5577  1.0645  0.4763
18458TIP3    H176865   1.082   3.024  14.316 -0.9681 -0.8017  0.7763
18458TIP3    H276866   0.940   3.062  14.278 -0.1113  0.6608 -1.1444
18459TIP3   OH276867   3.270   2.557   1.876  0.2306 -0.2195  0.3001
18459TIP3    H176868   3.360   2.531   1.896  0.0571 -1.0115  0.1111
18459TIP3    H276869   3.232   2.582   1.960  1.0903  1.6645  0.1571
18460TIP3   OH276870   0.848   1.787   2.652  0.4271 -0.3997 -0.1245
18460TIP3    H176871   0.809   1.843   2.719 -2.9915 -1.1356 -1.3273
18460TIP3    H276872   0.935   1.766   2.686  0.4931  2.6904  2.0172
18461TIP3   OH276873   3.522   2.230   3.787 -0.2348  0.2055  0.1604
18461TIP3    H176874   3.570   2.282   3.852  1.6541 -2.1959  0.8502
18461TIP3    H276875   3.533   2.279   3.705 -0.6211  2.0728  1.1577
18462TIP3   OH276876   4.843   6.562   5.567 -0.0976  0.3894  0.4901
18462TIP3    H176877   4.767   6.550   5.623 -1.2519  0.9525 -0.9081
18462TIP3    H276878   4.872   6.474   5.545 -0.7999  0.1781  0.4202
18463TIP3   OH276879   1.471   1.549   3.805  0.5462 -0.4817 -0.0863
18463TIP3    H176880   1.559   1.573   3.832  0.5039 -0.9004  0.4491
18463TIP3    H276881   1.473   1.453   3.801  0.1996 -0.4799 -0.3687
18464TIP3   OH276882   2.527   2.712  13.202 -0.5325  0.2636  0.8654
18464TIP3    H176883   2.504   2.649  13.270 -0.8024 -0.0300  0.5011
18464TIP3    H276884   2.623   2.712  13.202 -0.5244  0.5847  1.5378
18465TIP3   OH276885   2.296   2.435   2.375 -0.3584 -0.0944 -0.1265
18465TIP3    H176886   2.379   2.390   2.357 -0.0480  1.3578 -2.9000
18465TIP3    H276887   2.320   2.509   2.431  0.1644  0.0646 -0.5531
18466TIP3   OH276888   4.586   2.250   1.691  0.0305 -0.3692  0.3244
18466TIP3    H176889   4.616   2.240   1.600 -1.5217 -0.8036 -0.1781
18466TIP3    H276890   4.594   2.343   1.709 -0.3143 -0.1677 -0.5189
18467TIP3   OH276891   3.455   0.693  15.345  1.0358 -0.2758 -0.2559
18467TIP3    H176892   3.532   0.697  15.288  1.7602 -4.1430  0.1968
18467TIP3    H276893   3.456   0.605  15.381 -3.0153 -0.1201  0.7158
18468TIP3   OH276894   1.913   6.500   3.044  0.0597  0.5375 -0.1923
18468TIP3    H176895   1.837   6.443   3.040 -0.2234  0.7927  0.9938
18468TIP3    H276896   1.926   6.530   2.954 -1.1617  0.3796 -0.4406
18469TIP3   OH276897   0.360   0.912  12.650  0.3208  0.5509  0.6000
18469TIP3    H176898   0.386   0.820  12.642  1.0408  0.8039 -0.0130
18469TIP3    H276899   0.364   0.930  12.744  0.7156  0.1093  0.6718
18470TIP3   OH276900   1.855   1.790  15.037 -0.8294 -0.6484 -0.6398
18470TIP3    H176901   1.875   1.879  15.065 -0.1899 -1.0666  0.2681
18470TIP3    H276902   1.791   1.758  15.100 -0.2601 -1.1904 -0.3178
18471TIP3   OH276903   4.216   6.299  15.000 -0.3074 -0.2524  0.1488
18471TIP3    H176904   4.136   6.253  14.975 -0.8970  1.6062 -1.7049
18471TIP3    H276905   4.261   6.239  15.059 -2.4490 -1.8797  0.2512
18472TIP3   OH276906   0.145   3.259   4.078 -0.1164 -0.1934 -0.2548
18472TIP3    H176907   0.212   3.264   4.010  0.8438  0.9113  0.7239
18472TIP3    H276908   0.192   3.277   4.159 -1.0786 -2.2462  0.8304
18473TIP3   OH276909   3.939   0.984  13.174  0.4840  0.0129 -0.2315
18473TIP3    H176910   4.025   0.943  13.186  0.8561  1.3797  2.6263
18473TIP3    H276911   3.956   1.066  13.129  0.9655  0.9619  1.5759
18474TIP3   OH276912   2.649   0.912  12.891 -0.0147 -0.5538 -0.2607
18474TIP3    H176913   2.705   0.900  12.815 -0.4981  1.8788 -1.0684
18474TIP3    H276914   2.703   0.886  12.965  1.8678  0.8092 -1.0955
18475TIP3   OH276915   1.765   1.684   2.142  0.3535 -0.0186 -0.6506
18475TIP3    H176916   1.755   1.605   2.089  0.4743 -0.6124  0.1839
18475TIP3    H276917   1.799   1.750   2.082  0.9731 -0.8156 -1.1922
18476TIP3   OH276918   5.873   1.121   6.062 -0.2827 -0.1005 -0.0855
18476TIP3    H176919   5.883   1.198   6.006  1.2570  2.1239  2.9363
18476TIP3    H276920   5.782   1.093   6.047 -0.9760  2.4269 -1.1910
18477TIP3   OH276921   6.076   4.615  13.729  0.0762  0.4069 -0.3791
18477TIP3    H176922   6.027   4.548  13.681 -0.8317  1.0136 -0.3390
18477TIP3    H276923   6.132   4.567  13.789  0.6534 -0.3510 -1.4984
18478TIP3   OH276924   2.718   4.107   4.179 -0.1360  0.2329 -0.1715
18478TIP3    H176925   2.773   4.140   4.108  2.3253  0.0479  1.5305
18478TIP3    H276926   2.696   4.017   4.153  2.0899 -0.4052 -0.0554
18479TIP3   OH276927   0.296   4.995  13.680 -0.9753 -1.1291 -0.0922
18479TIP3    H176928   0.286   4.958  13.592 -1.9200 -1.6708  0.2256
18479TIP3    H276929   0.235   4.944  13.734 -0.6154 -0.6102  0.8185
18480TIP3   OH276930   6.098   2.609   3.874  0.0384 -0.1519  0.5697
18480TIP3    H176931   6.071   2.517   3.869  3.0484 -1.0626 -1.7902
18480TIP3    H276932   6.028   2.657   3.831 -0.6112 -1.5990 -0.0615
18481TIP3   OH276933   4.805   3.582  11.746  0.3363 -0.3321  0.4325
18481TIP3    H176934   4.750   3.647  11.790  0.3994 -0.0838  0.1515
18481TIP3    H276935   4.744   3.527  11.698  0.3281 -0.0855  0.1579
18482TIP3   OH276936   3.735   5.083   0.468 -0.2050 -0.2193 -0.0028
18482TIP3    H176937   3.706   5.067   0.558  0.4579  0.4525  0.3423
18482TIP3    H276938   3.830   5.086   0.474 -0.2137  1.5754 -0.4204
18483TIP3   OH276939   2.559   2.520   5.557  0.2731  0.3923  0.1736
18483TIP3    H176940   2.599   2.596   5.598  1.8180 -0.7962  0.9574
18483TIP3    H276941   2.607   2.508   5.475  1.6958 -1.1061  1.1701
18484TIP3   OH276942   0.672   5.182   3.158  1.1249  0.1588  0.3907
18484TIP3    H176943   0.706   5.093   3.158  0.0956 -0.2776  2.0701
18484TIP3    H276944   0.727   5.229   3.096 -0.1586 -2.2979 -2.8803
18485TIP3   OH276945   3.857   4.610   3.512 -0.0782 -0.0270 -0.0039
18485TIP3    H176946   3.939   4.656   3.532 -0.1093  0.6434 -1.3194
18485TIP3    H276947   3.844   4.624   3.418  0.0467 -2.9933 -0.5410
18486TIP3   OH276948   1.371   3.094   4.930 -0.1872 -0.0205  0.9535
18486TIP3    H176949   1.398   3.004   4.913 -1.3404 -0.3080  0.5465
18486TIP3    H276950   1.296   3.085   4.990 -0.1226  0.6781  1.1400
18487TIP3   OH276951   4.581   0.009  11.474 -1.0735  0.1696  0.0087
18487TIP3    H176952   4.558   0.101  11.460 -0.3878  0.2113 -0.9494
18487TIP3    H276953   4.676   0.007  11.465 -0.7754 -0.2263  2.4854
18488TIP3   OH276954   3.428   2.505   0.123  0.0140  0.1362 -0.2731
18488TIP3    H176955   3.340   2.468   0.124 -0.1226  0.4240 -0.7917
18488TIP3    H276956   3.415   2.597   0.099  0.2481  0.8161  1.9533
18489TIP3   OH276957   3.549   5.938  13.765  0.1386 -0.0913 -0.5094
18489TIP3    H176958   3.615   5.869  13.761  1.1171  0.8301 -0.8344
18489TIP3    H276959   3.600   6.019  13.758 -1.0565  0.6310 -0.9671
18490TIP3   OH276960   5.517   5.506   4.354 -0.3493 -0.0720  0.5077
18490TIP3    H176961   5.486   5.509   4.263  1.0956 -0.9736 -0.0477
18490TIP3    H276962   5.444   5.467   4.402 -1.6090  1.5061 -0.0134
18491TIP3   OH276963   6.202   2.157   2.845 -0.2966 -0.9086  0.3700
18491TIP3    H176964   6.296   2.145   2.831 -0.3626 -1.7856  0.6232
18491TIP3    H276965   6.160   2.101   2.779 -0.6816  1.0186 -1.0945
18492TIP3   OH276966   1.910   0.524  15.918 -0.3374  0.1480 -0.1225
18492TIP3    H176967   1.845   0.479  15.971 -0.4906 -0.4783 -0.8230
18492TIP3    H276968   1.878   0.515  15.828  0.8753 -0.4672 -0.5144
18493TIP3   OH276969   4.761   4.304   2.211  0.0170 -0.4281 -0.4186
18493TIP3    H176970   4.673   4.272   2.191  0.3015 -1.1107 -0.6259
18493TIP3    H276971   4.808   4.226   2.241  0.4026  0.0341  0.2025
18494TIP3   OH276972   5.701   5.967  16.710  0.1748 -0.5337  0.0418
18494TIP3    H176973   5.705   6.041  16.649  0.0502 -2.1601 -2.0676
18494TIP3    H276974   5.642   5.905  16.668 -0.6775 -1.3864  2.3277
18495TIP3   OH276975   6.733   2.016   1.663 -0.0796  0.1004 -0.2209
18495TIP3    H176976   6.674   1.943   1.684  2.3066 -1.7506  0.4604
18495TIP3    H276977   6.756   2.002   1.571 -1.0786  1.1548 -0.6562
18496TIP3   OH276978   4.208   2.362  13.455  0.5373  0.1955 -0.1299
18496TIP3    H176979   4.225   2.268  13.451 -0.9382 -0.1215  0.6445
18496TIP3    H276980   4.124   2.373  13.410  0.5140  1.0958  0.1171
18497TIP3   OH276981   6.719   1.661  14.533  0.2817 -0.5531 -0.2532
18497TIP3    H176982   6.630   1.659  14.568  0.0300 -0.6321 -0.8907
18497TIP3    H276983   6.752   1.748  14.555 -0.3976 -0.0712 -1.1129
18498TIP3   OH276984   1.006   4.664  16.165  0.3457  0.0147  0.1605
18498TIP3    H176985   0.947   4.705  16.229 -0.1823 -1.9744  1.0096
18498TIP3    H276986   0.955   4.662  16.084 -0.6295 -1.2493  0.7672
18499TIP3   OH276987   0.890   0.383  16.412  0.6928 -0.3533 -0.2758
18499TIP3    H176988   0.897   0.459  16.353  0.6896 -1.3969 -1.6804
18499TIP3    H276989   0.859   0.420  16.494  0.7447  1.1839 -0.8980
18500TIP3   OH276990   1.544   3.071   2.706  0.4671 -0.2946 -0.5207
18500TIP3    H176991   1.605   3.047   2.776  0.6261 -1.4634 -1.0384
18500TIP3    H276992   1.474   3.006   2.712  0.9860 -1.0579 -2.0565
18501TIP3   OH276993   6.742   5.802  17.091  0.4680  0.4465  0.0087
18501TIP3    H176994   6.775   5.719  17.057 -0.3723  0.0579  0.1289
18501TIP3    H276995   6.717   5.851  17.013  1.1042  0.6575 -0.0716
18502TIP3   OH276996   0.017   5.457   4.594 -0.3901 -0.0557 -0.5281
18502TIP3    H176997   0.044   5.500   4.513 -1.3681 -0.4838 -1.1014
18502TIP3    H276998   0.023   5.363   4.575  1.9593 -0.2454  0.7862
18503TIP3   OH276999   6.054   0.490  14.397  0.6860  0.1492 -0.1856
18503TIP3    H177000   5.985   0.545  14.435  1.4799  1.2968 -0.3773
18503TIP3    H277001   6.075   0.531  14.313  1.5307 -0.2486 -0.1822
18504TIP3   OH277002   3.385   5.506   1.867  0.1112  0.1801 -0.2693
18504TIP3    H177003   3.302   5.548   1.843  2.0472  3.4900 -1.7926
18504TIP3    H277004   3.405   5.541   1.954  0.2846  0.0250 -0.2466
18505TIP3   OH277005   2.480   3.994  17.243 -0.4576 -0.0528  0.4810
18505TIP3    H177006   2.437   3.979  17.159 -0.2814 -0.1546  0.4068
18505TIP3    H277007   2.545   4.062  17.223 -2.2562  1.9853  1.1253
18506TIP3   OH277008   5.001   1.180   3.169 -0.1188 -0.0410  0.3157
18506TIP3    H177009   4.922   1.213   3.212 -0.1190  2.1192 -1.2207
18506TIP3    H277010   4.971   1.150   3.083  0.5051 -0.5832  0.2808
18507TIP3   OH277011   2.631   5.700   3.504 -0.4000 -0.2754  0.3329
18507TIP3    H177012   2.605   5.791   3.497 -0.4471 -0.3309 -0.2458
18507TIP3    H277013   2.727   5.702   3.507 -0.4110 -0.1886  0.5766
18508TIP3   OH277014   3.270   6.130  15.770 -0.0903  0.2921  0.3961
18508TIP3    H177015   3.356   6.166  15.793 -0.3617  0.0804  1.9007
18508TIP3    H277016   3.209   6.203  15.782 -0.5670 -0.4140  2.9171
18509TIP3   OH277017   6.274   5.042  12.575 -0.6150  0.2354  0.0419
18509TIP3    H177018   6.222   5.102  12.627  0.3383  1.7768 -0.6883
18509TIP3    H277019   6.224   4.960  12.573 -2.5228  1.3535  0.1253
18510TIP3   OH277020   2.555   6.758  11.824  0.3172  0.3800 -0.4723
18510TIP3    H177021   2.493   6.831  11.817 -1.1038 -0.6018  1.0951
18510TIP3    H277022   2.503   6.687  11.862  2.1300 -0.8668 -0.2417
18511TIP3   OH277023   1.463   6.526   6.828  0.7893  0.0019  0.0829
18511TIP3    H177024   1.520   6.602   6.825  1.0057 -0.1411 -3.4558
18511TIP3    H277025   1.376   6.559   6.804  0.3619 -0.5324  0.8262
18512TIP3   OH277026   2.836   3.189  16.713  0.7218  0.0865  0.5982
18512TIP3    H177027   2.775   3.116  16.721  0.4760  0.2140 -0.0647
18512TIP3    H277028   2.894   3.180  16.789  0.1010 -0.2381  1.0411
18513TIP3   OH277029   2.226   2.137  14.280  0.2793 -0.7743 -0.4359
18513TIP3    H177030   2.144   2.102  14.246  0.8598 -0.5757 -2.1497
18513TIP3    H277031   2.207   2.228  14.299  0.0641 -0.7658 -0.6840
18514TIP3   OH277032   3.099   2.920  17.017  0.5722 -0.1893  0.8085
18514TIP3    H177033   3.136   3.004  17.043 -1.8208  1.3106 -0.3600
18514TIP3    H277034   3.018   2.913  17.068  0.2488 -1.3221  0.1655
18515TIP3   OH277035   4.469   1.562   2.793  0.6055  0.2366  0.0692
18515TIP3    H177036   4.496   1.545   2.703 -1.7385 -0.2230 -0.6053
18515TIP3    H277037   4.547   1.600   2.834  1.7185  0.5421 -2.1537
18516TIP3   OH277038   5.989   1.057  14.785 -0.3882  0.0537  1.1628
18516TIP3    H177039   5.968   1.143  14.821  0.1329  0.6509  0.0824
18516TIP3    H277040   5.942   1.054  14.701  1.6658  0.3830 -0.0673
18517TIP3   OH277041   5.865   0.052  14.129  0.1189  0.6265  0.0485
18517TIP3    H177042   5.852   0.096  14.213 -0.1920  2.4346 -0.8802
18517TIP3    H277043   5.960   0.050  14.118  0.1258  1.8634 -0.2543
18518TIP3   OH277044   5.010   4.621   1.815  0.3518 -0.1943 -0.1522
18518TIP3    H177045   5.072   4.553   1.841 -2.1272 -2.8810 -0.6714
18518TIP3    H277046   5.055   4.670   1.747  1.7827 -2.3652 -0.8888
18519TIP3   OH277047   0.195   5.385   1.818 -0.4922  0.5294  0.5339
18519TIP3    H177048   0.166   5.427   1.899  0.2251 -0.8769  1.5488
18519TIP3    H277049   0.275   5.433   1.794  0.5778 -0.4737  1.9327
18520TIP3   OH277050   6.798   4.229   0.588 -0.5847 -0.0546 -0.0334
18520TIP3    H177051   6.704   4.240   0.576 -0.4288 -0.0345 -1.4592
18520TIP3    H277052   6.814   4.137   0.565 -0.2052  0.0584 -0.2310
18521TIP3   OH277053   3.720   1.964  12.786 -0.3105  0.3187  0.4571
18521TIP3    H177054   3.632   1.976  12.822 -0.8851 -0.8654 -0.4841
18521TIP3    H277055   3.737   2.046  12.739 -0.4223  1.0180  1.5939
18522TIP3   OH277056   5.806   0.632  12.612 -0.2886 -0.0104  0.1797
18522TIP3    H177057   5.718   0.595  12.621 -0.2345  0.1080  1.2834
18522TIP3    H277058   5.834   0.605  12.525 -2.3870  1.9943 -1.2681
18523TIP3   OH277059   1.458   2.911   4.340 -0.6440 -0.1752  0.3646
18523TIP3    H177060   1.513   2.988   4.324  0.2584 -0.5857  1.3711
18523TIP3    H277061   1.507   2.859   4.404 -2.1554 -0.6151  1.2225
18524TIP3   OH277062   1.140   4.478   2.696 -0.1865 -0.1548  0.0313
18524TIP3    H177063   1.228   4.487   2.733 -0.0631  0.5371 -0.4160
18524TIP3    H277064   1.150   4.506   2.605 -0.2573 -2.7739 -0.8852
18525TIP3   OH277065   3.120   3.775  11.704  0.0142 -0.2502 -0.1344
18525TIP3    H177066   3.062   3.851  11.706 -0.8842 -0.9089 -0.0491
18525TIP3    H277067   3.157   3.771  11.792  0.9974  0.7614 -0.4850
18526TIP3   OH277068   0.432   3.465   3.511  0.2508 -0.3728  0.0199
18526TIP3    H177069   0.369   3.393   3.509 -0.4119  0.1928 -1.9545
18526TIP3    H277070   0.500   3.439   3.450  0.7280  0.0767  0.3520
18527TIP3   OH277071   1.531   5.004  13.967  0.4740  0.7515  0.4908
18527TIP3    H177072   1.578   5.048  13.896  0.7615  0.4553  0.4969
18527TIP3    H277073   1.439   5.026  13.951  0.6011  1.2416  0.4158
18528TIP3   OH277074   2.543   0.292  10.750 -0.2441 -0.1121 -0.0089
18528TIP3    H177075   2.496   0.281  10.667 -1.7724  1.2434  0.6102
18528TIP3    H277076   2.605   0.363  10.733 -0.8701  0.4747  0.1074
18529TIP3   OH277077   2.231   2.657  13.902 -0.0676 -0.7532  0.0806
18529TIP3    H177078   2.261   2.646  13.811  1.1819 -0.0180  0.3774
18529TIP3    H277079   2.271   2.585  13.950  0.1850 -0.5002  0.2511
18530TIP3   OH277080   6.477   2.590   5.212 -0.5776 -0.2794  0.0496
18530TIP3    H177081   6.429   2.531   5.155 -1.4277 -1.2772  1.7280
18530TIP3    H277082   6.530   2.533   5.267 -0.3190  0.5979  0.7418
18531TIP3   OH277083   2.029   3.283   3.572 -0.1110  0.3493  0.5928
18531TIP3    H177084   2.028   3.239   3.658 -0.2295 -1.2480 -0.1934
18531TIP3    H277085   2.095   3.235   3.522 -2.2051 -0.7938 -1.2172
18532TIP3   OH277086   1.944   6.461  13.388  0.0819  0.7391  0.5272
18532TIP3    H177087   1.855   6.458  13.353  1.1596 -2.2415 -2.5142
18532TIP3    H277088   1.977   6.547  13.360 -0.8981  0.6511 -1.0120
18533TIP3   OH277089   3.538   4.616   0.226  0.5393  1.3063  0.2572
18533TIP3    H177090   3.515   4.698   0.183 -1.1008  0.6669 -0.1575
18533TIP3    H277091   3.565   4.558   0.154 -1.5194  0.4613  0.0998
18534TIP3   OH277092   6.519   3.074   3.200 -0.1418 -0.0185 -0.3304
18534TIP3    H177093   6.589   3.091   3.264  0.2153  0.9485 -0.9431
18534TIP3    H277094   6.488   2.986   3.220  1.5155 -0.6266 -0.2785
18535TIP3   OH277095   2.251   0.716   2.086  0.8038  0.1330 -0.4911
18535TIP3    H177096   2.164   0.732   2.049  0.1979  0.0763  0.8296
18535TIP3    H277097   2.235   0.710   2.180  2.2018 -0.2168 -0.2628
18536TIP3   OH277098   0.853   2.267   4.772 -0.5803 -0.4274  0.3255
18536TIP3    H177099   0.888   2.180   4.753  2.6762  0.4984  1.3650
18536TIP3    H277100   0.806   2.257   4.854  0.2970 -1.1218  0.7591
18537TIP3   OH277101   5.964   5.269  13.524  0.2486 -0.7793  0.4699
18537TIP3    H177102   5.940   5.228  13.441 -0.1101 -1.3497  0.8546
18537TIP3    H277103   5.926   5.213  13.591  0.1884 -0.1009  1.0167
18538TIP3   OH277104   4.418   4.912   4.169  0.2976  0.6279 -0.0615
18538TIP3    H177105   4.460   4.933   4.086 -0.6695  0.1142 -0.6938
18538TIP3    H277106   4.347   4.977   4.177 -0.0680  0.2275  0.0000
18539TIP3   OH277107   0.527   6.363   3.530  0.9268  0.4295 -0.0943
18539TIP3    H177108   0.553   6.352   3.621  0.9564  1.6017  0.0562
18539TIP3    H277109   0.585   6.432   3.497 -0.7111  1.7768 -0.2818
18540TIP3   OH277110   5.757   2.921  12.283  0.1723 -0.0169 -0.3597
18540TIP3    H177111   5.849   2.920  12.309  0.4120 -1.2794 -1.1754
18540TIP3    H277112   5.715   2.858  12.343 -0.3769  1.3145  0.6934
18541TIP3   OH277113   0.654   5.391   0.458 -0.2413 -0.5504 -0.4789
18541TIP3    H177114   0.674   5.358   0.546  1.4345 -1.7749 -1.2558
18541TIP3    H277115   0.696   5.477   0.454 -3.3502  1.2271  1.0405
18542TIP3   OH277116   3.228   1.890   4.483  0.5406  0.0192  0.4234
18542TIP3    H177117   3.201   1.974   4.521  1.2044 -0.1608  1.3439
18542TIP3    H277118   3.219   1.828   4.556  1.8099 -0.3480  0.2901
18543TIP3   OH277119   1.295   5.952  11.251  0.0433 -0.6500  0.4908
18543TIP3    H177120   1.273   5.885  11.187 -0.4645 -0.1796  0.1686
18543TIP3    H277121   1.309   6.031  11.200 -0.4896 -0.2378  0.9613
18544TIP3   OH277122   0.747   3.430   0.572 -0.2382 -0.6813  0.7871
18544TIP3    H177123   0.698   3.349   0.559 -2.0425  0.7381 -2.5605
18544TIP3    H277124   0.835   3.410   0.541 -0.6463 -1.3898  0.0432
18545TIP3   OH277125   6.146   4.773   3.108  0.1440 -0.1459 -0.3531
18545TIP3    H177126   6.119   4.752   3.018  0.1715 -0.6262 -0.2540
18545TIP3    H277127   6.214   4.708   3.128 -0.1580 -0.3128  0.1626
18546TIP3   OH277128   3.703   5.364  16.633 -0.7961  0.0838  0.0723
18546TIP3    H177129   3.704   5.357  16.537 -1.1620 -0.1078  0.0820
18546TIP3    H277130   3.611   5.374  16.655 -0.5934  1.6264  0.3096
18547TIP3   OH277131   5.219   5.245   2.382  0.1486 -0.4878  0.6269
18547TIP3    H177132   5.172   5.168   2.414  1.2647 -2.5129 -2.2102
18547TIP3    H277133   5.196   5.315   2.444 -2.6133 -2.5369  2.1162
18548TIP3   OH277134   0.926   5.466  13.982  0.0335  0.0627 -0.2857
18548TIP3    H177135   0.978   5.476  14.062 -1.4962  1.6220  0.6002
18548TIP3    H277136   0.888   5.379  13.988 -0.4798  0.3563  0.9859
18549TIP3   OH277137   2.253   4.022   4.234  0.3854  0.2005  0.1726
18549TIP3    H177138   2.311   3.968   4.287  0.2579  0.7435  0.8837
18549TIP3    H277139   2.309   4.093   4.201 -0.0312  1.2796  1.6551
18550TIP3   OH277140   0.189   5.199  11.491  0.1066  0.0961  0.0034
18550TIP3    H177141   0.168   5.292  11.481 -0.1458 -0.1561 -2.5736
18550TIP3    H277142   0.107   5.153  11.470  1.1354 -0.7193 -2.7430
18551TIP3   OH277143   2.199   1.127   2.515  0.2707  0.2977 -0.3848
18551TIP3    H177144   2.116   1.118   2.469  0.0510  0.7222 -0.0837
18551TIP3    H277145   2.225   1.218   2.501  0.9065  0.0541 -0.8375
18552TIP3   OH277146   4.128   3.416  10.850  0.0378  1.0003 -0.1432
18552TIP3    H177147   4.121   3.410  10.754  2.4552 -0.1481 -0.3250
18552TIP3    H277148   4.209   3.465  10.865 -0.9967  2.3174  1.3606
18553TIP3   OH277149   0.754   3.496   5.620 -0.3828 -0.1946 -0.4493
18553TIP3    H177150   0.704   3.577   5.616  1.4057  1.0695  1.2760
18553TIP3    H277151   0.691   3.430   5.648 -1.1046  1.3726  1.8514
18554TIP3   OH277152   6.793   6.041  10.993  0.4247  0.2937  0.3821
18554TIP3    H177153   6.883   6.052  10.962 -0.0657 -0.2413 -1.3327
18554TIP3    H277154   6.740   6.043  10.913 -1.0076 -0.1954  1.2919
18555TIP3   OH277155   1.023   3.086  11.150  0.0925 -0.4057 -0.6353
18555TIP3    H177156   1.053   3.005  11.110  0.7820  0.4080 -1.8645
18555TIP3    H277157   1.088   3.152  11.123  0.8049  0.1766  2.1566
18556TIP3   OH277158   1.335   2.296   0.272  0.0212 -0.4661 -0.0112
18556TIP3    H177159   1.309   2.294   0.180 -1.7774  1.0882  0.4134
18556TIP3    H277160   1.428   2.318   0.270 -0.0957 -0.0020 -1.4431
18557TIP3   OH277161   3.866   5.720  16.311 -0.5144 -0.1625  0.1280
18557TIP3    H177162   3.822   5.744  16.229 -0.5200 -2.0307 -0.4685
18557TIP3    H277163   3.956   5.752  16.299 -1.0024  1.3479  0.2621
18558TIP3   OH277164   5.644   3.634  16.914 -0.2692  0.1184 -0.3620
18558TIP3    H177165   5.601   3.645  16.829 -1.2398 -0.4164  0.0517
18558TIP3    H277166   5.656   3.540  16.923  2.3171  0.2798 -1.0858
18559TIP3   OH277167   4.472   0.911  14.926 -0.0351 -0.0536  0.0927
18559TIP3    H177168   4.517   0.922  15.009  0.3456 -0.6562 -0.0250
18559TIP3    H277169   4.500   0.824  14.895 -1.6831 -0.6800  0.2649
18560TIP3   OH277170   1.681   1.009  11.373  0.0461 -0.3669  0.2520
18560TIP3    H177171   1.697   1.081  11.433 -1.1238  0.2546 -0.1483
18560TIP3    H277172   1.681   0.931  11.428  0.2821  0.0545  0.8504
18561TIP3   OH277173   3.464   0.109  15.790  0.0066  0.0711 -0.8172
18561TIP3    H177174   3.458   0.022  15.751 -1.3946 -0.1075 -0.2539
18561TIP3    H277175   3.520   0.097  15.866  0.2310 -0.2221 -1.0236
18562TIP3   OH277176   4.127   1.077   6.052 -0.0483 -1.1371  0.0609
18562TIP3    H177177   4.159   0.987   6.048 -1.6783 -1.7294 -0.4191
18562TIP3    H277178   4.035   1.071   6.027  0.0354  0.7842 -0.9217
18563TIP3   OH277179   3.045   3.041   4.452 -0.1621  0.5846 -0.0387
18563TIP3    H177180   3.110   3.080   4.511 -0.3621  0.1188  0.4847
18563TIP3    H277181   3.073   3.071   4.365  1.0610 -0.0266  0.1189
18564TIP3   OH277182   2.532   4.309   2.816 -0.7266  0.1354 -0.6550
18564TIP3    H177183   2.540   4.263   2.899  0.8146  1.8326  0.1987
18564TIP3    H277184   2.504   4.241   2.754  1.9880 -2.1182  0.3842
18565TIP3   OH277185   2.551   2.060   4.621 -0.0265 -0.2704 -1.0388
18565TIP3    H177186   2.575   2.120   4.692  1.2271 -2.8459  0.9059
18565TIP3    H277187   2.627   2.060   4.563 -0.7373  1.2620 -2.0081
18566TIP3   OH277188   5.512   6.807  14.974  0.0196 -0.4786 -0.0640
18566TIP3    H177189   5.532   6.784  14.883 -1.0353 -1.9448  0.0263
18566TIP3    H277190   5.582   6.765  15.024  0.7922  0.6153 -0.2028
18567TIP3   OH277191   3.564   4.821   5.591 -0.6357 -0.5026 -0.0814
18567TIP3    H177192   3.494   4.852   5.648 -1.3475 -0.5569 -0.9033
18567TIP3    H277193   3.644   4.859   5.629 -1.2970  1.0979 -0.1775
18568TIP3   OH277194   2.769   3.658  13.363  0.1244  0.1494  0.0126
18568TIP3    H177195   2.803   3.709  13.437 -1.9432  2.1224 -0.3025
18568TIP3    H277196   2.812   3.696  13.287  0.9454 -0.7294  0.0199
18569TIP3   OH277197   4.158   4.233   3.626 -0.1377  0.1230 -0.7793
18569TIP3    H177198   4.074   4.269   3.598 -0.4447  0.4420  0.4990
18569TIP3    H277199   4.140   4.193   3.711  0.7033 -1.0460 -1.1227
18570TIP3   OH277200   3.876   4.987  12.401  0.0748  0.4137  0.2267
18570TIP3    H177201   3.838   5.051  12.461 -1.9693 -1.1560  0.7045
18570TIP3    H277202   3.801   4.945  12.360  1.3892  0.6419 -2.6576
18571TIP3   OH277203   0.179   2.438   3.871 -0.0277  0.1304 -0.6093
18571TIP3    H177204   0.175   2.479   3.957 -0.4292  0.1370 -0.6270
18571TIP3    H277205   0.098   2.467   3.827 -0.2341 -0.5372 -0.6876
18572TIP3   OH277206   3.326   4.181   5.938  0.0382 -0.3501 -0.0985
18572TIP3    H177207   3.421   4.181   5.942  0.2516 -3.7444 -2.1350
18572TIP3    H277208   3.305   4.214   5.851 -0.6503 -0.0755  0.1587
18573TIP3   OH277209   3.346   4.189   4.451 -0.1754  0.3998  0.3838
18573TIP3    H177210   3.375   4.100   4.471 -0.5787  0.6474  2.2445
18573TIP3    H277211   3.272   4.178   4.391  2.4918 -0.2946 -3.1618
18574TIP3   OH277212   2.711   2.954  12.775 -0.1687 -0.2817  0.2365
18574TIP3    H177213   2.804   2.969  12.759 -0.0181 -1.6798 -0.3510
18574TIP3    H277214   2.668   3.032  12.740  0.9173  1.9809  3.4590
18575TIP3   OH277215   4.925   3.358  11.916  0.4787  0.0002 -0.3272
18575TIP3    H177216   4.984   3.311  11.858  0.3829 -0.5713  0.0283
18575TIP3    H277217   4.883   3.424  11.860 -0.8092 -1.5865 -1.3154
18576TIP3   OH277218   3.768   6.557  14.189  0.6115 -0.0710 -0.2758
18576TIP3    H177219   3.706   6.618  14.148 -0.1170 -0.2804  0.4926
18576TIP3    H277220   3.851   6.574  14.144  0.0135  0.2308 -1.3120
18577TIP3   OH277221   5.993   0.311  16.846  0.0387  0.6742 -0.2293
18577TIP3    H177222   5.915   0.257  16.851  0.1411  0.5535  0.0415
18577TIP3    H277223   6.066   0.251  16.863  0.1006  1.0431  0.9077
18578TIP3   OH277224   2.420   1.894  11.027  0.0467 -0.0161  0.0900
18578TIP3    H177225   2.451   1.935  11.108  1.2520 -0.8253  0.0533
18578TIP3    H277226   2.472   1.814  11.019 -0.9802 -0.6178 -0.8025
18579TIP3   OH277227   0.628   0.693  15.587  0.0173  0.5136 -0.3246
18579TIP3    H177228   0.631   0.610  15.540 -0.3186 -0.0308  0.5878
18579TIP3    H277229   0.655   0.671  15.676 -3.3625  0.6786  0.8953
18580TIP3   OH277230   4.649   6.813  17.222  0.3721  0.4033 -0.0255
18580TIP3    H177231   4.701   6.748  17.175  1.4894  1.0926  0.2287
18580TIP3    H277232   4.559   6.779  17.218  1.1476 -2.2137  1.8327
18581TIP3   OH277233   6.798   5.702  13.217 -0.3329  0.2259 -0.0497
18581TIP3    H177234   6.832   5.619  13.182 -1.8231 -0.1057 -0.8222
18581TIP3    H277235   6.746   5.675  13.293 -0.0672  0.5682  0.2562
18582TIP3   OH277236   6.451   3.963  16.587 -0.2019 -0.1250  0.0799
18582TIP3    H177237   6.387   3.891  16.588  0.0410 -0.3652  1.5642
18582TIP3    H277238   6.459   3.988  16.679 -0.4236  1.9485 -0.4170
18583TIP3   OH277239   4.849   4.906   3.850  0.1976 -0.4861  0.3390
18583TIP3    H177240   4.785   4.942   3.910  1.4012  0.3505  1.1763
18583TIP3    H277241   4.816   4.928   3.763  0.5355  2.1249  0.7914
18584TIP3   OH277242   1.124   4.240   6.015  0.2109 -0.0688  0.0633
18584TIP3    H177243   1.127   4.251   6.110  1.5876  1.7947 -0.1387
18584TIP3    H277244   1.203   4.191   5.993  0.0079 -0.3114 -0.1336
18585TIP3   OH277245   0.694   2.856  13.577  0.2316  0.2292  0.0341
18585TIP3    H177246   0.764   2.802  13.613 -0.4718 -1.0602 -0.4519
18585TIP3    H277247   0.628   2.793  13.547 -0.4335  1.3479 -0.9547
18586TIP3   OH277248   2.195   3.970   1.671  0.5605  0.6528 -0.0060
18586TIP3    H177249   2.188   4.054   1.624  1.5155  0.3460 -0.7339
18586TIP3    H277250   2.105   3.948   1.695  0.0183  0.7908 -1.7920
18587TIP3   OH277251   6.095   3.924  11.895 -0.2338 -0.2044  0.5031
18587TIP3    H177252   6.111   3.913  11.801  0.9171  2.2325  0.3358
18587TIP3    H277253   6.164   3.983  11.924 -1.4103  0.2382  2.6033
18588TIP3   OH277254   1.482   2.135  16.339 -0.0572  0.0449 -0.1864
18588TIP3    H177255   1.411   2.140  16.402  1.3170  0.9636  1.3739
18588TIP3    H277256   1.453   2.188  16.265 -1.1203  0.1174  0.2700
18589TIP3   OH277257   4.267   2.623  16.822 -0.1802 -0.0711  0.5308
18589TIP3    H177258   4.188   2.631  16.770  0.0529  0.1583  0.2086
18589TIP3    H277259   4.334   2.592  16.761  0.6147  2.1958  0.1674
18590TIP3   OH277260   1.463   1.309  15.196  0.0332 -0.4523  0.0049
18590TIP3    H177261   1.515   1.363  15.137 -0.1961 -1.2618 -0.9511
18590TIP3    H277262   1.486   1.341  15.284  2.6237 -1.2028 -0.3316
18591TIP3   OH277263   3.190   1.965   2.078  0.1260  0.0290  0.4919
18591TIP3    H177264   3.178   1.990   2.169 -0.0960  0.6657  0.2905
18591TIP3    H277265   3.101   1.967   2.041  0.2665  0.1755  0.1604
18592TIP3   OH277266   1.000   2.261  14.314 -0.0500  0.4196 -0.0105
18592TIP3    H177267   1.039   2.346  14.334 -2.6497  1.4438  1.0948
18592TIP3    H277268   0.981   2.265  14.220  2.1306 -0.0252 -0.5341
18593TIP3   OH277269   2.457   6.086  14.646 -0.2252 -0.1028  0.2140
18593TIP3    H177270   2.516   6.025  14.691 -0.4905 -0.3530  0.2279
18593TIP3    H277271   2.416   6.137  14.716 -0.5373 -0.3999  0.2524
18594TIP3   OH277272   0.253   3.505   1.569 -0.1830  0.5415 -0.4925
18594TIP3    H177273   0.187   3.444   1.601  0.7806 -0.6917 -0.7999
18594TIP3    H277274   0.217   3.538   1.486 -0.8709  0.6960 -0.1404
18595TIP3   OH277275   0.117   1.754   2.506 -0.2199  0.0291 -0.8551
18595TIP3    H177276   0.101   1.844   2.536 -0.5057  0.0630 -1.1029
18595TIP3    H277277   0.127   1.704   2.587  0.8664  0.4413 -0.7192
18596TIP3   OH277278   6.121   1.659  16.580  0.1844  0.5031 -0.1425
18596TIP3    H177279   6.202   1.674  16.532  1.5651 -1.1000  1.5214
18596TIP3    H277280   6.139   1.692  16.668 -0.6727 -0.5443  0.4540
18597TIP3   OH277281   5.550   3.366   2.038 -0.5757 -0.0005 -0.0926
18597TIP3    H177282   5.626   3.366   2.095  0.2081  0.5308 -1.0975
18597TIP3    H277283   5.487   3.308   2.080 -0.3799  1.0591  1.7597
18598TIP3   OH277284   6.088   4.797   4.276 -0.1890  0.5591 -0.5849
18598TIP3    H177285   6.133   4.872   4.314  0.6318  0.8956 -2.1430
18598TIP3    H277286   6.011   4.784   4.331  0.8483  1.1223  1.0455
18599TIP3   OH277287   4.727   3.113   1.985 -0.3410 -0.2181  0.0227
18599TIP3    H177288   4.754   3.198   2.021 -0.9115 -0.1054  0.2094
18599TIP3    H277289   4.772   3.048   2.039  1.8601 -0.0626 -1.4945
18600TIP3   OH277290   3.894   1.690  16.215  0.5792  0.0576 -0.1776
18600TIP3    H177291   3.989   1.685  16.210  0.7652  1.8190  0.6340
18600TIP3    H277292   3.871   1.769  16.164 -0.3998 -0.1246 -0.0472
18601TIP3   OH277293   4.470   3.983   0.917  0.1022  0.4245  0.9203
18601TIP3    H177294   4.488   4.026   0.834  3.4125 -0.7535  0.9088
18601TIP3    H277295   4.392   4.028   0.950 -1.5382  0.7132 -2.8804
18602TIP3   OH277296   5.643   3.881   5.117  0.1768  0.7834 -0.0714
18602TIP3    H177297   5.607   3.853   5.033 -1.3663 -1.0320  1.1207
18602TIP3    H277298   5.567   3.912   5.167  1.3329  3.9692 -0.0214
18603TIP3   OH277299   0.622   3.806   5.520  0.2846 -0.5660 -0.2902
18603TIP3    H177300   0.638   3.866   5.593 -0.2337 -1.5252  0.6442
18603TIP3    H277301   0.542   3.839   5.479  0.3308 -0.2802 -0.1537
18604TIP3   OH277302   5.649   1.513   1.991  0.8047  0.0765  0.1896
18604TIP3    H177303   5.599   1.511   1.909 -2.1648  0.1282  1.8728
18604TIP3    H277304   5.584   1.497   2.059  3.0322  0.7906  2.6268
18605TIP3   OH277305   3.715   6.563  10.859 -0.1225 -0.1056  0.1983
18605TIP3    H177306   3.756   6.478  10.845 -0.6255 -0.3922  0.4451
18605TIP3    H277307   3.768   6.624  10.808  1.0183 -0.3596  1.0266
18606TIP3   OH277308   3.806   1.822   5.628  0.3009 -0.1067 -0.2492
18606TIP3    H177309   3.868   1.816   5.700 -1.0151 -0.6904  0.8851
18606TIP3    H277310   3.811   1.738   5.584  0.6207  0.0046 -0.4268
18607TIP3   OH277311   4.542   4.229  15.955 -0.6155 -0.3242  0.4247
18607TIP3    H177312   4.555   4.231  16.049 -0.6662 -0.1367  0.4262
18607TIP3    H277313   4.485   4.303  15.936  2.5961  2.1869 -0.2590
18608TIP3   OH277314   1.455   1.166   0.796 -0.8534  0.0082  0.0290
18608TIP3    H177315   1.521   1.190   0.860  0.8428  2.5683 -2.4495
18608TIP3    H277316   1.495   1.094   0.746 -0.8545  0.0973 -0.1013
18609TIP3   OH277317   3.418   0.497  14.171  0.2741  0.3402 -0.5235
18609TIP3    H177318   3.380   0.551  14.102  1.5125  1.6633 -0.2264
18609TIP3    H277319   3.396   0.408  14.147 -1.1006  0.9137 -1.5021
18610TIP3   OH277320   4.972   0.491  17.242  0.9126  0.2995 -0.4400
18610TIP3    H177321   4.966   0.537  17.326  0.0002  0.7316 -0.7225
18610TIP3    H277322   4.997   0.559  17.179 -1.2622  0.6542 -1.0092
18611TIP3   OH277323   2.929   2.566  14.826 -0.5818  0.2670  0.5212
18611TIP3    H177324   2.858   2.612  14.782 -0.6101  0.5809  0.8844
18611TIP3    H277325   2.886   2.493  14.871 -0.3663 -0.9510 -1.1510
18612TIP3   OH277326   5.274   2.290  16.992  0.0112  0.1829 -0.5134
18612TIP3    H177327   5.317   2.213  16.957  0.1140  0.3873 -0.8370
18612TIP3    H277328   5.310   2.300  17.080  0.4782  0.2422 -0.7137
18613TIP3   OH277329   0.925   1.959  14.613 -0.1491 -0.0612 -0.1557
18613TIP3    H177330   0.875   2.015  14.554 -0.7122 -1.5399 -1.1577
18613TIP3    H277331   1.011   2.002  14.620 -0.8775  1.4303 -0.0597
18614TIP3   OH277332   4.031   5.327   1.126 -0.6689  0.4546  0.0175
18614TIP3    H177333   4.071   5.363   1.047 -0.3345 -1.1883 -0.5991
18614TIP3    H277334   3.974   5.257   1.095 -1.8381  0.8768  1.1245
18615TIP3   OH277335   3.844   1.382   0.807  0.2661  0.4446  0.2034
18615TIP3    H177336   3.765   1.338   0.838  0.3116 -0.5033 -0.9465
18615TIP3    H277337   3.833   1.387   0.712  1.0603  1.3708  0.1418
18616TIP3   OH277338   2.207   4.112   4.936  0.1732 -0.1542 -0.1701
18616TIP3    H177339   2.234   4.188   4.988 -2.3640 -0.0985  1.2089
18616TIP3    H277340   2.206   4.144   4.846  1.1059  0.8325  0.1546
18617TIP3   OH277341   0.499   3.647  12.129  0.1097  0.0718 -0.1607
18617TIP3    H177342   0.489   3.568  12.182 -4.1045 -0.0463 -0.7921
18617TIP3    H277343   0.571   3.627  12.070  1.2231 -2.0007  1.7547
18618TIP3   OH277344   5.519   0.661  12.407 -0.6231  0.2066  0.0483
18618TIP3    H177345   5.511   0.571  12.376  0.0861 -0.6080  2.0714
18618TIP3    H277346   5.429   0.686  12.432 -0.9202  0.3017 -1.0624
18619TIP3   OH277347   5.488   2.942   0.083 -0.0849  0.1651 -0.6904
18619TIP3    H177348   5.496   2.861   0.031 -0.8840 -1.4987  1.6333
18619TIP3    H277349   5.527   2.919   0.167 -2.3740  1.4643  0.7892
18620TIP3   OH277350   1.553   2.079   4.720  0.4286  0.4749 -0.1137
18620TIP3    H177351   1.621   2.103   4.783 -0.9269  2.2729  0.7880
18620TIP3    H277352   1.472   2.111   4.760 -0.6604  0.4001 -2.1346
18621TIP3   OH277353   5.620   4.631  14.578  0.1084 -0.0816 -0.7052
18621TIP3    H177354   5.568   4.611  14.500 -0.7806  0.9683 -0.3938
18621TIP3    H277355   5.675   4.705  14.552 -1.9387  1.9165  0.3408
18622TIP3   OH277356   2.471   1.844  11.561 -0.1496 -0.5429 -0.4550
18622TIP3    H177357   2.399   1.816  11.617 -0.1844  1.8394  0.8475
18622TIP3    H277358   2.548   1.839  11.618 -0.0494  1.0566 -0.3838
18623TIP3   OH277359   0.918   2.317   3.296  0.2724 -0.2575  0.1405
18623TIP3    H177360   0.861   2.248   3.331  0.4796  0.2958  1.6278
18623TIP3    H277361   1.001   2.306   3.342  0.5206  0.5775 -0.0875
18624TIP3   OH277362   0.538   3.630  15.195  0.2339 -0.3776  0.2999
18624TIP3    H177363   0.475   3.558  15.191 -0.9390  0.5616  1.0902
18624TIP3    H277364   0.605   3.599  15.256 -0.2269 -0.8167  0.5948
18625TIP3   OH277365   2.709   0.422   2.112 -0.7858 -0.1749  0.1468
18625TIP3    H177366   2.631   0.371   2.131 -1.7580  1.1045 -0.2412
18625TIP3    H277367   2.721   0.413   2.017 -0.7332 -0.0163  0.1373
18626TIP3   OH277368   1.888   5.763   3.744 -0.6094 -0.2248  0.0896
18626TIP3    H177369   1.927   5.752   3.831 -0.7515  2.4624  0.5997
18626TIP3    H277370   1.961   5.748   3.683  0.3858  1.1317  0.8753
18627TIP3   OH277371   0.288   4.585  16.646  0.0051 -0.2819 -0.5869
18627TIP3    H177372   0.252   4.497  16.633 -1.3232  0.0727  0.4091
18627TIP3    H277373   0.349   4.576  16.719  0.9042 -0.6154 -1.3617
18628TIP3   OH277374   0.667   0.870  12.229 -0.3002  0.3978 -0.2212
18628TIP3    H177375   0.588   0.870  12.282 -0.7736 -3.2356 -0.6545
18628TIP3    H277376   0.738   0.890  12.290 -1.2467  0.6377  0.8204
18629TIP3   OH277377   5.298   4.029   1.271  0.3773  0.1290  0.0455
18629TIP3    H177378   5.231   4.089   1.304 -1.4337 -0.3702 -2.3709
18629TIP3    H277379   5.371   4.038   1.332 -0.7101  2.9941  1.1231
18630TIP3   OH277380   5.349   0.218   5.633  0.1425 -0.6588 -0.1175
18630TIP3    H177381   5.373   0.291   5.575 -0.2290  0.7534  1.4056
18630TIP3    H277382   5.254   0.214   5.628  0.0282  0.1470  1.1280
18631TIP3   OH277383   6.375   4.765   1.875  0.3661  0.0234 -0.6376
18631TIP3    H177384   6.313   4.713   1.926  0.1763 -0.6697 -1.5448
18631TIP3    H277385   6.419   4.820   1.939  0.1456 -0.8298  0.2666
18632TIP3   OH277386   0.233   1.397  13.817  0.4855  0.4607  0.1750
18632TIP3    H177387   0.164   1.337  13.846 -0.5140  1.5286  0.0753
18632TIP3    H277388   0.227   1.395  13.721  0.3686  0.7985  0.1737
18633TIP3   OH277389   0.897   4.223   0.244  0.4583 -0.0832 -0.0950
18633TIP3    H177390   0.908   4.315   0.267 -1.3196 -0.3121  2.0620
18633TIP3    H277391   0.949   4.211   0.165  2.7895  2.1497  0.9631
18634TIP3   OH277392   0.987   5.131  15.706 -0.0250  0.3583 -0.0610
18634TIP3    H177393   0.909   5.118  15.761  0.0702 -0.8169 -0.1736
18634TIP3    H277394   0.987   5.057  15.645  0.3549  1.1710 -1.0810
18635TIP3   OH277395   0.268   2.896   4.886  0.0284  0.3708  0.6022
18635TIP3    H177396   0.323   2.894   4.964  1.5627  0.6985 -0.4316
18635TIP3    H277397   0.310   2.836   4.825  0.5527  2.3127 -1.0380
18636TIP3   OH277398   0.834   4.558   3.441 -0.0485  0.2970  0.2332
18636TIP3    H177399   0.909   4.618   3.441 -0.7646  1.3579  2.7450
18636TIP3    H277400   0.857   4.490   3.378  2.0226  1.7600 -0.7046
18637TIP3   OH277401   2.905   3.392   5.393  0.3370 -0.0743  0.0387
18637TIP3    H177402   2.832   3.366   5.449  0.0542  0.6567  0.0096
18637TIP3    H277403   2.908   3.487   5.398  0.4041 -0.0026 -1.0715
18638TIP3   OH277404   4.270   2.994   1.460 -0.3231  0.0340 -0.2580
18638TIP3    H177405   4.307   3.021   1.376 -2.1235  1.0538 -0.7743
18638TIP3    H277406   4.229   2.909   1.443  2.0352 -1.3625  0.4417
18639TIP3   OH277407   6.488   3.993  13.695  0.2430 -0.0510 -0.3338
18639TIP3    H177408   6.482   4.072  13.643  0.1135  0.3036  0.2052
18639TIP3    H277409   6.453   4.018  13.781 -3.0547 -1.5723 -1.0833
18640TIP3   OH277410   3.534   5.509   5.941 -0.3864  0.1850 -0.1563
18640TIP3    H177411   3.558   5.574   6.007  2.2886 -0.4288 -0.3974
18640TIP3    H277412   3.611   5.454   5.933 -2.4437 -2.9056 -0.1824
18641TIP3   OH277413   5.811   2.684   4.853  0.2469 -0.3505  0.8633
18641TIP3    H177414   5.880   2.739   4.891  0.4291 -0.0303  0.0885
18641TIP3    H277415   5.853   2.641   4.778  0.3401 -2.1946  1.9199
18642TIP3   OH277416   1.248   0.914  13.154  0.5807 -0.3377  0.1394
18642TIP3    H177417   1.264   0.946  13.243 -3.0596 -0.9953  1.1717
18642TIP3    H277418   1.267   0.820  13.158  0.2937 -0.3899  0.2335
18643TIP3   OH277419   6.812   1.950  12.561  0.1365 -0.4103  0.2123
18643TIP3    H177420   6.883   2.000  12.523  1.4870 -1.9044  0.6213
18643TIP3    H277421   6.787   1.999  12.640  0.7885  0.0772  0.1221
18644TIP3   OH277422   3.380   2.082   3.397  0.0836  0.2492  0.3635
18644TIP3    H177423   3.390   2.111   3.487  1.0734  0.6678  0.1272
18644TIP3    H277424   3.392   1.987   3.400 -0.2308  0.2193  0.7131
18645TIP3   OH277425   5.657   2.026  14.385  0.0812 -0.4971 -0.0085
18645TIP3    H177426   5.608   2.007  14.304  1.9163  1.4525 -1.7060
18645TIP3    H277427   5.642   2.119  14.400  2.2404 -0.1063  0.0616
18646TIP3   OH277428   0.222   4.948   3.852  0.0428 -0.3498 -0.1778
18646TIP3    H177429   0.165   4.885   3.807  1.5024 -0.9609 -1.2374
18646TIP3    H277430   0.240   4.907   3.936 -3.9888  1.4970  1.8818
18647TIP3   OH277431   4.431   6.267  10.725 -0.1240 -0.2877 -0.2805
18647TIP3    H177432   4.433   6.202  10.796  0.7459 -1.5390 -1.4147
18647TIP3    H277433   4.523   6.280  10.702 -0.3447  0.7329 -0.6345
18648TIP3   OH277434   1.441   1.962  15.415 -0.1631  0.5447 -0.2814
18648TIP3    H177435   1.482   1.978  15.500 -0.5190 -0.1718  0.0358
18648TIP3    H277436   1.378   2.033  15.404 -0.9604 -0.0100  0.6064
18649TIP3   OH277437   3.884   4.772   0.191 -0.6430  0.0253  0.3968
18649TIP3    H177438   3.948   4.703   0.169 -1.5195 -0.7120  0.0886
18649TIP3    H277439   3.881   4.827   0.112 -2.0676 -1.2806 -0.5208
18650TIP3   OH277440   4.608   3.071   4.552 -0.1719 -0.3563  0.0263
18650TIP3    H177441   4.681   3.016   4.525 -1.2723 -1.3125 -1.1557
18650TIP3    H277442   4.611   3.147   4.493 -0.9712 -1.1155 -1.0239
18651TIP3   OH277443   5.186   1.017   0.931 -0.2117 -0.4961  0.2640
18651TIP3    H177444   5.149   0.942   0.885 -0.1555 -1.8728  2.3497
18651TIP3    H277445   5.119   1.042   0.994  0.3277  0.3365  0.5220
18652TIP3   OH277446   1.476   0.900   5.767  0.1473 -0.5442 -0.6156
18652TIP3    H177447   1.481   0.971   5.830 -1.4731  0.3324 -1.3946
18652TIP3    H277448   1.401   0.848   5.796  0.8851 -1.5306 -0.4570
18653TIP3   OH277449   2.848   5.282  15.485  0.5831  0.3638 -0.3309
18653TIP3    H177450   2.812   5.309  15.400 -0.7070 -0.5252 -0.0929
18653TIP3    H277451   2.788   5.214  15.516  2.7799 -1.6156 -0.1603
18654TIP3   OH277452   6.272   2.333   6.178  0.1810 -0.2620 -0.0828
18654TIP3    H177453   6.280   2.263   6.113 -0.2154 -0.2290 -0.1691
18654TIP3    H277454   6.179   2.355   6.179  0.4550  0.9899 -0.8123
18655TIP3   OH277455   5.442   5.658  13.057  0.5458  0.1937 -0.0988
18655TIP3    H177456   5.532   5.630  13.076  1.0585  1.9025  0.0756
18655TIP3    H277457   5.451   5.744  13.018 -0.8522 -0.8252 -2.9670
18656TIP3   OH277458   6.191   2.249  12.933 -0.1403 -0.1037  0.0883
18656TIP3    H177459   6.225   2.211  12.852  1.4441 -0.3468  0.8177
18656TIP3    H277460   6.126   2.186  12.964  2.0064 -2.0604  0.9679
18657TIP3   OH277461   3.593   0.250   2.689  0.1881 -0.1063 -0.4279
18657TIP3    H177462   3.583   0.178   2.750 -0.4626  0.3099 -0.0248
18657TIP3    H277463   3.649   0.313   2.734  0.7602 -0.3597 -0.7806
18658TIP3   OH277464   5.454   0.052  10.815 -0.0709  0.2313  0.0179
18658TIP3    H177465   5.547   0.071  10.820  0.3628 -1.9756  1.9031
18658TIP3    H277466   5.444   0.003  10.733 -0.0036  2.1709 -1.2186
18659TIP3   OH277467   4.121   4.691  13.305  0.0529  0.1578 -0.0304
18659TIP3    H177468   4.107   4.679  13.399 -0.1659  0.7356  0.0102
18659TIP3    H277469   4.199   4.639  13.286  0.7245  0.9006  0.6695
18660TIP3   OH277470   4.213   0.048   0.675 -0.5783 -0.1546  0.0009
18660TIP3    H177471   4.210   0.099   0.756  1.7456 -2.5117  1.7312
18660TIP3    H277472   4.289   0.081   0.628 -0.1741 -0.7342  0.2330
18661TIP3   OH277473   1.587   6.247  13.640  0.4234 -0.7302  0.0015
18661TIP3    H177474   1.608   6.312  13.707  0.9608 -0.8421 -0.0544
18661TIP3    H277475   1.656   6.258  13.574  1.6102 -2.5963  0.8543
18662TIP3   OH277476   6.197   2.583   2.089 -0.2187  0.4387 -0.2108
18662TIP3    H177477   6.178   2.530   2.166 -0.2917  0.8265  0.0416
18662TIP3    H277478   6.121   2.573   2.032  0.2464 -0.6176 -0.6725
18663TIP3   OH277479   2.808   4.248  11.917  0.8654  0.3793  0.0160
18663TIP3    H177480   2.887   4.262  11.865  0.3804 -0.1127 -0.8863
18663TIP3    H277481   2.835   4.263  12.007  1.9926  0.1883 -0.2788
18664TIP3   OH277482   6.369   2.020   3.514 -0.8549 -0.0237 -0.0103
18664TIP3    H177483   6.349   1.934   3.549 -0.2986 -0.1630 -0.0206
18664TIP3    H277484   6.456   2.010   3.474 -1.2789  0.2462 -1.0167
18665TIP3   OH277485   2.708   5.053  16.498  0.6438  0.7589  0.2048
18665TIP3    H177486   2.691   4.968  16.458  2.3256  1.4802 -2.2379
18665TIP3    H277487   2.646   5.112  16.455  0.8447  1.1208  0.4069
18666TIP3   OH277488   4.631   1.014  15.112 -0.1695  0.1565  0.8333
18666TIP3    H177489   4.637   0.991  15.205 -1.0192  0.3194  0.9413
18666TIP3    H277490   4.705   1.073  15.098  1.9664 -2.3835  0.5819
18667TIP3   OH277491   1.405   6.094   3.122 -0.2093 -0.0261 -0.5417
18667TIP3    H177492   1.452   6.012   3.135 -1.3133 -0.7152 -0.7649
18667TIP3    H277493   1.429   6.122   3.034 -1.1733 -1.0280 -1.1431
18668TIP3   OH277494   0.111   1.406   1.274  0.0130  0.3887  0.1436
18668TIP3    H177495   0.034   1.418   1.329  0.1009 -1.1469  0.6458
18668TIP3    H277496   0.185   1.423   1.332  0.1004 -0.9892  0.4605
18669TIP3   OH277497   5.012   1.105  15.979  0.0863  0.0092 -0.4432
18669TIP3    H177498   5.000   1.094  15.885  1.9167 -2.8304 -0.4803
18669TIP3    H277499   5.002   1.016  16.015  1.6214  0.6239  1.7236
18670TIP3   OH277500   6.575   1.109  13.856 -0.7352 -0.1036 -0.3996
18670TIP3    H177501   6.646   1.169  13.877 -0.1067 -0.6213 -0.9804
18670TIP3    H277502   6.539   1.084  13.941  0.8005 -1.0350  0.0211
18671TIP3   OH277503   2.879   4.616  14.388  0.0201  0.4670  0.2411
18671TIP3    H177504   2.829   4.694  14.411  2.1470  0.7773  4.7380
18671TIP3    H277505   2.970   4.646  14.381  0.9866 -1.5361  2.6201
18672TIP3   OH277506   4.642   3.024  15.773  0.5447 -0.0676  0.4214
18672TIP3    H177507   4.604   2.949  15.819  0.6189 -0.2269  0.2219
18672TIP3    H277508   4.734   3.002  15.762  0.5202 -0.0432  0.1640
18673TIP3   OH277509   3.423   3.564  13.015  0.0111 -0.0813  0.1160
18673TIP3    H177510   3.366   3.626  12.969  0.7567  1.6669  1.4335
18673TIP3    H277511   3.408   3.481  12.970 -4.8604 -0.1997  1.4013
18674TIP3   OH277512   0.386   6.067  15.048 -0.6651 -0.3541  0.2943
18674TIP3    H177513   0.305   6.111  15.022 -1.7657 -2.9872 -1.0245
18674TIP3    H277514   0.447   6.084  14.976 -0.5690  0.2274  0.5047
18675TIP3   OH277515   3.186   6.760  11.205 -0.1962  0.0838 -0.5895
18675TIP3    H177516   3.101   6.732  11.238  0.4377 -1.2546 -0.0176
18675TIP3    H277517   3.246   6.689  11.229  0.8201  0.3319 -2.1968
18676TIP3   OH277518   4.829   5.200  16.241 -0.4038 -0.0097 -0.1724
18676TIP3    H177519   4.889   5.146  16.189  0.0928  0.6024 -0.2460
18676TIP3    H277520   4.744   5.188  16.198 -0.4388 -1.2357  0.2023
18677TIP3   OH277521   6.193   5.384  14.091  0.2031  0.1035 -0.2129
18677TIP3    H177522   6.118   5.376  14.032 -0.3610 -1.4101  0.6759
18677TIP3    H277523   6.242   5.460  14.057 -2.4470  2.0578  0.0278
18678TIP3   OH277524   5.550   1.325   4.302 -0.1715 -0.2314  0.5014
18678TIP3    H177525   5.511   1.248   4.343 -1.3170 -0.4621 -0.9618
18678TIP3    H277526   5.501   1.337   4.220  2.9001 -0.6647 -1.5801
18679TIP3   OH277527   2.606   5.315   4.200  0.4914 -0.4174 -0.3125
18679TIP3    H177528   2.557   5.316   4.118  0.2885  0.7467 -0.1995
18679TIP3    H277529   2.696   5.293   4.175  0.6518  0.9301 -0.9963
18680TIP3   OH277530   5.845   0.536  17.261  0.4483 -0.0188 -0.0041
18680TIP3    H177531   5.863   0.524  17.168  2.9827  1.9965  0.1230
18680TIP3    H277532   5.794   0.617  17.264  1.0941  0.3777  0.3930
18681TIP3   OH277533   5.994   5.838  11.727 -0.2161  0.6477 -0.1085
18681TIP3    H177534   5.967   5.876  11.644  1.4888  3.8833  0.6306
18681TIP3    H277535   5.914   5.835  11.780 -1.3326 -1.5484 -1.7701
18682TIP3   OH277536   4.134   0.103  15.779 -0.1386  0.0853 -0.1648
18682TIP3    H177537   4.151   0.010  15.769  2.0202  0.5159 -0.8865
18682TIP3    H277538   4.043   0.114  15.749 -1.0190 -1.9780  1.5042
18683TIP3   OH277539   0.062   1.126  16.380 -1.0473  0.1322 -0.9131
18683TIP3    H177540   0.071   1.063  16.451 -1.1406 -0.6297 -1.5700
18683TIP3    H277541   0.003   1.193  16.414 -1.5146 -0.5058 -0.4651
18684TIP3   OH277542   1.247   5.359   2.350  0.6004  0.2824  0.6645
18684TIP3    H177543   1.160   5.345   2.312  1.1108  0.3072 -0.5559
18684TIP3    H277544   1.257   5.454   2.353  1.0824  0.2847 -0.4298
18685TIP3   OH277545   6.027   1.171  13.665 -0.4726 -0.4197  0.2280
18685TIP3    H177546   5.940   1.151  13.629 -0.9183  0.5326  0.7477
18685TIP3    H277547   6.011   1.237  13.732  0.7564  0.3820 -0.2300
18686TIP3   OH277548   3.841   2.729   2.695  0.3214  0.3865 -0.2784
18686TIP3    H177549   3.915   2.675   2.667  0.2572  0.0426  0.1877
18686TIP3    H277550   3.819   2.695   2.782 -1.2446 -0.4365 -0.9457
18687TIP3   OH277551   6.573   6.635  15.283  0.0134  0.4336 -0.0168
18687TIP3    H177552   6.513   6.581  15.232 -0.7338  0.3570  0.9049
18687TIP3    H277553   6.637   6.573  15.319 -0.2672  0.2892  0.2413
18688TIP3   OH277554   1.220   4.199   5.230  0.0139  0.3075  0.5110
18688TIP3    H177555   1.167   4.178   5.153 -0.0687 -1.0145  0.9059
18688TIP3    H277556   1.157   4.235   5.293 -0.6971 -2.1282  1.3339
18689TIP3   OH277557   4.115   0.683  11.912 -0.3939 -1.0377 -0.1593
18689TIP3    H177558   4.174   0.757  11.922 -2.1426  0.4883 -0.4864
18689TIP3    H277559   4.090   0.660  12.002  0.4415 -1.5029 -0.0389
18690TIP3   OH277560   2.945   6.340  12.837 -0.0849  0.5645  0.0172
18690TIP3    H177561   2.854   6.356  12.811 -0.1841 -1.1716 -0.8940
18690TIP3    H277562   2.938   6.282  12.913  0.2535  0.5373  0.0283
18691TIP3   OH277563   0.372   3.084  14.734 -0.6673  0.1606  0.5922
18691TIP3    H177564   0.342   3.083  14.825 -0.3797  1.3101  0.7186
18691TIP3    H277565   0.438   3.015  14.730 -0.3744  0.3762  1.3782
18692TIP3   OH277566   0.396   0.600  11.969 -0.2193  0.1354  0.3657
18692TIP3    H177567   0.457   0.530  11.988  0.4550  0.1542 -1.5436
18692TIP3    H277568   0.346   0.569  11.894 -0.5438  1.3130  0.0737
18693TIP3   OH277569   3.548   6.543  13.137 -0.6342 -0.2687  0.4936
18693TIP3    H177570   3.550   6.606  13.065  2.0427 -0.1816  0.5257
18693TIP3    H277571   3.600   6.584  13.207 -0.3176 -1.7371  1.1787
18694TIP3   OH277572   4.577   2.138   5.205 -0.2010  0.3556  0.6160
18694TIP3    H177573   4.611   2.225   5.225  0.2045  0.1602  0.7974
18694TIP3    H277574   4.626   2.080   5.263 -0.0761 -0.0578  0.1029
18695TIP3   OH277575   3.067   2.323  11.842  0.4087  0.3217  0.8471
18695TIP3    H177576   3.152   2.354  11.812  1.2813 -1.0782  1.7511
18695TIP3    H277577   3.013   2.403  11.848  1.8030  1.3048  0.7814
18696TIP3   OH277578   0.573   2.646   0.572  0.2291 -0.1923  0.2890
18696TIP3    H177579   0.612   2.590   0.639  0.7185  0.8259  0.8724
18696TIP3    H277580   0.608   2.613   0.490  1.1154 -0.2691  0.6896
18697TIP3   OH277581   1.442   5.483  15.760 -0.1357  0.3136 -0.2452
18697TIP3    H177582   1.360   5.510  15.719 -1.0877 -2.9772 -0.8056
18697TIP3    H277583   1.423   5.397  15.796  2.6914  0.0966  0.9413
18698TIP3   OH277584   2.562   5.273  13.109  0.3817  0.1372 -0.8687
18698TIP3    H177585   2.534   5.356  13.070  0.0919 -0.5355 -2.1412
18698TIP3    H277586   2.594   5.221  13.035  2.4830 -0.1581  0.1556
18699TIP3   OH277587   4.184   1.453  13.178 -0.0114 -0.5393 -0.4736
18699TIP3    H177588   4.219   1.400  13.250 -0.8632  0.3548  0.6169
18699TIP3    H277589   4.193   1.396  13.101 -0.7777 -2.2233  0.6283
18700TIP3   OH277590   0.709   1.497   0.055  0.4418 -0.0208 -0.5730
18700TIP3    H177591   0.618   1.511   0.030  0.1172 -0.8969  0.0648
18700TIP3    H277592   0.705   1.467   0.146  1.5546  2.3446  0.3233
18701TIP3   OH277593   3.577   5.977  11.570  0.3583  0.2700  0.0654
18701TIP3    H177594   3.553   5.918  11.498 -0.2614  1.2570 -0.5542
18701TIP3    H277595   3.546   6.063  11.542  2.9029  1.2680  0.1175
18702TIP3   OH277596   3.416   5.781  16.150  0.2050 -0.1292  0.5395
18702TIP3    H177597   3.333   5.753  16.111  0.8743 -0.4213 -0.7299
18702TIP3    H277598   3.483   5.736  16.099  1.1294 -0.9762  2.4008
18703TIP3   OH277599   6.099   1.261  12.473 -0.3828  0.1002  0.4511
18703TIP3    H177600   6.125   1.216  12.392  0.5554  2.5084 -0.6902
18703TIP3    H277601   6.181   1.295  12.509 -1.0411  0.8138  1.3181
18704TIP3   OH277602   2.513   4.652   0.849 -0.1061  0.1101  0.3120
18704TIP3    H177603   2.463   4.710   0.791  1.5579  0.3164 -1.0089
18704TIP3    H277604   2.574   4.608   0.790  1.9387  0.6191  1.9648
18705TIP3   OH277605   4.919   3.360   2.936  0.6091 -0.2559  0.2923
18705TIP3    H177606   4.968   3.279   2.920  2.8359  1.0148  0.1409
18705TIP3    H277607   4.972   3.428   2.894  1.5295  1.9242  4.3841
18706TIP3   OH277608   1.128   2.835  13.093 -0.1539  0.2230 -0.4623
18706TIP3    H177609   1.090   2.923  13.091 -1.5083 -0.3488 -1.4244
18706TIP3    H277610   1.186   2.832  13.017  0.8899  0.6767  0.2907
18707TIP3   OH277611   4.710   4.243   3.052  0.5490  0.3025  0.4863
18707TIP3    H177612   4.686   4.322   3.100  1.3533  0.3208  0.8842
18707TIP3    H277613   4.798   4.221   3.084  0.3429 -0.7488  0.3905
18708TIP3   OH277614   3.660   2.109  17.068  0.3806 -0.0302 -0.6938
18708TIP3    H177615   3.691   2.074  16.984  1.5501  1.0502 -0.7462
18708TIP3    H277616   3.631   2.032  17.117  0.5305 -0.7781 -1.7460
18709TIP3   OH277617   0.204   1.486  16.833  0.4481  0.3077 -0.4943
18709TIP3    H177618   0.205   1.492  16.738  0.7264 -0.5282 -0.5545
18709TIP3    H277619   0.251   1.405  16.853 -1.2938 -0.5814  0.2599
18710TIP3   OH277620   3.225   6.068   1.786 -0.1064  0.5460 -0.4388
18710TIP3    H177621   3.147   6.105   1.827  0.6788 -0.5874  2.2909
18710TIP3    H277622   3.191   6.013   1.716 -1.6711  1.0499 -0.1241
18711TIP3   OH277623   5.340   0.554   1.133 -0.3253 -0.0044 -0.2051
18711TIP3    H177624   5.356   0.460   1.137  1.3245  0.2563  0.0978
18711TIP3    H277625   5.427   0.593   1.140 -0.9675  1.5419 -0.5319
18712TIP3   OH277626   3.065   2.464   4.166  0.0108 -0.3195  0.1140
18712TIP3    H177627   3.121   2.422   4.230  0.2771  0.6038  0.4920
18712TIP3    H277628   3.035   2.545   4.208  0.9841  0.8071 -1.2638
18713TIP3   OH277629   6.054   0.750   1.506  0.1113  0.0336 -0.0526
18713TIP3    H177630   5.963   0.777   1.493  0.1077 -0.2803 -0.7052
18713TIP3    H277631   6.098   0.774   1.424  0.3575 -0.8905 -0.1927
18714TIP3   OH277632   2.817   2.452   6.514 -0.1182  0.3986  0.5983
18714TIP3    H177633   2.843   2.496   6.595  1.1708 -0.9407  0.9635
18714TIP3    H277634   2.894   2.402   6.488 -1.0006 -0.3820 -0.6314
18715TIP3   OH277635   6.520   1.257   3.711 -0.0079 -0.0796  0.0798
18715TIP3    H177636   6.541   1.251   3.617 -0.4465 -0.3875 -0.0010
18715TIP3    H277637   6.573   1.188   3.752 -0.3658 -0.4313 -0.0408
18716TIP3   OH277638   5.167   4.134  15.874  0.1361  0.6496 -0.0737
18716TIP3    H177639   5.159   4.176  15.960  0.9274 -1.6966  1.2281
18716TIP3    H277640   5.249   4.167  15.839  0.1300  1.1252  0.3497
18717TIP3   OH277641   2.540   5.690   5.875  0.9985  0.7194  0.3217
18717TIP3    H177642   2.557   5.734   5.792  2.8807  1.0516  0.8446
18717TIP3    H277643   2.555   5.757   5.942 -1.4434  0.7383  0.9508
18718TIP3   OH277644   5.598   2.792  11.056  0.6169  0.3949  0.2069
18718TIP3    H177645   5.680   2.824  11.018  0.7004  1.9461  1.6071
18718TIP3    H277646   5.529   2.836  11.006  0.5291 -1.6372 -1.6184
18719TIP3   OH277647   3.810   4.206   3.124 -0.2939  0.0983 -0.1806
18719TIP3    H177648   3.859   4.186   3.045 -0.7007  0.7952 -0.6140
18719TIP3    H277649   3.851   4.152   3.192  1.4872  1.1275 -0.3771
18720TIP3   OH277650   1.419   5.795   4.046  0.0452 -0.4378  0.3728
18720TIP3    H177651   1.433   5.890   4.042 -0.1320 -0.4070  0.4695
18720TIP3    H277652   1.503   5.759   4.073  1.1588 -0.5918 -2.8904
18721TIP3   OH277653   2.406   0.019   5.994 -0.1643 -0.4718 -0.8547
18721TIP3    H177654   2.480   0.008   6.054 -1.0995 -0.0995  0.4148
18721TIP3    H277655   2.417   0.108   5.960  0.4830 -0.7558 -1.3957
18722TIP3   OH277656   3.046   0.638  11.449 -0.0558  0.5236 -0.1102
18722TIP3    H177657   3.081   0.694  11.518 -2.5058  1.3087  0.6251
18722TIP3    H277658   3.072   0.550  11.474 -0.2340  0.8704  1.4150
18723TIP3   OH277659   3.374   6.083  16.957 -0.1378 -0.3860  0.5815
18723TIP3    H177660   3.436   6.015  16.984  0.2458  0.4321  1.8634
18723TIP3    H277661   3.429   6.160  16.940 -0.2038 -1.0614 -3.7076
18724TIP3   OH277662   6.583   2.357   2.304 -0.8040 -0.0223  0.2048
18724TIP3    H177663   6.592   2.398   2.391  1.1630 -1.4107  0.7190
18724TIP3    H277664   6.649   2.401   2.250 -0.4779 -0.7005  0.0467
18725TIP3   OH277665   0.172   0.217   2.780 -0.9473  0.3734 -0.5400
18725TIP3    H177666   0.237   0.287   2.773 -0.5830 -0.0092 -1.1187
18725TIP3    H277667   0.192   0.159   2.706 -2.1856  0.4451 -0.9456
18726TIP3   OH277668   2.607   3.612  13.848 -0.3222 -0.4101  0.2091
18726TIP3    H177669   2.524   3.565  13.857 -0.8719 -0.0062 -2.1620
18726TIP3    H277670   2.671   3.545  13.824 -0.4073 -0.3993 -0.0403
18727TIP3   OH277671   1.677   5.424   2.591 -0.1616  0.3496 -0.1347
18727TIP3    H177672   1.753   5.428   2.649 -0.3203  0.5488  0.0617
18727TIP3    H277673   1.604   5.453   2.645 -0.6624 -1.3348  0.1475
18728TIP3   OH277674   4.568   5.149  12.717 -0.2485 -0.3370 -0.3086
18728TIP3    H177675   4.633   5.219  12.712  1.3559 -1.7102  0.3611
18728TIP3    H277676   4.605   5.079  12.663 -0.8490 -1.3829  0.6082
18729TIP3   OH277677   2.373   2.769  15.378  0.1429 -0.1270  0.0745
18729TIP3    H177678   2.314   2.802  15.311 -0.4461 -0.7181  0.2969
18729TIP3    H277679   2.458   2.806  15.355 -0.3392  0.8785 -0.1380
18730TIP3   OH277680   3.147   3.708  16.588  0.5714  0.0749  0.7453
18730TIP3    H177681   3.084   3.637  16.579  0.6586  0.2194 -1.5009
18730TIP3    H277682   3.096   3.787  16.570  0.7569  0.5005  1.9664
18731TIP3   OH277683   3.969   1.141   2.705 -0.3436 -0.2285  0.1660
18731TIP3    H177684   3.903   1.210   2.715 -1.3352 -1.3124  1.5280
18731TIP3    H277685   4.053   1.186   2.720 -0.8871  0.8465  0.0857
18732TIP3   OH277686   3.282   4.641   2.414  0.0163  0.5175 -0.0677
18732TIP3    H177687   3.277   4.657   2.508 -0.3145 -3.0017  0.6364
18732TIP3    H277688   3.191   4.640   2.385 -0.2201 -2.6240  0.5156
18733TIP3   OH277689   6.211   5.813   3.149  0.5014 -0.0717 -0.4407
18733TIP3    H177690   6.235   5.730   3.191 -1.3608 -1.0159 -1.1105
18733TIP3    H277691   6.255   5.880   3.200  1.6301 -1.4393  0.4542
18734TIP3   OH277692   1.211   3.498  13.865  0.1458 -0.4507 -0.2498
18734TIP3    H177693   1.158   3.467  13.939 -0.2372 -0.5981 -0.5816
18734TIP3    H277694   1.249   3.419  13.828 -1.1872 -0.6067 -1.3686
18735TIP3   OH277695   0.706   2.375   6.213 -0.3780 -0.5578  0.0716
18735TIP3    H177696   0.619   2.356   6.248  0.2953 -2.5867  0.7893
18735TIP3    H277697   0.750   2.425   6.282 -0.6560 -0.3289  0.0852
18736TIP3   OH277698   2.362   2.094  12.641 -0.7737  0.0988  0.1663
18736TIP3    H177699   2.341   2.116  12.551 -0.0511  0.0436 -0.0220
18736TIP3    H277700   2.360   2.178  12.688 -1.7471  0.0471  0.2322
18737TIP3   OH277701   2.584   0.596   4.534  0.3150 -0.2005  0.0600
18737TIP3    H177702   2.621   0.677   4.568  0.2597 -0.0354 -0.2682
18737TIP3    H277703   2.658   0.536   4.528  0.6671  0.3200 -1.1754
18738TIP3   OH277704   5.842   2.394   5.777  0.0817  0.4715 -0.1600
18738TIP3    H177705   5.815   2.408   5.868  0.4967  1.2911 -0.1521
18738TIP3    H277706   5.902   2.319   5.781 -0.1089  0.3365  0.2036
18739TIP3   OH277707   1.002   3.675   4.349 -0.5170 -0.4483 -0.4024
18739TIP3    H177708   1.057   3.753   4.358 -0.4702 -0.4564 -0.6032
18739TIP3    H277709   1.009   3.652   4.256 -0.8430 -0.4602 -0.4250
18740TIP3   OH277710   3.608   0.399  10.309 -0.0177  0.0061 -0.8775
18740TIP3    H177711   3.561   0.334  10.361  0.8780  0.3213  0.3739
18740TIP3    H277712   3.698   0.365  10.303  0.4977  1.1313 -0.1008
18741TIP3   OH277713   1.682   6.721  15.700  0.1432 -0.5160 -0.1138
18741TIP3    H177714   1.628   6.698  15.624 -1.7784 -1.9368  1.5829
18741TIP3    H277715   1.714   6.809  15.680 -1.1061 -0.4429 -2.1174
18742TIP3   OH277716   5.609   4.175   5.478  0.3977 -0.1267 -0.5585
18742TIP3    H177717   5.582   4.118   5.550  1.1924 -0.5143 -0.5526
18742TIP3    H277718   5.566   4.258   5.496  1.8061  0.2637  1.2552
18743TIP3   OH277719   4.010   0.371   3.185 -0.1554 -0.3845 -0.0460
18743TIP3    H177720   3.979   0.447   3.234  0.1378 -0.4508  0.2416
18743TIP3    H277721   3.991   0.393   3.093 -2.6223 -1.1207  0.2016
18744TIP3   OH277722   2.884   0.890   0.719  0.0747 -0.1514  0.2714
18744TIP3    H177723   2.797   0.867   0.686 -0.8450  1.0825  1.7167
18744TIP3    H277724   2.878   0.877   0.814  1.8639 -1.2144  0.2941
18745TIP3   OH277725   6.773   2.365  10.491  0.0800  0.1401 -0.6322
18745TIP3    H177726   6.792   2.388  10.582 -0.3189  0.9026 -0.7332
18745TIP3    H277727   6.758   2.271  10.493 -1.5682  0.3883  0.3886
18746TIP3   OH277728   2.720   1.090  17.236  0.4879 -0.1226 -0.0495
18746TIP3    H177729   2.650   1.048  17.186  0.1440 -0.2641  0.5378
18746TIP3    H277730   2.793   1.027  17.232  1.0477  0.5717 -1.7205
18747TIP3   OH277731   4.944   5.999   2.187  0.3936  0.1248 -0.1892
18747TIP3    H177732   4.884   5.935   2.149 -2.9766  2.6415  0.3537
18747TIP3    H277733   4.937   5.985   2.282 -0.2679  1.1380 -0.0724
18748TIP3   OH277734   5.862   4.209  13.415  0.5741  0.0745 -0.7534
18748TIP3    H177735   5.903   4.236  13.333 -0.9329  0.9057 -1.2753
18748TIP3    H277736   5.858   4.113  13.410  0.3217  0.1297 -1.7441
18749TIP3   OH277737   5.933   4.258   0.288  0.6792  0.0077 -0.2971
18749TIP3    H177738   5.864   4.308   0.244  0.8609  0.0124 -0.5798
18749TIP3    H277739   5.995   4.236   0.218  0.0060 -1.6576 -0.4265
18750TIP3   OH277740   6.627   2.285   0.810 -0.0288  0.2763  0.3799
18750TIP3    H177741   6.597   2.266   0.721 -1.1144 -2.5393  1.2468
18750TIP3    H277742   6.565   2.239   0.866  2.3483 -0.5660  2.4894
18751TIP3   OH277743   0.251   4.552  11.285 -0.0490 -0.0131  0.2026
18751TIP3    H177744   0.164   4.592  11.284 -1.7027 -3.2078  2.0897
18751TIP3    H277745   0.258   4.506  11.202 -1.9427 -2.9302  1.5162
18752TIP3   OH277746   1.624   2.284   0.241 -0.1949 -0.2976 -0.6331
18752TIP3    H177747   1.719   2.288   0.233 -0.0734  0.3601  0.8781
18752TIP3    H277748   1.607   2.195   0.273 -0.2262 -0.8668 -2.1268
18753TIP3   OH277749   0.802   5.961  10.744 -0.5829  0.0266 -0.1526
18753TIP3    H177750   0.711   5.931  10.744 -0.6869  0.3394 -0.1903
18753TIP3    H277751   0.801   6.040  10.797 -0.0614 -0.7541  1.0623
18754TIP3   OH277752   0.476   2.192  15.929 -0.2658 -0.0133  0.5172
18754TIP3    H177753   0.561   2.170  15.967  0.6905 -0.1342 -1.5943
18754TIP3    H277754   0.426   2.111  15.935 -0.1702 -0.0090  1.5568
18755TIP3   OH277755   4.110   5.441  15.609  0.0485 -0.0858  0.0694
18755TIP3    H177756   4.111   5.525  15.563  0.3487  0.1635  0.5157
18755TIP3    H277757   4.155   5.459  15.692  1.1546 -0.9684 -0.3179
18756TIP3   OH277758   0.931   1.963   3.371  0.1732 -0.0207 -0.2263
18756TIP3    H177759   1.011   2.014   3.359 -1.8520  3.8980  1.2244
18756TIP3    H277760   0.923   1.951   3.465 -0.7193 -0.7835 -0.3750
18757TIP3   OH277761   1.405   1.945   5.850 -0.3283  0.7439 -0.0727
18757TIP3    H177762   1.479   2.005   5.848  0.1499  0.1519 -0.4534
18757TIP3    H277763   1.379   1.942   5.942  1.1561 -0.2687  0.3484
18758TIP3   OH277764   3.057   3.967  12.954  0.2626 -0.0436  0.5722
18758TIP3    H177765   3.010   4.008  13.026  1.2605 -1.6697  2.2430
18758TIP3    H277766   2.991   3.914  12.909 -0.3249  0.8138  0.4141
18759TIP3   OH277767   3.947   0.457   1.318  0.1752 -0.7087 -0.1815
18759TIP3    H177768   3.877   0.411   1.364 -1.1215  0.1952 -1.1843
18759TIP3    H277769   3.931   0.549   1.335  1.2536 -0.4895 -0.2752
18760TIP3   OH277770   1.663   2.034  12.751 -0.1866 -0.4156 -0.5367
18760TIP3    H177771   1.600   1.982  12.800  1.0985 -1.1956  0.3481
18760TIP3    H277772   1.747   1.993  12.769  0.5598  0.4380 -1.8933
18761TIP3   OH277773   0.948   5.279   5.738 -0.2767 -0.6049  0.7349
18761TIP3    H177774   0.992   5.328   5.668 -0.7970  0.3649  1.0671
18761TIP3    H277775   0.858   5.268   5.707 -0.1901 -1.2896  0.7044
18762TIP3   OH277776   0.613   1.026  13.657 -0.6600 -0.1901  0.0754
18762TIP3    H177777   0.686   1.030  13.717  0.6626 -1.7153 -1.3494
18762TIP3    H277778   0.649   1.053  13.572 -1.6169 -1.3314 -0.7432
18763TIP3   OH277779   1.451   0.561  13.139 -0.0742 -0.3499 -0.0248
18763TIP3    H177780   1.500   0.559  13.057  0.2093 -1.3801  0.1460
18763TIP3    H277781   1.360   0.576  13.113  0.0698 -0.2967 -0.4984
18764TIP3   OH277782   3.267   6.337   3.648 -0.8847 -0.1163 -0.0687
18764TIP3    H177783   3.226   6.405   3.701 -1.3906  0.0008 -0.5890
18764TIP3    H277784   3.268   6.374   3.559 -1.2067 -0.8020 -0.3655
18765TIP3   OH277785   4.098   0.504  12.417 -0.2669 -0.0524  0.5018
18765TIP3    H177786   4.153   0.583  12.423 -0.4239  0.1241 -0.2414
18765TIP3    H277787   4.026   0.530  12.360 -0.6349 -0.5630  0.7294
18766TIP3   OH277788   0.072   1.327   0.097  0.7177 -0.3570  0.4552
18766TIP3    H177789   0.054   1.296   0.008  0.9579  0.8535 -0.0378
18766TIP3    H277790   0.031   1.262   0.154  0.7228 -1.2510 -0.5354
18767TIP3   OH277791   6.174   5.702   0.794 -0.7001  0.4228 -0.4493
18767TIP3    H177792   6.204   5.788   0.764  1.0038 -0.3100 -0.9875
18767TIP3    H277793   6.105   5.678   0.731 -0.8243  1.1663 -0.6049
18768TIP3   OH277794   3.635   6.272   5.285 -0.4091  0.6513 -0.5017
18768TIP3    H177795   3.656   6.340   5.350 -1.7763  0.8696 -0.2690
18768TIP3    H277796   3.618   6.320   5.204 -1.4552  0.6091 -0.3178
18769TIP3   OH277797   2.479   6.265   6.242  0.4549  0.0905 -0.5024
18769TIP3    H177798   2.529   6.190   6.273 -0.3716 -0.2488  0.0497
18769TIP3    H277799   2.395   6.228   6.214 -0.3228  0.9043  0.6639
18770TIP3   OH277800   0.770   6.291   1.108  0.4755  0.0165  0.0803
18770TIP3    H177801   0.858   6.327   1.091  0.6205 -0.2751  0.2027
18770TIP3    H277802   0.752   6.236   1.032 -0.1991  1.1771 -0.6316
18771TIP3   OH277803   2.191   4.294   2.293 -0.1519  0.1591 -0.3768
18771TIP3    H177804   2.241   4.268   2.370 -1.1892  0.9498  0.6103
18771TIP3    H277805   2.241   4.366   2.255  0.0650  0.1665 -0.0811
18772TIP3   OH277806   0.181   1.163   5.322  0.1846 -0.0152 -0.4980
18772TIP3    H177807   0.133   1.195   5.398  0.2219  0.9686 -0.8765
18772TIP3    H277808   0.190   1.069   5.337 -1.4398 -0.1526 -0.1797
18773TIP3   OH277809   3.873   0.520   2.374  0.1734  0.0190 -0.1146
18773TIP3    H177810   3.784   0.498   2.402  0.3657  1.7930  2.1844
18773TIP3    H277811   3.927   0.449   2.407 -0.3161 -1.0213 -1.4438
18774TIP3   OH277812   6.060   1.396   0.422  0.3109 -0.0775  0.0922
18774TIP3    H177813   6.062   1.491   0.428  0.5531 -0.0311 -0.6582
18774TIP3    H277814   5.967   1.373   0.427  0.1046  0.3330 -1.5784
18775TIP3   OH277815   5.153   4.348  14.632  0.5103 -0.5027 -0.1920
18775TIP3    H177816   5.063   4.324  14.610  0.7189 -0.1527 -1.5378
18775TIP3    H277817   5.179   4.409  14.563  2.1028 -1.3566 -0.4057
18776TIP3   OH277818   2.950   6.224   3.734  0.5146  0.7989 -0.0750
18776TIP3    H177819   3.003   6.202   3.658 -1.1123  0.9340 -1.3039
18776TIP3    H277820   3.013   6.235   3.805  2.2363  2.1473 -1.7122
18777TIP3   OH277821   0.916   4.751   4.116 -0.6414  0.6238  0.0111
18777TIP3    H177822   0.865   4.798   4.182  0.8466 -0.7997  2.3270
18777TIP3    H277823   0.995   4.804   4.105 -0.7412  0.6902 -0.3816
18778TIP3   OH277824   5.158   4.029  13.722 -0.2047 -0.1383 -0.0581
18778TIP3    H177825   5.106   4.066  13.650 -0.9932 -0.5804  0.2661
18778TIP3    H277826   5.092   4.000  13.786  0.4693 -0.2182  0.6082
18779TIP3   OH277827   2.151   4.513  15.851  0.3006 -0.4448 -0.0587
18779TIP3    H177828   2.219   4.571  15.816  1.4957 -0.9863  1.2499
18779TIP3    H277829   2.103   4.567  15.913 -0.1731 -0.1914 -0.6390
18780TIP3   OH277830   1.485   2.973  11.997 -0.3273  0.4300 -0.0656
18780TIP3    H177831   1.501   3.043  12.061  1.7307 -1.6811  1.8971
18780TIP3    H277832   1.408   2.928  12.031 -1.5925  1.5993 -1.2764
18781TIP3   OH277833   5.147   3.174   0.817  0.2935  0.0831 -0.0127
18781TIP3    H177834   5.105   3.102   0.771  0.1451  1.4192 -2.1013
18781TIP3    H277835   5.214   3.132   0.871 -0.0136 -1.6231 -0.8913
18782TIP3   OH277836   6.150   0.038  14.139  0.6397  0.1875 -0.2864
18782TIP3    H177837   6.223   0.084  14.179  0.8850 -0.1795 -0.3022
18782TIP3    H277838   6.190  -0.039  14.097  0.4759  0.8557 -1.7288
18783TIP3   OH277839   2.848   2.228   4.644 -0.2816  0.3183 -0.0471
18783TIP3    H177840   2.832   2.280   4.565 -0.6907  0.5543  0.1883
18783TIP3    H277841   2.899   2.153   4.613  1.9818  1.7998 -0.1001
18784TIP3   OH277842   0.099   2.927  12.097 -0.1357 -0.1105  0.0227
18784TIP3    H177843   0.044   2.967  12.165  0.3642  0.3684  0.1482
18784TIP3    H277844   0.039   2.913  12.024 -0.0171  2.4628 -0.6853
18785TIP3   OH277845   2.271   0.291   1.001 -0.7585  0.1787  0.5519
18785TIP3    H177846   2.325   0.288   1.080 -1.7082 -0.7211  1.1976
18785TIP3    H277847   2.333   0.307   0.929  0.8495 -3.7218  0.8627
18786TIP3   OH277848   4.471   2.682  12.367  0.4488  0.8096 -0.1519
18786TIP3    H177849   4.441   2.686  12.458  0.1974  1.1767 -0.2476
18786TIP3    H277850   4.509   2.595  12.358  0.9158  0.9446  0.4464
18787TIP3   OH277851   4.133   3.316  11.108  0.0375 -0.1861  0.0951
18787TIP3    H177852   4.113   3.305  11.015 -1.2094 -0.1722  0.3459
18787TIP3    H277853   4.200   3.250  11.126 -2.0847 -2.5372 -0.0832
18788TIP3   OH277854   0.056   4.317  17.043 -0.8780 -0.2616 -0.3047
18788TIP3    H177855   0.018   4.365  17.116 -1.1568 -0.7004 -0.1591
18788TIP3    H277856  -0.014   4.312  16.978 -0.4727  0.5671 -0.8148
18789TIP3   OH277857   6.555   3.512  12.055  0.1098  0.3640 -0.2312
18789TIP3    H177858   6.643   3.537  12.026  0.2784  0.8712  0.6720
18789TIP3    H277859   6.570   3.453  12.129 -0.3121 -0.1027 -0.5149
18790TIP3   OH277860   1.494   4.354   5.051  0.4839  0.0333 -0.1783
18790TIP3    H177861   1.402   4.335   5.032  0.6349 -0.6363 -0.2752
18790TIP3    H277862   1.540   4.273   5.030  0.9976  0.1148  0.5815
18791TIP3   OH277863   1.813   4.868   5.448 -0.0344  0.2469  0.8018
18791TIP3    H177864   1.768   4.783   5.444 -2.1353  1.1835  2.5807
18791TIP3    H277865   1.900   4.846   5.481  0.0121 -1.3531 -0.2265
18792TIP3   OH277866   6.742   3.991   5.020 -0.5975 -0.0371 -0.0533
18792TIP3    H177867   6.727   3.897   5.032  1.2483 -0.4395 -0.6478
18792TIP3    H277868   6.745   4.026   5.108 -0.5396 -0.6643  0.1995
18793TIP3   OH277869   0.496   0.579   3.639  0.2064 -0.3654  0.8567
18793TIP3    H177870   0.580   0.609   3.606 -0.5583  1.2693  0.2590
18793TIP3    H277871   0.457   0.529   3.568 -0.0376  0.3609  0.4624
18794TIP3   OH277872   0.034   0.250   1.088  0.3937  0.1859  0.3245
18794TIP3    H177873   0.125   0.273   1.109  0.4493 -0.8191  1.2967
18794TIP3    H277874   0.016   0.173   1.142 -0.7739 -0.1335 -0.4829
18795TIP3   OH277875   2.275   2.926   5.421  0.3051 -0.0174  0.1328
18795TIP3    H177876   2.219   3.003   5.426  0.8402  0.5410 -1.5364
18795TIP3    H277877   2.348   2.953   5.365  0.9330 -1.4867  0.1875
18796TIP3   OH277878   1.242   6.313   3.953 -0.2292 -0.5180 -0.0891
18796TIP3    H177879   1.255   6.322   3.859  3.1926 -0.9580  0.2113
18796TIP3    H277880   1.181   6.239   3.962 -1.2792  0.0700 -1.9278
18797TIP3   OH277881   1.991   1.440   2.160  0.1250  0.0986 -0.1506
18797TIP3    H177882   2.038   1.487   2.229  0.5933 -1.1140  0.3910
18797TIP3    H277883   1.925   1.389   2.207  0.3015 -0.5632 -0.6113
18798TIP3   OH277884   1.121   3.927   2.182  0.0374  0.4225  0.3279
18798TIP3    H177885   1.034   3.966   2.187 -0.4004 -0.6095  1.1414
18798TIP3    H277886   1.120   3.856   2.247  1.3956  0.2198  0.1703
18799TIP3   OH277887   3.595   5.346  16.096  0.1012  0.0192 -0.1887
18799TIP3    H177888   3.509   5.326  16.133 -0.0938  0.5216 -0.3727
18799TIP3    H277889   3.620   5.266  16.049 -0.4281  0.0139 -0.4568
18800TIP3   OH277890   1.033   5.168   0.145  0.0049  0.5113  0.1747
18800TIP3    H177891   0.939   5.161   0.132  0.1117 -0.7111 -0.0275
18800TIP3    H277892   1.057   5.250   0.103 -0.9217  0.6820 -0.0370
18801TIP3   OH277893   5.889   0.239   2.973  0.1596  0.2054  0.1655
18801TIP3    H177894   5.886   0.269   2.882  3.4886  0.5098  0.0336
18801TIP3    H277895   5.957   0.172   2.974 -0.3698 -0.3825  2.3186
18802TIP3   OH277896   1.276   5.942   1.865 -0.4741 -0.7552 -0.4962
18802TIP3    H177897   1.235   6.008   1.922 -1.5860 -1.1637 -0.7920
18802TIP3    H277898   1.258   5.973   1.776  0.8647 -0.3544 -0.6398
18803TIP3   OH277899   2.990   6.777  15.677  0.2516 -0.4296 -0.1449
18803TIP3    H177900   3.015   6.737  15.593  0.4168 -0.1850 -0.2151
18803TIP3    H277901   3.053   6.849  15.688 -0.9120  0.7227 -0.7154
18804TIP3   OH277902   6.692   2.487  17.047 -0.2701  0.2260 -0.0567
18804TIP3    H177903   6.742   2.556  17.091 -0.0220 -0.6331  1.0520
18804TIP3    H277904   6.756   2.442  16.991  0.2006 -0.7495  1.2138
18805TIP3   OH277905   3.464   2.221  15.714  0.1287  0.3809  0.9678
18805TIP3    H177906   3.553   2.201  15.685 -0.4825  0.4881 -1.1966
18805TIP3    H277907   3.467   2.312  15.743  0.7065  0.4191  0.7918
18806TIP3   OH277908   5.732   3.897   4.503 -0.1089 -0.3922  0.1287
18806TIP3    H177909   5.820   3.866   4.524  0.8024  0.9965 -1.3691
18806TIP3    H277910   5.738   3.927   4.413 -2.3022 -0.7986 -0.2221
18807TIP3   OH277911   0.392   6.384  14.582 -0.5702  0.1320  0.8968
18807TIP3    H177912   0.463   6.447  14.573  0.1933 -0.8758 -0.6042
18807TIP3    H277913   0.359   6.372  14.493 -2.1287 -0.0060  1.4512
18808TIP3   OH277914   5.017   0.630  15.229  0.4628 -0.2381 -0.2718
18808TIP3    H177915   4.994   0.537  15.232  0.2875 -0.3212 -2.7442
18808TIP3    H277916   5.096   0.633  15.175 -0.0860  1.1399 -1.0193
18809TIP3   OH277917   3.514   1.261   0.606  0.0036  0.1495 -1.0465
18809TIP3    H177918   3.557   1.288   0.687  1.7242  0.7937 -2.1022
18809TIP3    H277919   3.471   1.179   0.627  0.8820  0.0192  0.3839
18810TIP3   OH277920   5.236   1.211   5.275 -0.2174  0.2771  0.4996
18810TIP3    H177921   5.194   1.226   5.190 -1.1425  1.9152  1.2057
18810TIP3    H277922   5.251   1.116   5.277  0.1148  0.2228 -1.5956
18811TIP3   OH277923   5.970   6.671   4.054  0.3850  0.2419 -0.1632
18811TIP3    H177924   5.962   6.576   4.058  2.1780  0.0419 -0.5531
18811TIP3    H277925   6.017   6.688   3.972 -2.0642  1.6592 -1.3726
18812TIP3   OH277926   4.911   5.357  15.576  0.3758  0.0596  0.0295
18812TIP3    H177927   4.902   5.430  15.638 -1.3775  0.2679 -0.4244
18812TIP3    H277928   4.966   5.293  15.623  1.0299  1.1843  0.8592
18813TIP3   OH277929   6.640   3.714  12.843 -0.0226  0.2659  0.1043
18813TIP3    H177930   6.545   3.707  12.857 -0.1870  2.6667  0.7275
18813TIP3    H277931   6.656   3.667  12.762 -1.3539 -2.1342  1.1406
18814TIP3   OH277932   6.725   6.003   5.957  0.5139  0.3561 -0.3511
18814TIP3    H177933   6.645   5.952   5.952  0.9295 -0.3636  0.1673
18814TIP3    H277934   6.774   5.965   6.030  2.6890 -1.2095 -2.4686
18815TIP3   OH277935   0.825   2.560  13.874  0.4399 -0.2125 -0.0660
18815TIP3    H177936   0.781   2.522  13.950 -0.2771  1.6460  0.5092
18815TIP3    H277937   0.915   2.529  13.879  0.5324  0.2835  1.8505
18816TIP3   OH277938   2.665   2.137   2.826  0.4380  0.8159  0.0046
18816TIP3    H177939   2.632   2.051   2.851 -0.6783  1.0534 -0.5465
18816TIP3    H277940   2.585   2.188   2.808  1.0904  0.9285 -3.1021
18817TIP3   OH277941   3.042   1.966  16.469 -0.6126 -0.9346  0.3700
18817TIP3    H177942   3.085   1.931  16.391  0.8224  1.1461  0.1490
18817TIP3    H277943   3.088   1.926  16.542  1.7840  1.1374  0.1324
18818TIP3   OH277944   5.553   1.808  17.240 -0.2547  0.2186 -0.2405
18818TIP3    H177945   5.617   1.742  17.213  0.0800  0.4261  0.0439
18818TIP3    H277946   5.468   1.765  17.230  0.0421 -1.1468  2.3239
18819TIP3   OH277947   2.693   1.815  11.737  0.2981 -0.3812  0.0816
18819TIP3    H177948   2.726   1.890  11.786  0.9263 -0.7300  0.1984
18819TIP3    H277949   2.770   1.777  11.696 -0.2903  0.2816 -1.7400
18820TIP3   OH277950   1.968   4.233  13.688  0.1314  0.1113  0.3614
18820TIP3    H177951   1.876   4.257  13.680  0.0816 -0.0590  0.4228
18820TIP3    H277952   1.974   4.146  13.649  0.3330  0.2698  0.0344
18821TIP3   OH277953   2.365   5.528  15.643  0.0450  0.2703  0.4518
18821TIP3    H177954   2.403   5.612  15.666  0.2222  0.3308 -0.0467
18821TIP3    H277955   2.342   5.488  15.727 -1.3537  1.4076  0.6516
18822TIP3   OH277956   2.176   5.783  14.281 -0.2115  0.2097  0.0582
18822TIP3    H177957   2.115   5.845  14.321 -0.7218 -1.0282  1.2986
18822TIP3    H277958   2.258   5.795  14.328 -0.1418  0.3543 -0.1012
18823TIP3   OH277959   6.119   0.859   5.119 -0.1098  0.1961 -0.7487
18823TIP3    H177960   6.051   0.887   5.181 -0.2939 -1.7423 -0.0113
18823TIP3    H277961   6.166   0.940   5.098 -2.5169  1.5717 -1.1766
18824TIP3   OH277962   0.243   4.680  12.182  0.3698  0.1211 -0.5615
18824TIP3    H177963   0.289   4.730  12.115  1.2434 -1.3455 -1.1101
18824TIP3    H277964   0.216   4.600  12.138 -2.1011  0.5886 -0.0424
18825TIP3   OH277965   0.019   3.928   4.748 -0.4023 -0.7225  0.1783
18825TIP3    H177966   0.003   3.954   4.839 -0.4152 -1.3755  0.3731
18825TIP3    H277967   0.078   3.995   4.713 -2.0514  0.6875  0.0132
18826TIP3   OH277968   3.992   0.637  12.175 -0.6593  0.1423 -0.2768
18826TIP3    H177969   3.918   0.617  12.119 -1.0915  2.0308 -0.4370
18826TIP3    H277970   4.017   0.726  12.151  0.4083  0.2621  1.1504
18827TIP3   OH277971   3.984   6.158  13.197  0.0266 -0.0470 -0.1461
18827TIP3    H177972   3.924   6.137  13.268  0.4731  1.3989  0.7054
18827TIP3    H277973   3.934   6.217  13.140  0.1866  0.0941 -0.1433
18828TIP3   OH277974   3.623   0.047  16.003  0.6974 -0.4582  0.4156
18828TIP3    H177975   3.660   0.094  16.078 -0.5255  2.1885 -0.5083
18828TIP3    H277976   3.609  -0.042  16.035  1.6911  0.1570  2.7961
18829TIP3   OH277977   3.623   0.250   2.395 -0.6508  0.0269  0.2798
18829TIP3    H177978   3.616   0.166   2.441 -0.2311 -0.3346 -0.2943
18829TIP3    H277979   3.560   0.307   2.439 -1.1290 -0.6695  0.5122
18830TIP3   OH277980   2.131   5.905   4.557 -0.1890  0.6385 -0.1397
18830TIP3    H177981   2.048   5.858   4.564 -0.6257  0.9232 -2.6499
18830TIP3    H277982   2.177   5.861   4.486  0.7080  2.0760 -0.4867
18831TIP3   OH277983   3.782   6.115   0.683 -0.0210 -0.3992 -0.3980
18831TIP3    H177984   3.859   6.127   0.628  0.2905 -0.9232 -0.0840
18831TIP3    H277985   3.818   6.101   0.771 -0.3639 -2.7427 -0.5852
18832TIP3   OH277986   3.606   3.519  11.263  0.6162  0.0450  0.2533
18832TIP3    H177987   3.577   3.571  11.188  1.6542  0.2186 -0.0411
18832TIP3    H277988   3.691   3.556  11.286  0.3948 -0.1441  1.3937
18833TIP3   OH277989   1.415   5.715   6.066 -0.2433  0.3219  0.1618
18833TIP3    H177990   1.325   5.683   6.065 -0.2402  0.2853  0.6350
18833TIP3    H277991   1.454   5.672   6.142  0.3935 -0.2525 -0.4701
18834TIP3   OH277992   5.646   2.893   5.217  0.2410 -0.2128  0.3675
18834TIP3    H177993   5.573   2.841   5.185  1.0323 -1.1564  0.0334
18834TIP3    H277994   5.682   2.842   5.290  1.4394 -0.4876 -0.3927
18835TIP3   OH277995   3.197   5.092   4.887  0.0673 -0.2512 -0.6057
18835TIP3    H177996   3.209   5.165   4.825 -0.8190 -0.7403 -1.3680
18835TIP3    H277997   3.198   5.134   4.973  3.4626  0.2352 -0.7120
18836TIP3   OH277998   5.232   3.937  12.537 -0.6221  0.9025  0.2299
18836TIP3    H177999   5.161   3.996  12.510  0.5824  1.4176 -2.1178
18836TIP3    H278000   5.310   3.992  12.540  0.6700 -0.4975 -2.6796
18837TIP3   OH278001   2.479   5.611  15.996  0.0986 -0.1584 -0.2100
18837TIP3    H178002   2.423   5.661  15.937 -1.0847 -1.1176  0.0660
18837TIP3    H278003   2.528   5.677  16.045  2.1534  0.7012 -3.1341
18838TIP3   OH278004   2.759   0.700  16.237  0.2699  0.3412 -0.3253
18838TIP3    H178005   2.785   0.612  16.211  1.6904  0.4904  0.5075
18838TIP3    H278006   2.789   0.756  16.164  0.5849  0.2895 -0.2359
18839TIP3   OH278007   3.058   1.510   6.269  0.8599 -0.1180  0.4585
18839TIP3    H178008   3.133   1.567   6.257  0.1846  0.5007 -1.0554
18839TIP3    H278009   3.036   1.480   6.181 -2.4012  2.0063  0.3900
18840TIP3   OH278010   3.310   5.636   2.949  0.1198  0.0306  0.2013
18840TIP3    H178011   3.260   5.717   2.958  0.9159  0.5751 -0.1977
18840TIP3    H278012   3.327   5.608   3.039 -0.4713  0.0978  0.3398
18841TIP3   OH278013   5.097   1.985   5.272  0.4148 -0.1612 -0.2331
18841TIP3    H178014   5.065   1.902   5.239 -0.5148  0.6236 -1.3968
18841TIP3    H278015   5.033   2.050   5.241  1.2753  1.0200  0.3642
18842TIP3   OH278016   5.698   0.945  16.976  0.2340  0.0261 -0.2092
18842TIP3    H178017   5.742   0.906  16.901 -0.0596 -0.4459 -0.1435
18842TIP3    H278018   5.707   0.880  17.046  0.2598  0.3388  0.0819
18843TIP3   OH278019   0.844   2.366  10.926 -0.2826  0.2148  0.2884
18843TIP3    H178020   0.777   2.415  10.972 -0.8177 -0.8558  0.6761
18843TIP3    H278021   0.801   2.335  10.846  0.7836  2.5070 -1.2921
18844TIP3   OH278022   1.858   4.315  15.277  0.3762  0.3148 -0.3336
18844TIP3    H178023   1.935   4.333  15.225 -0.1133  1.8810 -0.5441
18844TIP3    H278024   1.876   4.356  15.362  0.3542 -0.5391  0.0956
18845TIP3   OH278025   3.877   6.543   4.136  0.8520  0.3735  0.1166
18845TIP3    H178026   3.870   6.610   4.204  2.2574 -1.0153  1.7079
18845TIP3    H278027   3.791   6.544   4.093  0.9995  3.5060 -0.2821
18846TIP3   OH278028   2.523   5.042   3.010 -1.0602 -0.3428  0.1084
18846TIP3    H178029   2.538   4.955   3.046  1.4521  0.6734  1.8023
18846TIP3    H278030   2.521   5.029   2.916  1.3403 -2.0329  0.2092
18847TIP3   OH278031   1.462   5.204   1.577 -0.3121  0.1324 -0.3302
18847TIP3    H178032   1.523   5.253   1.632  0.0020 -2.3762  1.7182
18847TIP3    H278033   1.516   5.170   1.506  0.5136 -1.1940  0.8913
18848TIP3   OH278034   4.377   4.413  14.131 -0.4464 -0.9178  0.6303
18848TIP3    H178035   4.346   4.377  14.048  0.0280 -0.4599  0.2491
18848TIP3    H278036   4.305   4.397  14.192 -1.6579  0.5651 -0.3399
18849TIP3   OH278037   0.622   6.810  13.012  0.1445  0.1083 -0.3443
18849TIP3    H178038   0.644   6.882  12.952 -0.0318  0.0417 -0.4900
18849TIP3    H278039   0.695   6.806  13.073 -0.7341  1.7162  0.8897
18850TIP3   OH278040   3.262   1.325  11.817 -0.0924  0.6626  0.6282
18850TIP3    H178041   3.353   1.295  11.823 -0.8829 -1.5965  3.5399
18850TIP3    H278042   3.214   1.250  11.782 -1.1957  0.8449  1.6975
18851TIP3   OH278043   5.008   2.963  15.080 -0.4743 -0.5244 -0.5247
18851TIP3    H178044   4.969   2.913  15.152  1.3111  1.0011  1.6455
18851TIP3    H278045   4.951   2.946  15.005 -3.7172 -0.5132  1.7493
18852TIP3   OH278046   2.041   2.830  11.815 -0.7006  0.3197  0.1655
18852TIP3    H178047   2.045   2.776  11.894  0.3848 -0.5265 -0.4401
18852TIP3    H278048   2.040   2.920  11.847 -0.0390 -0.0077  1.1510
18853TIP3   OH278049   3.342   5.604  13.998  0.0322  0.2304 -0.3760
18853TIP3    H178050   3.343   5.646  13.912  0.5515  0.8036 -0.0972
18853TIP3    H278051   3.385   5.667  14.056  0.2154 -0.4036  0.1873
18854TIP3   OH278052   0.010   4.455  15.797  1.0419  0.5031 -0.6196
18854TIP3    H178053   0.096   4.424  15.825  1.2562  1.6692  0.0945
18854TIP3    H278054  -0.003   4.536  15.846 -1.3761 -0.7006  0.8850
18855TIP3   OH278055   6.765   2.485   1.595  0.0556 -0.6470 -0.3955
18855TIP3    H178056   6.839   2.538   1.621  1.3560 -3.0171  1.0529
18855TIP3    H278057   6.803   2.414   1.543 -1.4771 -0.7633 -1.4344
18856TIP3   OH278058   2.661   5.994   3.445  0.5869 -0.7372 -0.1524
18856TIP3    H178059   2.671   6.070   3.387  0.0799 -0.8572 -0.3978
18856TIP3    H278060   2.633   6.031   3.529 -0.0600 -0.6837 -0.3875
18857TIP3   OH278061   3.939   0.667  14.097 -0.2787 -0.2015  0.5315
18857TIP3    H178062   3.887   0.722  14.039  1.6475  2.2254  0.9931
18857TIP3    H278063   3.873   0.614  14.144 -2.1152  0.6784 -0.9143
18858TIP3   OH278064   5.831   2.222  15.143  0.2926 -0.1197  0.3221
18858TIP3    H178065   5.787   2.199  15.061 -0.1676 -1.2468  0.8584
18858TIP3    H278066   5.834   2.140  15.191 -0.1692  0.6836  1.7731
18859TIP3   OH278067   4.156   5.828   6.914  0.1231 -0.4843 -0.0424
18859TIP3    H178068   4.131   5.867   6.830 -1.4676 -1.0992  0.1104
18859TIP3    H278069   4.208   5.751   6.890 -0.5957 -0.8413 -0.4778
18860TIP3   OH278070   2.991   6.552   0.245 -0.0501 -0.2943 -0.0489
18860TIP3    H178071   3.026   6.481   0.299 -0.9069 -0.6102  0.1076
18860TIP3    H278072   3.044   6.629   0.268  1.2589 -0.9887 -0.6247
18861TIP3   OH278073   4.037   2.938  16.282  0.1569  0.3467  0.0161
18861TIP3    H178074   4.121   2.928  16.327  0.5969  0.0543 -0.8507
18861TIP3    H278075   3.991   2.856  16.299  0.0447  0.4973  0.4697
18862TIP3   OH278076   0.745   2.868   0.887 -0.5151  0.3306  0.4381
18862TIP3    H178077   0.721   2.913   0.968 -0.2566  1.1821  0.0482
18862TIP3    H278078   0.716   2.927   0.817  1.4374  0.7460 -0.0703
18863TIP3   OH278079   1.993   3.810   5.129 -0.2740 -0.3690  0.5028
18863TIP3    H178080   1.964   3.730   5.085  0.5162  1.1788 -3.1527
18863TIP3    H278081   2.076   3.786   5.170 -0.0975 -1.4708 -0.4482
18864TIP3   OH278082   1.180   4.566   6.147 -0.0454 -0.4430 -0.2140
18864TIP3    H178083   1.274   4.551   6.135 -0.0888 -0.6970 -0.2501
18864TIP3    H278084   1.174   4.616   6.228  0.0999 -0.7326 -0.0216
18865TIP3   OH278085   3.630   1.033  10.920 -0.1527 -0.5203 -0.7657
18865TIP3    H178086   3.568   1.094  10.880 -1.2179 -1.9458 -1.3481
18865TIP3    H278087   3.688   1.089  10.972  0.9923  1.3843 -3.8070
18866TIP3   OH278088   5.751   2.556  14.871 -0.7244 -0.0441 -0.8520
18866TIP3    H178089   5.737   2.533  14.779 -1.1034  0.1924 -0.8563
18866TIP3    H278090   5.664   2.579  14.903 -0.3632  1.4448 -0.8677
18867TIP3   OH278091   6.060   4.582  14.466  0.4374 -0.1791  0.4469
18867TIP3    H178092   6.012   4.637  14.404  1.4100 -0.0360 -0.2195
18867TIP3    H278093   6.132   4.638  14.496  0.3676 -0.4814  1.1958
18868TIP3   OH278094   6.080   4.500   3.490 -0.4053 -0.2193 -0.0126
18868TIP3    H178095   6.079   4.592   3.517 -1.2476 -0.2364  0.0254
18868TIP3    H278096   6.116   4.502   3.401  1.1844 -0.0390  0.6016
18869TIP3   OH278097   1.250   1.176   1.556 -0.0654  0.4195 -0.0808
18869TIP3    H178098   1.162   1.148   1.528  0.6034 -0.5615 -1.3152
18869TIP3    H278099   1.264   1.130   1.639  0.1137 -1.2278 -0.9692
18870TIP3   OH278100   3.739   4.542   1.713 -0.5545  0.5917  0.1456
18870TIP3    H178101   3.792   4.486   1.656  1.0441  2.0148  0.1596
18870TIP3    H278102   3.752   4.630   1.678 -1.5133  1.1968  1.2493
18871TIP3   OH278103   6.495   2.455   6.088 -0.0882 -0.1528  0.8546
18871TIP3    H178104   6.409   2.423   6.114 -0.4719  0.1506 -0.0265
18871TIP3    H278105   6.481   2.547   6.068 -0.2556 -0.7631 -2.2875
18872TIP3   OH278106   0.333   2.868   1.432  0.6566 -0.2025  0.4127
18872TIP3    H178107   0.245   2.837   1.456  0.0285  1.4123  0.3244
18872TIP3    H278108   0.392   2.809   1.479 -0.2783 -3.7874 -2.4416
18873TIP3   OH278109   1.708   0.050  16.630 -0.0814 -0.0508 -0.1844
18873TIP3    H178110   1.764   0.127  16.637  0.8744 -0.6655 -0.8045
18873TIP3    H278111   1.652   0.067  16.554  0.0686  0.0647 -0.2673
18874TIP3   OH278112   6.337   6.681   3.682  0.1960 -0.6179 -0.1223
18874TIP3    H178113   6.300   6.616   3.622  0.6466 -0.7182 -0.2966
18874TIP3    H278114   6.360   6.632   3.761 -0.7826 -0.4112  0.3018
18875TIP3   OH278115   1.195   1.476   1.541 -0.0253 -0.0020 -0.3637
18875TIP3    H178116   1.102   1.453   1.546 -0.0166 -0.1054 -0.6618
18875TIP3    H278117   1.239   1.394   1.522  0.1855 -0.0536  0.3066
18876TIP3   OH278118   1.523   4.143   5.253  0.5697  0.3498  0.0801
18876TIP3    H178119   1.543   4.103   5.169 -1.7685 -0.6166 -0.0793
18876TIP3    H278120   1.438   4.186   5.240  0.0501 -0.0071  1.9927
18877TIP3   OH278121   3.957   0.044  16.204 -0.2769 -0.5777  0.1456
18877TIP3    H178122   3.992   0.104  16.139  2.4338 -0.0230  1.9919
18877TIP3    H278123   3.868   0.077  16.222 -0.2737  0.5227 -1.6311
18878TIP3   OH278124   1.698   4.789   0.952 -0.4221 -0.1695 -0.1210
18878TIP3    H178125   1.634   4.855   0.925 -0.7864 -1.3019 -2.2359
18878TIP3    H278126   1.647   4.709   0.960  0.6111 -0.9633 -1.2508
18879TIP3   OH278127   5.127   1.687   4.795 -0.6765  0.2134  1.1246
18879TIP3    H178128   5.110   1.642   4.877  0.7223 -1.5367  0.5065
18879TIP3    H278129   5.220   1.673   4.778 -0.8471  0.8645 -0.5598
18880TIP3   OH278130   2.196   4.616  14.851  0.3902  0.4761 -0.0175
18880TIP3    H178131   2.191   4.688  14.915  2.7683  0.2706  0.4894
18880TIP3    H278132   2.191   4.659  14.766 -0.5612  0.9762  0.2735
18881TIP3   OH278133   6.315   3.841  14.703  0.5769  0.0244 -0.2532
18881TIP3    H178134   6.280   3.905  14.640 -0.3426  1.1257  1.2922
18881TIP3    H278135   6.291   3.876  14.789  0.0455 -2.3989  0.6829
18882TIP3   OH278136   5.914   1.365  16.129 -0.2172  0.0935 -0.3082
18882TIP3    H178137   5.911   1.375  16.224 -3.0647 -1.4991 -0.1399
18882TIP3    H278138   6.006   1.343  16.110  1.0084  2.8840  1.6842
18883TIP3   OH278139   3.767   1.134  14.465  0.1738  0.0055  0.3999
18883TIP3    H178140   3.684   1.147  14.419 -0.3092  0.5749  1.4116
18883TIP3    H278141   3.801   1.052  14.428 -1.2872 -0.7509  0.6227
18884TIP3   OH278142   4.885   6.024   5.120 -0.2092 -0.4184  0.3324
18884TIP3    H178143   4.813   6.083   5.146 -0.5837 -0.6963 -0.0519
18884TIP3    H278144   4.849   5.975   5.046 -0.2564 -1.8182  1.2451
18885TIP3   OH278145   2.409   4.548   0.089  0.3151  0.6688  0.1176
18885TIP3    H178146   2.399   4.558   0.184  0.0560  1.3626  0.0266
18885TIP3    H278147   2.322   4.525   0.058  0.5096 -0.0703  0.1006
18886TIP3   OH278148   0.834   6.816   0.400 -0.0855  0.0550  0.4038
18886TIP3    H178149   0.739   6.814   0.383  0.0416  2.4054 -1.0122
18886TIP3    H278150   0.842   6.866   0.481  0.0085  2.5461 -1.0525
18887TIP3   OH278151   2.245   6.616  12.695  0.2128  0.1303  0.1125
18887TIP3    H178152   2.167   6.578  12.736 -0.8229  2.0137  0.0169
18887TIP3    H278153   2.316   6.598  12.757 -1.4576  3.7472  3.4773
18888TIP3   OH278154   0.209   1.596  11.424  0.2787  0.6853 -0.6385
18888TIP3    H178155   0.278   1.662  11.415  0.2776  0.7868  0.0613
18888TIP3    H278156   0.254   1.517  11.453 -0.2183  1.6083  3.1767
18889TIP3   OH278157   6.340   1.871  15.947  0.2969  0.0346 -0.2576
18889TIP3    H178158   6.433   1.870  15.969  1.0041  1.2748 -2.7468
18889TIP3    H278159   6.326   1.791  15.896 -0.1502 -0.4169  0.5592
18890TIP3   OH278160   4.138   4.768  15.404  0.6732  0.4261 -0.1150
18890TIP3    H178161   4.165   4.764  15.313  1.6801  0.9840  0.1507
18890TIP3    H278162   4.207   4.818  15.448  0.7770 -0.7825  1.1644
18891TIP3   OH278163   2.374   6.019   4.863 -0.2141 -0.4404 -0.4407
18891TIP3    H178164   2.410   6.064   4.787 -1.6100  1.2385 -0.1722
18891TIP3    H278165   2.280   6.040   4.862 -0.6163 -1.9910  0.6558
18892TIP3   OH278166   6.807   2.868   4.123 -0.1106  0.3571 -0.3623
18892TIP3    H178167   6.721   2.907   4.110  0.4248  2.6719  2.1560
18892TIP3    H278168   6.789   2.780   4.155 -1.5274  0.6414 -0.3175
18893TIP3   OH278169   6.300   5.011   1.256 -0.0932  0.3147  0.0060
18893TIP3    H178170   6.375   5.025   1.197 -0.2761  1.9491  0.1390
18893TIP3    H278171   6.338   4.966   1.331  1.1287  2.5035  0.7842
18894TIP3   OH278172   5.637   1.288   2.545 -0.1212 -0.4850  0.2279
18894TIP3    H178173   5.693   1.310   2.619 -1.6871  0.2171  1.2622
18894TIP3    H278174   5.614   1.196   2.558  0.1144 -0.5359  0.2748
18895TIP3   OH278175   3.277   1.219   4.211  0.2174 -0.2784 -0.6135
18895TIP3    H178176   3.323   1.139   4.183  0.5107 -0.3153 -0.0273
18895TIP3    H278177   3.329   1.290   4.173  0.5563 -0.3322 -0.2582
18896TIP3   OH278178   3.221   3.612  15.068 -0.7506 -0.1535 -0.2844
18896TIP3    H178179   3.165   3.558  15.012 -1.9413  0.9058 -0.1594
18896TIP3    H278180   3.162   3.647  15.134  0.5107 -0.8622  1.2922
18897TIP3   OH278181   1.642   0.946  17.229 -0.2094 -0.1510  0.2799
18897TIP3    H178182   1.611   0.868  17.183  0.5175 -0.2360 -0.0751
18897TIP3    H278183   1.731   0.924  17.257 -1.0535 -0.6481  2.9481
18898TIP3   OH278184   4.274   6.404   4.754 -0.3879  0.0864 -0.1849
18898TIP3    H178185   4.238   6.456   4.826  0.5210  0.1011  0.2713
18898TIP3    H278186   4.207   6.338   4.737  0.2782 -1.3447  2.1917
18899TIP3   OH278187   2.803   4.842   3.202 -0.2036  0.2202 -0.4437
18899TIP3    H178188   2.829   4.914   3.144 -1.1737  1.0823  0.1490
18899TIP3    H278189   2.884   4.812   3.242  0.0508  2.2928  0.7467
18900TIP3   OH278190   2.236   5.137  16.539 -0.2628 -0.1982  0.2288
18900TIP3    H178191   2.159   5.187  16.510 -0.0081 -0.2432 -0.5500
18900TIP3    H278192   2.223   5.050  16.502  0.8770  0.1980 -1.2026
18901TIP3   OH278193   4.742   2.492   5.679  0.3343 -0.8977  0.0133
18901TIP3    H178194   4.800   2.426   5.640  1.4208 -0.4271  0.8086
18901TIP3    H278195   4.759   2.571   5.628  3.0254  0.2044  2.3341
18902TIP3   OH278196   2.767   0.198  14.284 -0.0254  0.5588  0.1838
18902TIP3    H178197   2.767   0.288  14.317  0.5897 -0.4437  3.2851
18902TIP3    H278198   2.840   0.195  14.223  0.8569  1.8261  1.1239
18903TIP3   OH278199   4.351   3.593  15.438 -0.2594  0.2571  0.0439
18903TIP3    H178200   4.426   3.605  15.495  0.9428  0.0601 -1.4268
18903TIP3    H278201   4.325   3.681  15.413 -0.1122  0.3026  0.0519
18904TIP3   OH278202   5.266   3.702   1.210 -0.2500  0.5756 -0.2995
18904TIP3    H178203   5.339   3.760   1.190  0.2174 -0.0557 -0.4624
18904TIP3    H278204   5.274   3.684   1.304  0.5607 -0.4908 -0.5558
18905TIP3   OH278205   4.136   2.702   0.377 -0.3660  0.6340 -0.2600
18905TIP3    H178206   4.051   2.730   0.413 -0.2769  0.5555  0.0167
18905TIP3    H278207   4.149   2.756   0.300 -1.3302 -0.3201 -1.1218
18906TIP3   OH278208   5.941   6.043  12.405  0.2336  0.4744  0.0632
18906TIP3    H178209   6.028   6.034  12.366  0.1356  1.2726 -0.3508
18906TIP3    H278210   5.920   5.955  12.437  1.6213  0.4777  1.0927
18907TIP3   OH278211   4.404   5.842  12.581  0.3518  0.5023 -0.4061
18907TIP3    H178212   4.331   5.903  12.594 -0.2289 -0.4620  1.0858
18907TIP3    H278213   4.444   5.834  12.667  2.5492  1.3528 -1.2906
18908TIP3   OH278214   5.879   5.338   2.995  0.0827 -0.1723  0.2270
18908TIP3    H178215   5.924   5.375   2.919 -2.2962 -1.8084 -2.1969
18908TIP3    H278216   5.944   5.339   3.065  1.9121  2.9185 -1.3203
18909TIP3   OH278217   1.717   0.485  15.362 -0.1274 -0.5539 -0.3932
18909TIP3    H178218   1.710   0.500  15.456  1.9379 -0.4650 -0.2032
18909TIP3    H278219   1.632   0.511  15.327 -0.5181  0.6327  1.3001
18910TIP3   OH278220   2.404   2.119  11.534  0.1614 -0.4914 -0.8288
18910TIP3    H178221   2.429   2.038  11.489  1.5095 -0.1140 -0.8095
18910TIP3    H278222   2.427   2.104  11.626  1.0256  0.1328 -0.9329
18911TIP3   OH278223   0.165   3.049   6.225  0.1783 -0.3726  0.2334
18911TIP3    H178224   0.249   3.030   6.183 -0.3384 -2.1242 -0.0770
18911TIP3    H278225   0.186   3.049   6.319  1.2508  3.1616  0.1501
18912TIP3   OH278226   2.092   6.054  13.385 -0.1816 -0.4591  0.2799
18912TIP3    H178227   2.127   6.080  13.471  0.7726 -2.6423  0.6260
18912TIP3    H278228   2.150   5.983  13.357 -1.3143 -0.6971 -1.5520
18913TIP3   OH278229   5.539   0.256   3.300  0.3883 -0.0093 -0.3520
18913TIP3    H178230   5.521   0.334   3.248  2.6464  0.3132 -0.7346
18913TIP3    H278231   5.601   0.285   3.367 -0.0566 -1.1187  0.5848
18914TIP3   OH278232   1.186   4.130   0.691  0.7453  0.2918 -0.4283
18914TIP3    H178233   1.172   4.048   0.737 -0.1161  0.7309  0.1186
18914TIP3    H278234   1.114   4.135   0.627 -2.4297  2.9047  2.8827
18915TIP3   OH278235   5.309   4.811  15.191  0.1143 -0.4995 -0.4547
18915TIP3    H178236   5.383   4.790  15.249 -0.8889 -0.4320  0.9106
18915TIP3    H278237   5.311   4.906  15.184  1.4519 -0.6160 -2.2490
18916TIP3   OH278238   1.946   3.925   2.526 -0.0866  0.2697 -0.0810
18916TIP3    H178239   1.982   3.978   2.598 -1.3633  2.5764 -1.0194
18916TIP3    H278240   2.019   3.915   2.465  0.8514 -1.2239  1.1904
18917TIP3   OH278241   0.477   0.223   1.067  0.3202  0.2857 -0.2063
18917TIP3    H178242   0.453   0.301   1.118 -1.1590  0.6559 -1.3901
18917TIP3    H278243   0.499   0.257   0.980  0.0030 -0.5698 -0.6330
18918TIP3   OH278244   0.095   2.622  13.621 -0.7127 -0.6571 -0.8667
18918TIP3    H178245   0.045   2.695  13.582  1.0952 -0.2087 -2.5239
18918TIP3    H278246   0.172   2.664  13.660  0.5769 -1.6677 -2.2162
18919TIP3   OH278247   6.177   3.693  16.193 -0.0926  0.0643 -0.2159
18919TIP3    H178248   6.211   3.606  16.212 -0.7818 -0.6477 -1.9558
18919TIP3    H278249   6.137   3.723  16.275  1.2372 -0.7150  0.7364
18920TIP3   OH278250   5.780   0.381  15.136  0.0236  0.3649 -0.2379
18920TIP3    H178251   5.751   0.302  15.183  0.5395  0.1543 -0.2719
18920TIP3    H278252   5.814   0.438  15.204  0.2264  0.3021 -0.2866
18921TIP3   OH278253   1.726   5.789  12.414  0.1672  0.0007  0.7048
18921TIP3    H178254   1.675   5.738  12.477  1.0900 -0.3721  1.1619
18921TIP3    H278255   1.661   5.843  12.370 -0.4364  0.7725  2.4472
18922TIP3   OH278256   1.208   5.906  16.534 -0.0433  0.1218 -0.4354
18922TIP3    H178257   1.218   5.831  16.476 -0.1279  0.1435 -0.4788
18922TIP3    H278258   1.296   5.923  16.568  0.3006  1.0946 -1.7590
18923TIP3   OH278259   5.771   3.907  14.769  0.1025  0.4225 -0.4193
18923TIP3    H178260   5.860   3.909  14.805 -0.2533  0.0262  0.5340
18923TIP3    H278261   5.775   3.962  14.691  1.3710 -0.2507 -0.8538
18924TIP3   OH278262   5.272   6.568   6.637 -0.0144  0.2777  0.5564
18924TIP3    H178263   5.234   6.654   6.654  0.1430  0.3737  0.4228
18924TIP3    H278264   5.366   6.579   6.652  0.2401  0.5623 -1.0822
18925TIP3   OH278265   2.724   2.813   2.644  0.4526  0.0399 -0.4074
18925TIP3    H178266   2.765   2.877   2.585  1.6572 -1.2771 -1.0825
18925TIP3    H278267   2.777   2.815   2.723  1.0372 -0.7073 -0.7636
18926TIP3   OH278268   2.339   6.133  16.171  0.3456  0.0940  0.1170
18926TIP3    H178269   2.410   6.120  16.107 -0.2284 -1.7711 -0.1888
18926TIP3    H278270   2.384   6.135  16.256  0.9941  1.4378 -0.2302
18927TIP3   OH278271   3.358   3.528   3.387  0.4534  0.4384  0.0462
18927TIP3    H178272   3.411   3.557   3.461  1.2563 -0.1948 -0.2626
18927TIP3    H278273   3.325   3.608   3.347  2.1669  0.9364 -0.4615
18928TIP3   OH278274   1.070   4.458  12.643 -0.4376  0.1152 -0.1682
18928TIP3    H178275   1.079   4.544  12.685 -0.7871  0.4268 -0.7304
18928TIP3    H278276   0.983   4.428  12.669 -0.3550 -0.0251 -0.0533
18929TIP3   OH278277   3.741   2.424   0.755  0.1970  0.0542  0.1582
18929TIP3    H178278   3.779   2.362   0.818  0.0190  2.1977  2.5323
18929TIP3    H278279   3.757   2.510   0.793  1.4490  1.6794 -3.5430
18930TIP3   OH278280   2.951   3.146   6.781  0.9167 -0.0610  0.1438
18930TIP3    H178281   2.876   3.196   6.811  0.7803 -0.2078  0.0509
18930TIP3    H278282   2.918   3.056   6.771  1.8080 -0.7993  2.9086
18931TIP3   OH278283   4.185   1.588   0.920 -0.0366 -0.2957 -0.1459
18931TIP3    H178284   4.208   1.510   0.870  0.2581 -0.7233  0.6517
18931TIP3    H278285   4.176   1.558   1.010 -0.6053  0.4640  0.0645
18932TIP3   OH278286   2.509   0.463   4.041 -0.7974 -0.2125  0.2595
18932TIP3    H178287   2.426   0.433   4.077  0.3200 -1.4295  1.9719
18932TIP3    H278288   2.526   0.404   3.967 -1.2690 -0.1656  0.1084
18933TIP3   OH278289   3.650   4.608   1.399 -0.1040 -0.1040 -1.0171
18933TIP3    H178290   3.738   4.627   1.367  0.4241 -2.7393 -1.3154
18933TIP3    H278291   3.600   4.585   1.321 -1.1991  1.6470 -0.8889
18934TIP3   OH278292   1.079   3.283  14.532 -0.2217  0.0308  0.0816
18934TIP3    H178293   1.156   3.244  14.491  0.4034  1.7445 -0.4311
18934TIP3    H278294   1.114   3.348  14.593 -1.2624  1.3080 -0.6384
18935TIP3   OH278295   4.361   3.566  10.838 -0.5798 -0.3869  0.0538
18935TIP3    H178296   4.412   3.632  10.791 -2.4936  0.0269 -1.5799
18935TIP3    H278297   4.416   3.488  10.838  1.8835  1.1680  2.2918
18936TIP3   OH278298   2.156   6.253   2.399 -0.0927  0.8283 -0.3097
18936TIP3    H178299   2.222   6.321   2.413 -0.3695  0.9064  0.6699
18936TIP3    H278300   2.077   6.302   2.375 -0.2572  0.8505  0.2662
18937TIP3   OH278301   6.589   2.041  16.517  0.4286 -0.5472 -0.4237
18937TIP3    H178302   6.549   2.125  16.498 -0.3295 -0.6030  0.7753
18937TIP3    H278303   6.582   1.991  16.436  0.4804  0.3821 -1.0071
18938TIP3   OH278304   1.845   5.191   6.099  0.3105 -0.2173 -0.1991
18938TIP3    H178305   1.931   5.229   6.118  0.1606 -0.2244  0.5139
18938TIP3    H278306   1.822   5.143   6.178 -1.0552  1.0662  0.2334
18939TIP3   OH278307   3.372   3.070  11.244 -0.0449  0.5303  0.6632
18939TIP3    H178308   3.358   3.060  11.150  2.3115  0.5328  0.2645
18939TIP3    H278309   3.287   3.049  11.283 -0.7149 -0.8164 -1.3700
18940TIP3   OH278310   6.603   1.597  16.882  0.1524 -0.2620  0.3549
18940TIP3    H178311   6.593   1.508  16.917 -1.0775  0.6818  2.6742
18940TIP3    H278312   6.555   1.652  16.944 -0.3101  1.8806 -1.7548
18941TIP3   OH278313   3.898   6.154   1.687 -0.3003 -0.4573 -0.4732
18941TIP3    H178314   3.838   6.179   1.617  0.4998  1.1053 -0.6400
18941TIP3    H278315   3.842   6.134   1.761 -1.0434  1.6228 -0.4205
18942TIP3   OH278316   2.763   2.454  16.948  0.6888 -0.6749  0.7164
18942TIP3    H178317   2.755   2.475  16.855 -0.1699  0.9152  1.1198
18942TIP3    H278318   2.678   2.417  16.972  0.5360 -0.0666  1.1124
18943TIP3   OH278319   4.362   4.703   2.156  0.6979 -0.1734 -0.5017
18943TIP3    H178320   4.338   4.792   2.130 -4.1454 -1.7281 -2.5828
18943TIP3    H278321   4.363   4.704   2.251 -0.6698  1.8618 -0.4623
18944TIP3   OH278322   3.295   0.116   3.888  0.4988 -0.5885 -0.7840
18944TIP3    H178323   3.282   0.119   3.793 -0.8823  0.3825 -0.6026
18944TIP3    H278324   3.381   0.075   3.900  1.1624  0.2213 -2.4835
18945TIP3   OH278325   1.874   2.399  15.843  0.8123  0.3707 -0.6848
18945TIP3    H178326   1.862   2.388  15.938  0.6212 -0.4453 -0.7980
18945TIP3    H278327   1.798   2.354  15.805  1.4018 -0.1423 -1.2574
18946TIP3   OH278328   6.154   6.398   2.662 -0.2390  0.7606  0.0590
18946TIP3    H178329   6.201   6.479   2.682 -0.8115  1.0843  0.1101
18946TIP3    H278330   6.111   6.374   2.744  2.5007 -1.3807  1.0358
18947TIP3   OH278331   5.047   3.812  11.887 -0.0049 -0.4803 -0.0573
18947TIP3    H178332   4.954   3.829  11.876 -0.1126 -0.4053  0.9040
18947TIP3    H278333   5.087   3.899  11.892 -0.1881 -0.4511  1.8326
18948TIP3   OH278334   5.127   2.036  15.740  0.6072  0.4150 -0.6115
18948TIP3    H178335   5.164   2.123  15.731  1.7464 -0.1198 -1.2818
18948TIP3    H278336   5.032   2.050  15.739  0.7735  1.6472 -0.5034
18949TIP3   OH278337   2.078   2.927  14.112  0.3548  0.9291  0.4169
18949TIP3    H178338   2.107   2.888  14.030 -0.5318 -1.1920  1.0561
18949TIP3    H278339   1.987   2.897  14.122  1.1775 -0.9660  3.3307
18950TIP3   OH278340   6.644   3.573  15.633  0.4685  0.4845 -0.0181
18950TIP3    H178341   6.666   3.520  15.556  2.2862 -0.9776  1.3829
18950TIP3    H278342   6.695   3.653  15.622  0.5241  0.3942 -0.4639
18951TIP3   OH278343   2.030   2.604   2.194  0.7853 -0.7243 -0.5235
18951TIP3    H178344   2.124   2.621   2.194  1.5836 -4.2695 -0.4666
18951TIP3    H278345   2.019   2.528   2.136 -2.0224 -0.5592 -0.3762
18952TIP3   OH278346   2.085   5.187   0.679 -0.0184  0.0884  0.1015
18952TIP3    H178347   2.058   5.128   0.749 -0.9141  0.8908  0.4476
18952TIP3    H278348   2.003   5.222   0.644  0.4461  0.2176 -0.8997
18953TIP3   OH278349   1.019   2.568  12.172  0.5077  0.1216 -0.2450
18953TIP3    H178350   0.970   2.546  12.252 -0.6894 -0.6085 -1.1485
18953TIP3    H278351   1.064   2.487  12.149  1.9856  0.7206  0.4333
18954TIP3   OH278352   1.862   2.449  15.517  0.5767 -0.1266  0.7833
18954TIP3    H178353   1.955   2.454  15.538  0.7366  1.2723 -0.1533
18954TIP3    H278354   1.852   2.502  15.438 -0.6271 -2.1618 -0.5234
18955TIP3   OH278355   6.734   1.359   2.467  0.4434 -0.3924 -0.0329
18955TIP3    H178356   6.734   1.454   2.460 -1.0406 -0.2426  1.4430
18955TIP3    H278357   6.808   1.338   2.524  1.5736 -0.2494 -1.4171
18956TIP3   OH278358   2.076   6.050   2.573 -0.9178  0.0288  0.0273
18956TIP3    H178359   2.068   6.090   2.660 -2.0822 -0.1537  0.0210
18956TIP3    H278360   2.111   6.120   2.518  0.4686 -0.0489  0.7621
18957TIP3   OH278361   1.532   1.782   1.735 -0.6890  0.1333 -0.3802
18957TIP3    H178362   1.519   1.840   1.811 -0.6456  0.0955 -0.3434
18957TIP3    H278363   1.499   1.831   1.661 -1.3014 -0.0737 -0.2473
18958TIP3   OH278364   1.149   6.286  15.605  0.2237 -0.6015 -0.0162
18958TIP3    H178365   1.102   6.241  15.535  2.3149 -2.0087 -0.6022
18958TIP3    H278366   1.167   6.218  15.670 -0.4871  0.3972  1.2852
18959TIP3   OH278367   2.200   5.501  12.298  0.0318 -0.0641  0.0468
18959TIP3    H178368   2.235   5.575  12.347  1.2223  0.1353 -1.0475
18959TIP3    H278369   2.105   5.507  12.309  0.2377  0.3440  1.7448
18960TIP3   OH278370   3.602   2.857  14.748  0.2599 -0.5210 -0.0537
18960TIP3    H178371   3.683   2.894  14.784 -0.4391  0.2193  0.8077
18960TIP3    H278372   3.619   2.763  14.740  0.8883 -0.5018  0.9743
18961TIP3   OH278373   5.469   2.246  11.018 -0.0924  0.0502 -0.7524
18961TIP3    H178374   5.399   2.296  11.059  1.0369  2.9965 -2.1430
18961TIP3    H278375   5.425   2.178  10.968 -1.6944 -0.6071  1.4153
18962TIP3   OH278376   3.235   5.662   0.535  0.3498  0.0519  0.1755
18962TIP3    H178377   3.323   5.672   0.500 -0.6196  1.9078 -1.9823
18962TIP3    H278378   3.237   5.578   0.581  2.5274 -1.2093 -2.0126
18963TIP3   OH278379   1.717   4.189   6.059 -0.0703 -0.7835  0.2078
18963TIP3    H178380   1.671   4.259   6.106  0.5802 -0.7857  0.8635
18963TIP3    H278381   1.802   4.182   6.103  1.6995  1.0435 -2.5902
18964TIP3   OH278382   5.005   5.895   1.104 -0.7416  0.1055  0.6055
18964TIP3    H178383   5.094   5.927   1.120 -0.3849  0.2023 -1.3300
18964TIP3    H278384   4.957   5.971   1.071 -1.0181 -0.3541 -0.0927
18965TIP3   OH278385   3.379   5.026  15.278 -0.7628 -0.2326  0.4065
18965TIP3    H178386   3.383   4.940  15.321  0.2753 -0.4183 -0.0267
18965TIP3    H278387   3.353   5.006  15.188  1.1184 -0.3160 -0.1752
18966TIP3   OH278388   3.742   2.654  15.166 -0.6388  0.5899  0.1750
18966TIP3    H178389   3.649   2.640  15.182 -0.4857  0.3075  0.8548
18966TIP3    H278390   3.772   2.573  15.125 -0.3154 -0.0916  1.6690
18967TIP3   OH278391   4.548   4.013   1.819  0.2393  0.3599  0.0002
18967TIP3    H178392   4.474   3.998   1.878  1.3029  0.1131  1.3284
18967TIP3    H278393   4.620   4.039   1.877  1.4913 -0.4578 -1.1206
18968TIP3   OH278394   1.097   0.376   5.392 -0.5136  0.7070  0.0275
18968TIP3    H178395   1.123   0.465   5.370 -0.5636  0.2038 -2.4533
18968TIP3    H278396   1.027   0.386   5.457 -0.2805  2.4386  0.0547
18969TIP3   OH278397   0.150   3.096   0.863  0.5845  0.1856 -0.5581
18969TIP3    H178398   0.079   3.035   0.881 -0.8196  2.2635  1.5057
18969TIP3    H278399   0.148   3.107   0.768  0.5571 -2.4471 -0.9423
18970TIP3   OH278400   1.849   1.907   0.258  0.4708 -0.2264 -0.3037
18970TIP3    H178401   1.903   1.915   0.180  1.7754  0.1668  0.6011
18970TIP3    H278402   1.853   1.814   0.280 -0.5142 -0.4704 -1.1097
18971TIP3   OH278403   1.505   3.270   0.797 -0.0953 -0.4888 -0.0125
18971TIP3    H178404   1.462   3.185   0.790 -0.1010 -0.6651  1.8034
18971TIP3    H278405   1.433   3.333   0.800 -0.1051 -0.4552 -0.7299
18972TIP3   OH278406   3.488   2.306  14.718 -0.2722 -0.4741 -0.4631
18972TIP3    H178407   3.453   2.391  14.743 -0.0140 -0.4127 -0.3094
18972TIP3    H278408   3.417   2.264  14.670 -0.9024 -0.7149  0.6256
18973TIP3   OH278409   4.823   4.349  16.490  0.1168 -0.0112  0.0793
18973TIP3    H178410   4.882   4.361  16.416 -1.9977  0.4129 -1.6230
18973TIP3    H278411   4.778   4.266  16.472  0.2811 -0.4214  1.4351
18974TIP3   OH278412   1.952   1.121   4.461 -0.4441  0.0657 -0.0374
18974TIP3    H178413   1.980   1.204   4.423 -1.0558  1.0211  1.4820
18974TIP3    H278414   1.859   1.133   4.477 -0.2164 -0.2517  1.7261
18975TIP3   OH278415   2.555   3.024  14.530 -0.2941  0.1884 -0.2434
18975TIP3    H178416   2.549   2.957  14.461 -0.6179 -2.1817  1.9296
18975TIP3    H278417   2.473   3.072  14.523 -0.5896 -0.4120 -1.1266
18976TIP3   OH278418   0.816   5.702  17.214  0.1079  0.1086  0.2462
18976TIP3    H178419   0.840   5.627  17.159  2.3252  0.8258  0.1329
18976TIP3    H278420   0.897   5.724  17.261 -0.8232  1.6521  1.2082
18977TIP3   OH278421   5.249   4.939  12.908 -0.2156 -0.0040  0.1111
18977TIP3    H178422   5.225   5.021  12.866 -2.2135 -0.6112 -0.0533
18977TIP3    H278423   5.285   4.885  12.837  0.8730  0.6061  0.1739
18978TIP3   OH278424   2.818   5.004  14.914  0.5529 -0.2971  0.2211
18978TIP3    H178425   2.754   4.942  14.950 -2.1568  1.4089 -1.2998
18978TIP3    H278426   2.783   5.090  14.937  1.0251  0.7586 -2.5982
18979TIP3   OH278427   0.504   6.767  13.245 -0.2306  0.0214 -0.7160
18979TIP3    H178428   0.430   6.720  13.206  0.7156 -0.4554 -2.0056
18979TIP3    H278429   0.544   6.814  13.173 -0.3820  1.8301  0.3237
18980TIP3   OH278430   2.349   3.806   2.753 -0.1445 -0.1875 -0.2179
18980TIP3    H178431   2.407   3.880   2.733  1.6364 -1.6075 -0.4363
18980TIP3    H278432   2.308   3.786   2.668 -1.3853  1.1103  0.0296
18981TIP3   OH278433   1.003   3.156  16.982  0.3226  0.2304  0.4967
18981TIP3    H178434   0.945   3.185  16.911 -0.2896  1.1916  1.3705
18981TIP3    H278435   1.005   3.230  17.043 -0.5105 -1.1829  2.3262
18982TIP3   OH278436   4.346   4.902  11.187 -0.5931 -0.3706  0.2920
18982TIP3    H178437   4.254   4.919  11.166 -0.9867 -1.8380  0.6746
18982TIP3    H278438   4.350   4.807  11.200  0.9868 -0.3333  0.2769
18983TIP3   OH278439   1.971   0.230   4.806 -0.0370  0.0514 -0.0835
18983TIP3    H178440   1.940   0.193   4.723  3.2788  0.7577 -1.8155
18983TIP3    H278441   1.895   0.228   4.864 -2.4621 -0.6132 -3.0823
18984TIP3   OH278442   2.843   1.624  15.165  0.1141  0.0770 -0.5094
18984TIP3    H178443   2.878   1.537  15.145 -0.3309 -0.1422 -0.3620
18984TIP3    H278444   2.780   1.608  15.236  0.3162  0.5781 -0.2134
18985TIP3   OH278445   2.267   2.833  15.112 -0.3456 -0.4391  0.2663
18985TIP3    H178446   2.350   2.798  15.081 -0.2258 -1.1250  1.3149
18985TIP3    H278447   2.265   2.923  15.079  0.5191 -0.6148 -0.2987
18986TIP3   OH278448   6.722   5.336  17.072 -0.8780  0.0722  0.4142
18986TIP3    H178449   6.674   5.300  16.998 -0.2751 -1.4670  0.7241
18986TIP3    H278450   6.655   5.355  17.138 -1.2534 -0.1618  0.0991
18987TIP3   OH278451   0.113   6.171   4.231  0.3561  0.0611  0.1054
18987TIP3    H178452   0.168   6.117   4.175  0.1780  1.8871 -1.9680
18987TIP3    H278453   0.133   6.261   4.205 -0.0664  1.0086  2.7228
18988TIP3   OH278454   1.947   4.829  13.989  0.4498 -0.5111 -0.0069
18988TIP3    H178455   1.999   4.859  13.916 -2.5303  0.8657 -1.7549
18988TIP3    H278456   1.874   4.782  13.949 -1.9705  1.3306  1.8920
18989TIP3   OH278457   5.190   6.795  14.748  0.1574  0.3538 -0.1637
18989TIP3    H178458   5.253   6.732  14.782  2.2813  1.4168 -1.8965
18989TIP3    H278459   5.187   6.778  14.654 -0.8368  1.4500 -0.3477
18990TIP3   OH278460   2.291   5.953  10.866 -0.5180  0.1447 -0.3744
18990TIP3    H178461   2.224   5.885  10.860  0.1597 -0.4587 -1.3483
18990TIP3    H278462   2.321   5.965  10.776 -0.7376  1.8650 -0.2416
18991TIP3   OH278463   5.507   0.944  13.013  0.0386 -0.1040 -0.0360
18991TIP3    H178464   5.599   0.954  13.035 -0.1834 -0.5413  1.1576
18991TIP3    H278465   5.489   1.015  12.951  0.9562  0.5275  0.4098
18992TIP3   OH278466   1.651   1.283  12.539  0.0195 -0.0729 -0.6200
18992TIP3    H178467   1.694   1.345  12.598  0.1282 -0.2113 -0.5526
18992TIP3    H278468   1.675   1.312  12.451 -1.7688  1.3573 -0.7034
18993TIP3   OH278469   2.920   6.254  12.360  0.1013 -0.2543 -0.1642
18993TIP3    H178470   2.837   6.228  12.400  0.0630  0.1198  0.0029
18993TIP3    H278471   2.983   6.190  12.393 -0.6231 -2.4479 -2.6224
18994TIP3   OH278472   4.513   2.889  13.977  0.9258 -0.2368  0.2299
18994TIP3    H178473   4.540   2.807  14.018  0.9136  0.6855  2.2024
18994TIP3    H278474   4.518   2.954  14.048 -1.4939  0.9813 -0.6072
18995TIP3   OH278475   4.940   0.790   0.964  0.0882  0.1695  0.7114
18995TIP3    H178476   5.001   0.811   1.035  1.1137  1.5740 -0.5260
18995TIP3    H278477   4.969   0.704   0.932  0.9973  0.5182  0.5807
18996TIP3   OH278478   6.533   2.062  14.479 -0.1555 -0.5558  0.0906
18996TIP3    H178479   6.558   2.152  14.459  0.3402 -0.0112  2.7660
18996TIP3    H278480   6.476   2.036  14.406  1.3900  1.1353 -1.8493
18997TIP3   OH278481   1.656   2.069   5.904 -0.1279 -0.2798  0.5023
18997TIP3    H178482   1.675   2.161   5.882 -0.4079 -0.3172  0.0701
18997TIP3    H278483   1.734   2.037   5.948  1.2059 -0.6932 -1.9759
18998TIP3   OH278484   0.145   6.655  16.792 -0.6437 -0.4548  0.1125
18998TIP3    H178485   0.182   6.688  16.711  0.9543  0.2428  1.0765
18998TIP3    H278486   0.077   6.719  16.815 -0.2850 -0.0036 -0.0661
18999TIP3   OH278487   1.378   2.845   2.790  0.5393  0.5267 -0.8622
18999TIP3    H178488   1.356   2.844   2.883  0.4700 -2.6892 -0.8078
18999TIP3    H278489   1.294   2.855   2.746  0.0232 -1.8692 -0.5470
19000TIP3   OH278490   1.724   2.335   5.551  0.5521 -0.1235  0.0510
19000TIP3    H178491   1.717   2.261   5.490 -0.4915 -0.7995  0.9521
19000TIP3    H278492   1.635   2.368   5.558  0.8380  0.5818  0.4533
19001TIP3   OH278493   0.491   0.813   0.783 -0.3134 -0.2430 -0.3837
19001TIP3    H178494   0.566   0.869   0.761  0.2301 -0.5280  0.6722
19001TIP3    H278495   0.484   0.818   0.878 -0.5328 -1.5959 -0.3046
19002TIP3   OH278496   6.476   4.321   5.400 -1.0318 -0.0399  0.1114
19002TIP3    H178497   6.559   4.290   5.364 -1.4803  0.2191 -1.2333
19002TIP3    H278498   6.499   4.355   5.486  0.4760  0.9890 -0.6347
19003TIP3   OH278499   2.627   4.166  16.363 -0.3217  0.6119 -0.1040
19003TIP3    H178500   2.571   4.161  16.285 -2.0405  1.4401  0.9973
19003TIP3    H278501   2.634   4.076  16.394 -0.6428  0.4250 -0.5589
19004TIP3   OH278502   4.373   3.463  13.257  0.0339  0.1605 -0.2648
19004TIP3    H178503   4.451   3.408  13.264  0.3922  0.6228 -0.5525
19004TIP3    H278504   4.390   3.536  13.317 -1.0239 -0.7021  1.1570
19005TIP3   OH278505   6.297   6.737  11.888  0.3477 -0.1198  0.1438
19005TIP3    H178506   6.330   6.765  11.974  0.7085 -1.2788  0.4017
19005TIP3    H278507   6.206   6.713  11.904  0.2602  0.1787  0.0894
19006TIP3   OH278508   4.945   0.849  16.496  0.3117 -0.3083 -0.7931
19006TIP3    H178509   4.914   0.931  16.459  1.2094  0.4762  0.1404
19006TIP3    H278510   5.022   0.826  16.445  0.2197 -0.4316 -0.8781
19007TIP3   OH278511   0.992   6.298  15.104  0.0865  0.1505  0.1690
19007TIP3    H178512   0.986   6.208  15.135  0.2516  0.2885  0.5966
19007TIP3    H278513   0.990   6.352  15.183  0.7975  0.4893 -0.0352
19008TIP3   OH278514   5.307   0.249  16.617  0.6373 -0.6159  0.8609
19008TIP3    H178515   5.352   0.306  16.554  0.4733 -0.8699  0.5132
19008TIP3    H278516   5.214   0.270  16.607  0.6578 -0.1741  1.5008
19009TIP3   OH278517   5.856   5.011  12.674 -0.1074  0.3978 -0.3092
19009TIP3    H178518   5.897   4.933  12.713  2.7286  0.6390 -2.4501
19009TIP3    H278519   5.812   4.978  12.596 -0.7413  0.6623 -0.0620
19010TIP3   OH278520   1.531   5.416   6.114 -0.1141 -0.3593  0.1583
19010TIP3    H178521   1.477   5.452   6.185 -0.3622 -0.1203 -0.1486
19010TIP3    H278522   1.488   5.447   6.034 -1.9114 -3.4625 -0.2481
19011TIP3   OH278523   4.164   3.087  13.647 -0.0723  0.4929 -0.1399
19011TIP3    H178524   4.246   3.063  13.689  1.3759  1.2010 -2.3776
19011TIP3    H278525   4.102   3.019  13.673  1.5721 -0.7711  0.5951
19012TIP3   OH278526   4.401   0.271   3.492  0.7093  0.4398 -0.1402
19012TIP3    H178527   4.321   0.220   3.484  0.6318  0.7626 -1.6489
19012TIP3    H278528   4.440   0.241   3.575 -2.0961  1.9555  1.8763
19013TIP3   OH278529   5.491   0.656  15.815  0.2482  0.2726  0.6544
19013TIP3    H178530   5.430   0.674  15.744 -1.3146 -0.7527  1.6705
19013TIP3    H278531   5.574   0.637  15.771 -0.5699  0.0650 -0.8639
19014TIP3   OH278532   3.376   4.743  15.404  0.2384  0.1584 -0.3587
19014TIP3    H178533   3.352   4.662  15.450  0.1126  0.1252 -0.4805
19014TIP3    H278534   3.376   4.718  15.311 -0.6455  0.5097 -0.4611
19015TIP3   OH278535   3.369   4.944  13.870  0.1754 -0.3028 -0.1203
19015TIP3    H178536   3.461   4.945  13.899  0.5193  0.0347 -1.1547
19015TIP3    H278537   3.374   4.916  13.778 -0.8428 -1.1198  0.0642
19016TIP3   OH278538   0.938   1.853   3.118 -0.6528 -0.0196 -0.5859
19016TIP3    H178539   0.925   1.882   3.209 -0.7715 -0.8755 -0.3208
19016TIP3    H278540   0.850   1.830   3.088 -0.6049  0.2056 -0.9025
19017TIP3   OH278541   5.834   1.318  13.336 -0.1087  0.1058  0.1994
19017TIP3    H178542   5.836   1.299  13.243  0.4797  0.7955  0.0665
19017TIP3    H278543   5.761   1.379  13.347  0.7095  1.1415 -0.0330
19018TIP3   OH278544   1.378   1.525  16.802 -0.0002  0.0392  0.8378
19018TIP3    H178545   1.379   1.516  16.897 -0.1015 -0.7536  0.7711
19018TIP3    H278546   1.470   1.530  16.777  0.0372 -0.1037  0.9471
19019TIP3   OH278547   3.546   0.566   1.771 -0.6621  0.2193  0.2656
19019TIP3    H178548   3.584   0.576   1.684  1.0653  0.7019  1.0430
19019TIP3    H278549   3.454   0.589   1.759 -0.2042  1.4532 -1.2122
19020TIP3   OH278550   4.486   2.507   2.184 -0.2977 -0.1484 -0.4551
19020TIP3    H178551   4.401   2.496   2.228 -0.2612  0.7694 -0.1226
19020TIP3    H278552   4.465   2.554   2.103  0.0054  1.1644  0.1945
19021TIP3   OH278553   5.624   0.707  14.359  0.0474 -0.0748  0.2869
19021TIP3    H178554   5.587   0.619  14.367  0.9765 -0.3774  1.5296
19021TIP3    H278555   5.679   0.703  14.281 -1.0074 -0.1702 -0.4739
19022TIP3   OH278556   0.792   2.311   0.750 -0.0568 -0.0694  0.0963
19022TIP3    H178557   0.801   2.373   0.679 -0.4526  0.2700  0.3360
19022TIP3    H278558   0.697   2.300   0.761 -0.0036 -1.7933 -0.8710
19023TIP3   OH278559   4.319   3.752   4.222  0.1608  0.4182  0.2720
19023TIP3    H178560   4.239   3.804   4.229 -0.9216 -1.0095 -0.9042
19023TIP3    H278561   4.375   3.803   4.163 -0.6678  0.5379 -0.4380
19024TIP3   OH278562   3.942   3.477  14.762 -0.4253 -1.1060  0.0195
19024TIP3    H178563   3.885   3.503  14.690 -0.8583 -0.3609  0.6125
19024TIP3    H278564   4.030   3.501  14.732 -0.8315  1.6104  0.7028
19025TIP3   OH278565   3.212   1.636  11.016 -0.3219  0.1087 -0.1986
19025TIP3    H178566   3.214   1.719  10.969 -2.6563  0.8471  0.8474
19025TIP3    H278567   3.188   1.571  10.950 -2.3162  0.9260 -0.3372
19026TIP3   OH278568   5.500   4.220  16.639  0.4740 -0.0654 -0.0215
19026TIP3    H178569   5.434   4.162  16.677  2.5866 -2.4864  0.2118
19026TIP3    H278570   5.469   4.308  16.659 -1.8560 -1.1238  1.4300
19027TIP3   OH278571   6.817   4.950   5.509 -0.2661 -0.5527  0.2520
19027TIP3    H178572   6.829   5.045   5.509  1.3897 -0.7390  0.0533
19027TIP3    H278573   6.788   4.929   5.598 -2.1091  0.2699 -0.1081
19028TIP3   OH278574   1.032   1.229   0.822  0.3529  0.0997  0.2097
19028TIP3    H178575   1.048   1.314   0.863 -1.6866 -0.4294  2.2857
19028TIP3    H278576   1.103   1.174   0.855  1.6245  0.9209 -1.0593
19029TIP3   OH278577   5.521   3.618   0.145 -0.0102 -0.3405 -0.2137
19029TIP3    H178578   5.606   3.622   0.102  0.2968  1.2367  0.4747
19029TIP3    H278579   5.462   3.666   0.087  0.1942  0.9594  0.6212
19030TIP3   OH278580   6.474   0.373  13.641 -0.4719  0.1264 -0.0129
19030TIP3    H178581   6.498   0.333  13.557 -1.1137  0.2819 -0.2791
19030TIP3    H278582   6.499   0.307  13.706 -0.0251 -0.0226 -0.3302
19031TIP3   OH278583   4.017   0.009  16.705  0.4007 -0.5003  0.1144
19031TIP3    H178584   4.014  -0.025  16.616  0.9931 -1.6669  0.5213
19031TIP3    H278585   4.027   0.104  16.694 -0.8448 -0.4781 -1.0433
19032TIP3   OH278586   1.450   3.767   0.768 -0.0273 -0.3374 -0.2576
19032TIP3    H178587   1.459   3.797   0.859 -0.0182 -1.3980  0.1090
19032TIP3    H278588   1.449   3.847   0.716  0.9192  0.2511  0.5962
19033TIP3   OH278589   4.995   0.242   4.118 -0.0533  0.2844 -0.2435
19033TIP3    H178590   5.055   0.188   4.067  0.5399  0.0631  0.6563
19033TIP3    H278591   4.936   0.280   4.054 -0.6510 -1.6276 -0.9032
19034TIP3   OH278592   1.578   0.920  14.555  0.0148  0.0053 -0.6131
19034TIP3    H178593   1.576   1.000  14.608  0.5507 -0.4919  0.1801
19034TIP3    H278594   1.592   0.951  14.466 -0.7028  0.8532 -0.4509
19035TIP3   OH278595   6.474   2.209  13.365 -0.1480 -0.0695 -0.3420
19035TIP3    H178596   6.469   2.222  13.271 -0.4720 -2.6838 -0.7306
19035TIP3    H278597   6.540   2.141  13.377  0.9346  1.1895  1.4603
19036TIP3   OH278598   6.518   2.748   2.745  0.0849 -0.4897 -0.2061
19036TIP3    H178599   6.534   2.676   2.806 -1.4289 -1.8358 -1.3039
19036TIP3    H278600   6.442   2.720   2.693 -0.5517  1.8923 -0.7144
19037TIP3   OH278601   3.487   0.008   3.115  0.3153 -0.7045  0.0244
19037TIP3    H178602   3.398  -0.007   3.083 -0.1015  1.0834  0.2577
19037TIP3    H278603   3.536   0.037   3.039  0.5447 -1.0492  0.0361
19038TIP3   OH278604   1.818   5.005  11.966  0.0833  0.1300 -0.0182
19038TIP3    H178605   1.772   5.089  11.966 -0.0175  0.0965  1.0321
19038TIP3    H278606   1.858   4.999  11.879  1.2423  1.9251  0.3240
19039TIP3   OH278607   5.344   2.180  13.353  0.2525 -0.4208  0.2659
19039TIP3    H178608   5.261   2.151  13.389 -0.0180 -0.7138 -0.5792
19039TIP3    H278609   5.397   2.100  13.346  0.3030 -0.3671  0.0176
19040TIP3   OH278610   4.851   0.076  11.094 -0.1378  0.4341  0.4740
19040TIP3    H178611   4.779   0.111  11.146  0.0724 -0.7549  1.6360
19040TIP3    H278612   4.876  -0.005  11.139  1.0067  0.0952 -0.6922
19041TIP3   OH278613   1.785   3.126  16.789  0.0055  0.5609  0.3880
19041TIP3    H178614   1.875   3.159  16.788 -0.0673  0.8339  1.9001
19041TIP3    H278615   1.755   3.138  16.879 -1.5274  0.3969 -0.0710
19042TIP3   OH278616   2.347   6.486   5.155  0.0553  0.6084  0.2440
19042TIP3    H178617   2.292   6.544   5.102 -0.2917 -0.7475 -0.9271
19042TIP3    H278618   2.332   6.516   5.245 -2.4175  0.4824 -0.0470
19043TIP3   OH278619   2.269   3.506  12.774 -0.7870 -0.2013 -0.6690
19043TIP3    H178620   2.203   3.574  12.791 -1.1485 -0.7602  0.2296
19043TIP3    H278621   2.347   3.537  12.821 -0.1052  0.8663 -2.3895
19044TIP3   OH278622   1.894   1.939   3.044  0.3492  0.0818  0.5345
19044TIP3    H178623   1.988   1.953   3.061  1.0306 -1.6610 -1.3913
19044TIP3    H278624   1.890   1.919   2.950 -2.2619  2.3017  0.0490
19045TIP3   OH278625   2.991   1.553   4.843  0.1449  0.0048  0.1205
19045TIP3    H178626   2.958   1.510   4.922 -0.5934 -2.5599 -1.4478
19045TIP3    H278627   3.085   1.538   4.845  0.0871 -0.3335  0.3532
19046TIP3   OH278628   2.764   3.948  14.037  0.2304  0.6513 -0.1089
19046TIP3    H178629   2.770   3.982  14.126  0.6260 -0.1933  0.1860
19046TIP3    H278630   2.854   3.928  14.012 -0.1299 -2.1106  0.4913
19047TIP3   OH278631   3.927   1.405   4.225  0.1737  0.3135 -0.0737
19047TIP3    H178632   4.018   1.421   4.203  0.5226 -0.2333  0.9199
19047TIP3    H278633   3.880   1.479   4.189  0.8560  0.0287 -1.6114
19048TIP3   OH278634   0.146   5.058  16.143 -0.3164  0.0071 -0.2749
19048TIP3    H178635   0.101   5.018  16.217 -0.7350  0.5396 -0.2287
19048TIP3    H278636   0.233   5.079  16.176 -0.8069  1.1056  0.3765
19049TIP3   OH278637   2.311   4.112   0.537  0.2556 -0.1254 -0.3202
19049TIP3    H178638   2.396   4.138   0.571  0.1455 -0.5802  0.3151
19049TIP3    H278639   2.249   4.135   0.606 -0.0334 -0.5937 -0.4197
19050TIP3   OH278640   3.942   5.086   3.203 -0.3910  0.3599  0.9551
19050TIP3    H178641   3.878   5.046   3.262  1.6168 -4.3619  0.3698
19050TIP3    H278642   4.027   5.065   3.241  0.9137 -0.0569 -1.9119
19051TIP3   OH278643   2.969   6.528   2.447  0.1883  0.0766  0.2752
19051TIP3    H178644   2.934   6.580   2.519 -0.9064 -0.5532  0.2241
19051TIP3    H278645   3.042   6.580   2.413 -0.5748  1.3543  0.5131
19052TIP3   OH278646   5.886   1.852  14.253  0.7183 -0.2938 -0.4284
19052TIP3    H178647   5.888   1.759  14.277  2.0956 -0.5660 -1.4574
19052TIP3    H278648   5.872   1.898  14.335 -1.0665 -1.4457 -0.0373
19053TIP3   OH278649   5.847   6.115   3.495 -0.3652 -0.0072 -0.3062
19053TIP3    H178650   5.836   6.199   3.451  1.6710 -0.6149 -2.1449
19053TIP3    H278651   5.897   6.062   3.434 -0.2270 -2.0477  1.4544
19054TIP3   OH278652   1.852   3.134  10.993 -0.1155  0.0699  0.1403
19054TIP3    H178653   1.833   3.041  10.992  1.2187 -0.2120 -0.0506
19054TIP3    H278654   1.823   3.163  11.080 -0.4743 -0.5236  0.2237
19055TIP3   OH278655   6.549   5.738   0.982  0.2638  0.0769 -0.0405
19055TIP3    H178656   6.621   5.739   0.919 -1.5628  0.3274 -2.2660
19055TIP3    H278657   6.488   5.805   0.951 -1.0198 -0.1980  1.6808
19056TIP3   OH278658   3.598   5.975  12.315 -0.0840 -0.1950 -0.1699
19056TIP3    H178659   3.687   5.941  12.305 -0.6692 -2.0070  0.3291
19056TIP3    H278660   3.602   6.029  12.395  0.4672 -0.6193  0.0952
19057TIP3   OH278661   6.729   4.056  12.637  0.0484  0.3327 -0.3136
19057TIP3    H178662   6.801   4.099  12.591  0.3535  1.7362  1.3499
19057TIP3    H278663   6.770   3.984  12.685  0.1191  0.3147 -0.4007
19058TIP3   OH278664   0.753   2.620  14.731 -0.3559  0.0543  0.1302
19058TIP3    H178665   0.827   2.626  14.671 -1.5454  2.8522 -1.2385
19058TIP3    H278666   0.693   2.559  14.689 -0.2129  0.2561 -0.3692
19059TIP3   OH278667   2.935   0.011  14.428 -0.7667  0.2302  0.0273
19059TIP3    H178668   2.889   0.073  14.372  0.5944  0.0294 -1.3757
19059TIP3    H278669   2.885  -0.070  14.421  0.1775 -0.2193 -2.1171
19060TIP3   OH278670   1.015   1.955  16.772 -0.1051  0.3385 -0.0382
19060TIP3    H178671   0.998   1.863  16.789  0.4249  0.2098 -0.1821
19060TIP3    H278672   1.071   1.955  16.694 -2.0165  0.8848 -1.5023
19061TIP3   OH278673   5.313   5.787  13.758  0.2237  0.0196 -0.1909
19061TIP3    H178674   5.299   5.753  13.846  1.0266  0.2652  0.0452
19061TIP3    H278675   5.284   5.717  13.700 -1.3843  0.2912  0.2461
19062TIP3   OH278676   0.115   1.953  11.669 -0.6850  0.3984  0.3270
19062TIP3    H178677   0.123   2.045  11.645 -1.4801  0.1410 -0.9909
19062TIP3    H278678   0.098   1.955  11.763  0.7421  1.5200  0.5936
19063TIP3   OH278679   5.568   0.580  11.968 -0.3899 -0.1454  0.4172
19063TIP3    H178680   5.600   0.514  11.905 -0.3184 -0.1919  0.5023
19063TIP3    H278681   5.503   0.630  11.919 -0.9332 -0.7131  0.5590
19064TIP3   OH278682   0.469   0.140  15.852 -0.3586 -0.0846 -0.4470
19064TIP3    H178683   0.407   0.134  15.924 -0.1595  2.5989  0.0379
19064TIP3    H278684   0.555   0.144  15.894 -0.0738 -0.6973 -0.9558
19065TIP3   OH278685   0.591   3.662  13.736  0.0147 -0.3405 -0.5082
19065TIP3    H178686   0.665   3.695  13.686  1.3842  1.8268  2.6414
19065TIP3    H278687   0.560   3.586  13.687  0.8016  1.8514 -4.8445
19066TIP3   OH278688   2.713   6.499  10.707  0.0856  0.4885  0.3262
19066TIP3    H178689   2.625   6.498  10.744  1.3395  0.6758  3.6230
19066TIP3    H278690   2.750   6.414  10.731  0.8005  0.3148 -1.2375
19067TIP3   OH278691   2.011   2.228   4.528 -0.0567  0.0112 -0.4698
19067TIP3    H178692   1.994   2.210   4.436 -0.0164 -0.6755 -0.3447
19067TIP3    H278693   2.093   2.181   4.546  0.4477  0.9136 -0.3245
19068TIP3   OH278694   4.837   2.187  11.049  0.0875 -0.5413  0.1085
19068TIP3    H178695   4.867   2.137  10.973  2.6336 -1.3792  1.5376
19068TIP3    H278696   4.848   2.279  11.023  3.5294 -0.7801  0.2446
19069TIP3   OH278697   0.851   2.474  13.470  0.1013  0.1188  0.3657
19069TIP3    H178698   0.771   2.443  13.427 -1.6236  2.6613  1.4454
19069TIP3    H278699   0.912   2.490  13.398 -0.6892 -0.9678 -0.5851
19070TIP3   OH278700   6.327   6.210   2.797 -0.1255  0.5474 -0.2643
19070TIP3    H178701   6.319   6.138   2.735 -1.0402 -1.5170  2.0364
19070TIP3    H278702   6.255   6.269   2.775  0.1540  0.3777 -1.7189
19071TIP3   OH278703   0.474   3.677   2.885 -0.8000 -0.3316 -0.2467
19071TIP3    H178704   0.490   3.772   2.883 -1.8263 -0.1241 -3.0370
19071TIP3    H278705   0.559   3.638   2.869 -0.4702  0.1372  0.3292
19072TIP3   OH278706   0.247   5.780  13.204  0.3312  0.7983 -0.7559
19072TIP3    H178707   0.229   5.793  13.111  1.3063 -0.3251 -1.1250
19072TIP3    H278708   0.161   5.766  13.243 -0.1028  1.4357 -1.4660
19073TIP3   OH278709   4.002   0.522  16.391 -0.0941 -0.0208 -0.3313
19073TIP3    H178710   3.976   0.527  16.483  0.4295  0.8412 -0.2153
19073TIP3    H278711   3.923   0.495  16.345 -1.1978  2.3145  0.0375
19074TIP3   OH278712   5.613   1.417   5.166  0.2218 -1.0611  0.0837
19074TIP3    H178713   5.570   1.341   5.204 -2.5049  0.2544 -0.1018
19074TIP3    H278714   5.588   1.490   5.224  0.5439  0.0856 -1.1639
19075TIP3   OH278715   6.057   3.407  14.016  0.0990  0.3709  0.2652
19075TIP3    H178716   6.121   3.452  14.072  1.4633 -2.5244  1.1867
19075TIP3    H278717   5.984   3.469  14.009  2.0904  2.9600  0.8873
19076TIP3   OH278718   4.904   3.904   5.671  0.1110  0.5700  0.1244
19076TIP3    H178719   4.950   3.980   5.706 -0.0718  0.0369  1.6037
19076TIP3    H278720   4.972   3.851   5.630  0.8420 -0.0975  2.0800
19077TIP3   OH278721   3.277   3.389   6.166  1.0332 -0.3654  0.8907
19077TIP3    H178722   3.232   3.444   6.230 -1.1112 -0.3972 -0.4692
19077TIP3    H278723   3.267   3.300   6.199  0.9110 -0.2873  1.0607
19078TIP3   OH278724   2.406   5.702  11.505 -0.2471  0.1312  0.0721
19078TIP3    H178725   2.430   5.658  11.587 -0.3350 -0.7381 -0.3562
19078TIP3    H278726   2.323   5.746  11.525  0.3148  0.8898  0.7747
19079TIP3   OH278727   5.245   1.669  16.070  0.1612  0.2235 -0.0872
19079TIP3    H178728   5.170   1.611  16.077 -1.1090  1.9122  1.5688
19079TIP3    H278729   5.306   1.623  16.013 -2.2662 -1.0585 -1.8611
19080TIP3   OH278730   2.062   0.315  10.747  0.8106  0.1260  0.8645
19080TIP3    H178731   2.021   0.377  10.686 -0.1902 -0.2908  1.0946
19080TIP3    H278732   1.999   0.243  10.754  0.9382  0.1260  2.3285
19081TIP3   OH278733   0.214   6.676  13.365 -0.0880  0.1358  0.1832
19081TIP3    H178734   0.295   6.681  13.415  0.5421  2.9541 -0.9290
19081TIP3    H278735   0.153   6.631  13.423  1.1619  1.4781  2.7161
19082TIP3   OH278736   2.054   3.469  12.416  0.2315  0.1079  0.4018
19082TIP3    H178737   1.978   3.415  12.394 -0.1466  0.4758  0.7805
19082TIP3    H278738   2.032   3.556  12.385  1.4335 -0.2144 -1.4903
19083TIP3   OH278739   6.754   4.599   2.071 -0.1587  0.2332 -0.1129
19083TIP3    H178740   6.826   4.661   2.061 -0.3283  0.5715  0.6859
19083TIP3    H278741   6.753   4.577   2.164 -0.8018 -0.1101 -0.1918
19084TIP3   OH278742   4.321   5.280  10.478  0.0610 -0.3077  0.3606
19084TIP3    H178743   4.385   5.257  10.546 -0.9935 -1.1642  1.0996
19084TIP3    H278744   4.332   5.211  10.412  0.9536  0.4182 -0.2740
19085TIP3   OH278745   0.683   1.690   4.517  0.3284  0.2899  0.1288
19085TIP3    H178746   0.667   1.649   4.432 -0.2093  1.2254 -0.2362
19085TIP3    H278747   0.643   1.630   4.580 -1.4273  0.7500 -0.4854
19086TIP3   OH278748   6.213   4.629   2.062  0.1419 -0.0562  0.4119
19086TIP3    H178749   6.216   4.534   2.077  0.6147  0.0920  1.2985
19086TIP3    H278750   6.129   4.656   2.098  0.1471 -0.0845  0.4447
19087TIP3   OH278751   5.196   6.314  10.593  0.2480 -0.2971 -0.1265
19087TIP3    H178752   5.129   6.275  10.649  0.0852  0.2271  0.0514
19087TIP3    H278753   5.161   6.305  10.504 -0.7686  1.3045  0.0761
19088TIP3   OH278754   3.270   0.971  16.201 -0.5026  0.5001 -0.4112
19088TIP3    H178755   3.280   0.900  16.138 -1.0708 -0.2642  0.3274
19088TIP3    H278756   3.198   1.024  16.167 -0.8447  0.0597 -0.3863
19089TIP3   OH278757   6.426   2.113  13.980 -0.1978  0.4521  0.1254
19089TIP3    H178758   6.341   2.083  13.947  0.1577 -0.9629  0.4233
19089TIP3    H278759   6.450   2.185  13.923 -1.4971  0.7225 -0.1104
19090TIP3   OH278760   2.413   5.618   5.522  0.3099 -0.3777 -0.0175
19090TIP3    H178761   2.402   5.639   5.429 -1.1053  1.7518  0.5666
19090TIP3    H278762   2.467   5.690   5.556  1.2740 -1.4196  0.7404
19091TIP3   OH278763   2.688   3.014  12.279  0.1393  0.4828  0.0568
19091TIP3    H178764   2.597   3.034  12.304  0.6218  0.6727  1.7505
19091TIP3    H278765   2.717   2.950  12.344  1.0608  0.0297 -0.7852
19092TIP3   OH278766   1.730   1.401  11.083  0.1822 -0.1208 -0.0071
19092TIP3    H178767   1.760   1.391  11.173 -1.2396  0.4279  0.5541
19092TIP3    H278768   1.769   1.327  11.036  0.1456 -0.9606  1.2630
19093TIP3   OH278769   0.981   0.404   2.527 -0.1440  0.5333 -0.1567
19093TIP3    H178770   1.019   0.428   2.442  0.7942 -0.2731  0.0350
19093TIP3    H278771   0.891   0.377   2.505 -0.6031  2.2790 -0.6238
19094TIP3   OH278772   6.220   4.466  11.733 -0.4369 -0.2086  0.1137
19094TIP3    H178773   6.193   4.389  11.684 -2.9156  1.2543 -0.9921
19094TIP3    H278774   6.145   4.488  11.788  0.0982  1.5609  0.2094
19095TIP3   OH278775   5.095   1.034  15.466  0.2525  0.1444  0.3091
19095TIP3    H178776   5.075   0.995  15.380 -0.4693  0.5000  0.3190
19095TIP3    H278777   5.169   0.982  15.498 -0.0983 -0.6252 -0.0974
19096TIP3   OH278778   6.516   0.916  15.171 -0.5598  0.2149  0.0765
19096TIP3    H178779   6.470   0.841  15.135 -1.7119  1.2209 -0.6365
19096TIP3    H278780   6.579   0.941  15.102 -0.0512 -0.1894  0.3871
19097TIP3   OH278781   5.187   4.725  12.302  0.2060  0.2069  0.6411
19097TIP3    H178782   5.133   4.745  12.379  0.4459  2.4969  0.2762
19097TIP3    H278783   5.140   4.763  12.229 -0.0709 -2.0507 -0.4425
19098TIP3   OH278784   3.944   3.737   4.585  0.1995  0.2079  0.6461
19098TIP3    H178785   3.925   3.646   4.563  1.9563 -0.1755  0.5574
19098TIP3    H278786   4.004   3.766   4.516  0.9888  0.8921  1.5962
19099TIP3   OH278787   5.558   3.103   1.463 -0.2666 -0.1194  0.0473
19099TIP3    H178788   5.479   3.134   1.508 -0.7436 -0.7503 -0.3337
19099TIP3    H278789   5.624   3.169   1.483 -1.0665  0.7825 -0.1946
19100TIP3   OH278790   3.818   4.910  17.235 -0.2940 -0.0101 -0.0134
19100TIP3    H178791   3.739   4.867  17.204  0.1726  0.1255 -1.4421
19100TIP3    H278792   3.811   5.000  17.202  0.3659  0.0541  0.0132
19101TIP3   OH278793   2.560   3.266   3.908 -0.0104  0.3445 -0.2113
19101TIP3    H178794   2.525   3.343   3.952  0.1955  0.0238  0.5222
19101TIP3    H278795   2.552   3.195   3.972 -0.4407 -0.3089 -0.9605
19102TIP3   OH278796   0.638   2.407   1.991 -0.1191  0.0630  0.3569
19102TIP3    H178797   0.559   2.356   1.972  1.3222 -1.9969 -0.4026
19102TIP3    H278798   0.612   2.498   1.974 -1.7577 -0.7326 -1.9022
19103TIP3   OH278799   3.828   5.672   0.339  0.0666  0.2809 -0.5667
19103TIP3    H178800   3.867   5.749   0.380  2.0684 -1.0424  0.1793
19103TIP3    H278801   3.815   5.698   0.248 -0.4700  1.8792 -0.0687
19104TIP3   OH278802   5.061   6.531  17.020 -0.4169 -0.3387 -0.5921
19104TIP3    H178803   5.071   6.562  16.930 -2.1647 -0.6487 -0.9370
19104TIP3    H278804   4.995   6.462  17.015  0.0835 -0.9681  0.8147
19105TIP3   OH278805   0.217   4.627   3.242  0.2191  0.1044  0.6334
19105TIP3    H178806   0.251   4.537   3.243 -0.3117 -0.0993  0.9642
19105TIP3    H278807   0.164   4.631   3.162 -0.4146 -0.1375  1.0299
19106TIP3   OH278808   4.269   0.648  13.343  0.4293 -0.1717  0.3249
19106TIP3    H178809   4.328   0.652  13.418  0.4575 -1.2655  0.3777
19106TIP3    H278810   4.182   0.635  13.381  0.3053  0.2610  0.1987
19107TIP3   OH278811   2.204   2.207   0.794 -0.1875  0.2978 -0.5785
19107TIP3    H178812   2.109   2.202   0.782 -0.1091  0.1207 -1.1555
19107TIP3    H278813   2.216   2.281   0.854 -0.6014  1.4089 -1.8023
19108TIP3   OH278814   4.832   5.078  12.004 -0.2427 -0.0950  0.2725
19108TIP3    H178815   4.903   5.115  11.951 -0.6456 -1.3739 -1.2538
19108TIP3    H278816   4.871   5.063  12.090  1.8921 -2.2290 -0.9501
19109TIP3   OH278817   1.057   3.378   4.374  0.0473  0.0080 -0.4249
19109TIP3    H178818   1.107   3.459   4.385  1.3309 -0.8142  0.0823
19109TIP3    H278819   1.087   3.343   4.290 -1.1514  0.4742 -1.0659
19110TIP3   OH278820   3.901   1.145   3.384 -0.4888 -0.0094 -0.0862
19110TIP3    H178821   3.935   1.073   3.437 -0.0710  0.9723  1.0080
19110TIP3    H278822   3.977   1.174   3.333 -0.3587  0.3964  0.3302
19111TIP3   OH278823   4.517   5.207  14.455  0.2457  0.3563  0.3775
19111TIP3    H178824   4.560   5.285  14.489  2.3877 -1.4868  2.1920
19111TIP3    H278825   4.534   5.210  14.360  0.6391  1.8494  0.4739
19112TIP3   OH278826   2.540   3.811   4.883  0.1792 -0.2431  0.2915
19112TIP3    H178827   2.618   3.784   4.931  0.3749  0.3977  0.3351
19112TIP3    H278828   2.467   3.789   4.942  0.4575  1.2763  1.2671
19113TIP3   OH278829   2.501   0.449   5.524 -0.0805 -0.3284 -0.4178
19113TIP3    H178830   2.532   0.464   5.613 -2.1472 -1.2818  0.5367
19113TIP3    H278831   2.550   0.511   5.470  0.5052  0.9810  1.5218
19114TIP3   OH278832   5.941   0.564   3.333 -0.0654 -0.4940 -0.1487
19114TIP3    H178833   5.973   0.507   3.402  0.7843 -1.1670 -1.0766
19114TIP3    H278834   5.923   0.505   3.259 -0.7513  0.2304 -0.5761
19115TIP3   OH278835   4.454   5.628   2.311  0.3421  0.3529 -0.1856
19115TIP3    H178836   4.389   5.664   2.251  0.2207  0.6897  0.1411
19115TIP3    H278837   4.484   5.547   2.269  0.6978  0.8852 -0.9776
19116TIP3   OH278838   6.661   4.528  13.615 -0.1294 -0.3147 -0.1616
19116TIP3    H178839   6.730   4.466  13.639 -2.2778 -2.7490  0.1021
19116TIP3    H278840   6.707   4.598  13.569  2.6121 -1.3385  0.8249
19117TIP3   OH278841   4.538   2.183  15.778  0.0854 -0.8601 -0.8274
19117TIP3    H178842   4.463   2.242  15.787  0.9987  0.3361 -0.7585
19117TIP3    H278843   4.515   2.127  15.704 -1.1613 -0.9849 -0.3827
19118TIP3   OH278844   5.297   0.761  12.036  0.3968  0.1803  0.2250
19118TIP3    H178845   5.344   0.741  11.955  1.8850 -1.4113  1.4118
19118TIP3    H278846   5.366   0.778  12.101 -0.7286  0.3239  1.4387
19119TIP3   OH278847   3.548   4.247   0.082  0.0840 -0.0014  0.0549
19119TIP3    H178848   3.582   4.319   0.029 -2.5006 -0.2334 -2.1465
19119TIP3    H278849   3.477   4.287   0.133  0.0796 -0.5541  0.4883
19120TIP3   OH278850   4.334   6.544   2.423  0.1635  0.3476  0.1417
19120TIP3    H178851   4.358   6.543   2.516  0.0540 -0.4388  0.1629
19120TIP3    H278852   4.416   6.525   2.377  0.0559 -0.0439  0.1116
19121TIP3   OH278853   4.671   6.069   3.672  0.6470  0.5893 -0.2943
19121TIP3    H178854   4.607   6.015   3.718  0.9153  0.4200 -0.1173
19121TIP3    H278855   4.626   6.097   3.592  0.7858 -0.5693 -0.7958
19122TIP3   OH278856   1.932   1.471  14.895  0.9809 -0.2036  0.2481
19122TIP3    H178857   1.916   1.477  14.801  0.4731 -0.6254  0.3029
19122TIP3    H278858   2.022   1.438  14.901  0.0792 -3.0249 -0.1619
19123TIP3   OH278859   6.388   2.806   1.693  0.1136 -0.0059 -0.0437
19123TIP3    H178860   6.396   2.772   1.783  0.8878 -1.7143 -0.7094
19123TIP3    H278861   6.332   2.883   1.702 -1.1956 -1.0634  1.6959
19124TIP3   OH278862   5.274   0.823  16.895 -0.2258  0.5077  0.4738
19124TIP3    H178863   5.235   0.900  16.854 -0.2518  0.0467 -0.3713
19124TIP3    H278864   5.246   0.829  16.987 -0.4372  1.3633  0.3686
19125TIP3   OH278865   4.042   5.957   4.204 -0.0197 -0.4778 -0.5045
19125TIP3    H178866   4.090   5.944   4.123 -0.2429 -0.7032 -0.5997
19125TIP3    H278867   3.950   5.943   4.181 -0.1812  0.3873 -0.4235
19126TIP3   OH278868   3.506   5.214   0.857 -0.4679  0.3795  0.2378
19126TIP3    H178869   3.559   5.136   0.869 -1.4655 -0.1902  1.0870
19126TIP3    H278870   3.569   5.284   0.841  0.5280 -0.2843  1.1577
19127TIP3   OH278871   0.734   1.227   1.295 -0.0199  0.7542 -0.2572
19127TIP3    H178872   0.711   1.166   1.366  0.5669  0.6236 -0.1779
19127TIP3    H278873   0.722   1.175   1.215  1.0616  0.3348 -0.1618
19128TIP3   OH278874   5.993   3.356  15.984  0.1048  0.3258  0.2612
19128TIP3    H178875   5.957   3.340  16.071  2.7716 -0.0244  1.4078
19128TIP3    H278876   6.000   3.451  15.978 -3.0790  0.6110 -1.0035
19129TIP3   OH278877   0.877   1.313  12.251  0.1560  0.0481  0.2696
19129TIP3    H178878   0.885   1.308  12.156 -0.9487 -1.3368  0.2219
19129TIP3    H278879   0.880   1.407  12.271 -0.0815  0.3741 -1.1611
19130TIP3   OH278880   2.949   5.641  10.393 -0.7004  0.6050 -0.2284
19130TIP3    H178881   2.935   5.706  10.324 -0.1479  0.4374 -0.5068
19130TIP3    H278882   3.000   5.572  10.350 -1.8126 -0.3137 -0.1096
19131TIP3   OH278883   2.236   5.353  13.079  0.5841  0.1765 -0.3905
19131TIP3    H178884   2.273   5.351  13.167  1.7300  2.2843 -0.7607
19131TIP3    H278885   2.218   5.445  13.062 -0.2939 -0.2671 -2.1115
19132TIP3   OH278886   0.664   2.802   5.891 -0.0376 -0.5931 -0.3562
19132TIP3    H178887   0.711   2.752   5.957  0.9162 -0.1171 -0.6593
19132TIP3    H278888   0.572   2.779   5.905  0.3806 -2.7514 -0.7423
19133TIP3   OH278889   6.816   6.197  11.939  0.1206  0.1645 -0.2993
19133TIP3    H178890   6.771   6.265  11.888 -0.3680  0.4863  0.5354
19133TIP3    H278891   6.840   6.241  12.021  0.4511 -0.4746 -0.0490
19134TIP3   OH278892   4.771   4.476  15.205  0.3233 -0.7538  0.5581
19134TIP3    H178893   4.733   4.561  15.184 -1.0253 -1.4939 -0.1474
19134TIP3    H278894   4.831   4.493  15.278  1.1282  1.0229 -0.4446
19135TIP3   OH278895   3.053   0.615   3.186  0.2258  0.4584 -0.2423
19135TIP3    H178896   3.008   0.629   3.269  0.1015  2.0098 -0.5447
19135TIP3    H278897   2.991   0.565   3.133  1.3701 -3.1513  1.4906
19136TIP3   OH278898   2.681   0.111   4.250  0.0393  0.7142  0.1145
19136TIP3    H178899   2.704   0.180   4.312  1.4474 -0.5812  1.1033
19136TIP3    H278900   2.746   0.121   4.180  1.0500 -0.3544  0.8727
19137TIP3   OH278901   6.500   1.565  16.275 -0.4063  0.1071  0.4467
19137TIP3    H178902   6.548   1.642  16.243 -0.5658  0.4540  1.0233
19137TIP3    H278903   6.531   1.554  16.365  1.4628 -1.9992 -0.3610
19138TIP3   OH278904   2.667   3.171   4.781 -0.6287  0.0675 -0.0121
19138TIP3    H178905   2.703   3.259   4.777 -1.0329  0.2903  1.0223
19138TIP3    H278906   2.688   3.133   4.696  0.0487  0.9616 -0.2590
19139TIP3   OH278907   0.040   4.944  14.917  0.3090  0.0475 -0.1863
19139TIP3    H178908   0.096   5.020  14.933  0.5618  0.2041 -1.6912
19139TIP3    H278909  -0.012   4.968  14.840 -0.1531 -1.0044 -0.2164
19140TIP3   OH278910   6.213   3.048  12.776 -0.2474 -0.0582 -0.4172
19140TIP3    H178911   6.130   3.047  12.823 -0.6514 -0.9395 -1.1327
19140TIP3    H278912   6.191   3.025  12.686  0.8847 -1.2867 -0.4135
19141TIP3   OH278913   3.359   0.136  11.919  0.4739  0.0770  0.5864
19141TIP3    H178914   3.339   0.195  11.846 -0.1446 -0.4854  0.2876
19141TIP3    H278915   3.451   0.153  11.939 -0.3649  3.2249  2.4222
19142TIP3   OH278916   6.175   4.543   5.480  0.5587 -0.0050 -0.0086
19142TIP3    H178917   6.253   4.574   5.433  1.0609  1.0792  1.4573
19142TIP3    H278918   6.107   4.537   5.413  1.0043  2.3425 -0.7788
19143TIP3   OH278919   0.670   6.540  11.009 -0.0625  0.1707  0.2455
19143TIP3    H178920   0.665   6.632  10.983 -0.0143 -0.2059 -1.1707
19143TIP3    H278921   0.693   6.493  10.928  0.2552 -1.0487  1.0169
19144TIP3   OH278922   0.307   0.091  11.849  0.0044  0.1338  0.5743
19144TIP3    H178923   0.260   0.044  11.780  1.0060 -0.3661  0.2164
19144TIP3    H278924   0.256   0.073  11.928 -0.5405 -0.1946  0.1596
19145TIP3   OH278925   1.410   0.414  11.566 -0.3284  0.2469 -0.0684
19145TIP3    H178926   1.479   0.463  11.521  0.8385 -0.3258  1.0359
19145TIP3    H278927   1.433   0.421  11.659 -2.5453  1.2060  0.4524
19146TIP3   OH278928   3.583   1.489   5.482 -1.0449 -0.0912 -0.1408
19146TIP3    H178929   3.528   1.560   5.514 -0.7979  1.4340 -2.7818
19146TIP3    H278930   3.523   1.430   5.438 -0.8917  0.3795 -1.0183
19147TIP3   OH278931   6.209   5.743  15.996  0.5047 -0.1557  0.2653
19147TIP3    H178932   6.257   5.816  16.036 -2.2486  2.1207 -0.2442
19147TIP3    H278933   6.117   5.758  16.021 -0.6314 -1.5675 -2.5683
19148TIP3   OH278934   6.491   5.822   4.176 -0.2229 -0.8617 -0.1578
19148TIP3    H178935   6.505   5.766   4.252 -1.0600  0.5689  1.1106
19148TIP3    H278936   6.561   5.798   4.115  0.1391 -2.4276  0.8257
19149TIP3   OH278937   5.428   6.096  17.194  0.1468  0.3273 -0.1047
19149TIP3    H178938   5.491   6.024  17.196 -2.2159 -1.8839  0.2979
19149TIP3    H278939   5.428   6.131  17.283 -0.1101 -0.5228  0.2379
19150TIP3   OH278940   6.772   0.033  16.869 -0.1548  0.0239 -0.5111
19150TIP3    H178941   6.775  -0.002  16.958 -0.2496 -0.8939 -0.8615
19150TIP3    H278942   6.725   0.116  16.878 -2.6174 -1.3194 -0.0870
19151TIP3   OH278943   2.553   4.767   0.578 -0.6939  0.0381  0.6365
19151TIP3    H178944   2.537   4.675   0.557 -1.6152 -0.4670  3.2128
19151TIP3    H278945   2.519   4.815   0.503  1.2109 -1.7013 -1.4966
19152TIP3   OH278946   6.182   4.400  16.925 -0.2002 -0.2873 -0.0282
19152TIP3    H178947   6.162   4.310  16.951  0.2511 -1.0544 -2.1844
19152TIP3    H278948   6.108   4.426  16.870  0.8585 -0.2684 -1.4823
19153TIP3   OH278949   0.735   3.636  12.845 -0.1983 -1.5615  0.1188
19153TIP3    H178950   0.710   3.669  12.758 -1.6139  0.3880  1.1808
19153TIP3    H278951   0.819   3.678  12.863 -1.2649  0.4075  0.8179
19154TIP3   OH278952   3.560   0.815   4.774 -0.2530 -0.4112 -0.6777
19154TIP3    H178953   3.505   0.861   4.711  0.9711  1.4918 -0.4260
19154TIP3    H278954   3.641   0.866   4.778  1.1529 -2.5125 -0.2516
19155TIP3   OH278955   6.248   3.353   3.950  0.4443  0.9669  0.2612
19155TIP3    H178956   6.193   3.428   3.928  0.4159  0.7551 -0.4182
19155TIP3    H278957   6.206   3.315   4.027 -0.6585  0.5354 -0.5194
19156TIP3   OH278958   6.743   1.743  11.722  0.3293  0.4439  1.0119
19156TIP3    H178959   6.833   1.775  11.734  0.4196 -0.3093  2.6318
19156TIP3    H278960   6.703   1.806  11.662  1.9179  0.8166  0.2991
19157TIP3   OH278961   2.011   0.301  14.982  0.2984 -0.1130  0.4416
19157TIP3    H178962   2.003   0.311  14.887  2.0545 -0.8245  0.1868
19157TIP3    H278963   2.068   0.372  15.009 -1.8314  1.3579  1.3205
19158TIP3   OH278964   3.761   5.352   1.941  0.3866 -0.6498 -0.0168
19158TIP3    H178965   3.788   5.267   1.906  0.4671  0.4320 -2.8828
19158TIP3    H278966   3.680   5.334   1.988  0.9912 -2.4606  0.4243
19159TIP3   OH278967   3.762   3.550   0.667  0.2836  0.1302  0.3190
19159TIP3    H178968   3.730   3.545   0.758 -1.4270  1.7502 -0.1432
19159TIP3    H278969   3.693   3.595   0.620  0.8745 -1.2206 -1.9682
19160TIP3   OH278970   1.077   5.987  17.038  0.0292 -0.0047  0.6518
19160TIP3    H178971   1.002   5.929  17.033 -1.2756  1.6176  0.7046
19160TIP3    H278972   1.128   5.967  16.959 -1.5572  0.3262 -0.5071
19161TIP3   OH278973   1.266   6.462  13.137 -0.2825 -0.4440  0.0871
19161TIP3    H178974   1.173   6.467  13.154 -0.2026  0.4758  0.3170
19161TIP3    H278975   1.282   6.370  13.114 -0.8993 -1.0516  1.9302
19162TIP3   OH278976   5.464   6.040  14.649  0.4168 -0.2399 -0.0905
19162TIP3    H178977   5.425   6.101  14.711  0.5454  0.4134 -0.6394
19162TIP3    H278978   5.460   6.085  14.564  2.4236 -0.0850 -0.1686
19163TIP3   OH278979   6.317   1.190  16.808 -0.1354 -0.1396 -0.3535
19163TIP3    H178980   6.282   1.134  16.739 -0.2691  0.2559 -0.6110
19163TIP3    H278981   6.258   1.175  16.882 -0.5049  0.0889 -0.6012
19164TIP3   OH278982   1.825   4.263  11.360 -0.4839  0.5541 -0.1225
19164TIP3    H178983   1.763   4.295  11.426  0.5901  1.2951  0.5624
19164TIP3    H278984   1.853   4.342  11.314  3.3857  1.0446  2.6127
19165TIP3   OH278985   3.704   2.719   4.779 -0.1689 -0.3388  0.1391
19165TIP3    H178986   3.630   2.732   4.838 -0.2186  1.9562 -0.3402
19165TIP3    H278987   3.695   2.788   4.714  2.0097 -0.4499 -0.3408
19166TIP3   OH278988   5.028   4.188  17.072 -0.1876 -0.0311 -0.3675
19166TIP3    H178989   5.086   4.263  17.090  0.7088 -0.7262 -0.2886
19166TIP3    H278990   5.043   4.128  17.145 -0.7377 -0.3896 -0.5454
19167TIP3   OH278991   1.610   5.570   0.167 -0.1543 -0.1091  0.0346
19167TIP3    H178992   1.607   5.665   0.171 -1.2994 -0.1561  2.1513
19167TIP3    H278993   1.689   5.546   0.216  0.0470 -0.2463 -0.3563
19168TIP3   OH278994   3.289   5.826   4.285  0.0407 -0.5919 -0.3253
19168TIP3    H178995   3.259   5.912   4.314  0.3125 -1.2242  2.0297
19168TIP3    H278996   3.209   5.780   4.260 -0.1049  0.3225 -1.6446
19169TIP3   OH278997   4.297   1.104   4.451 -0.0328  0.1456 -0.4798
19169TIP3    H178998   4.367   1.044   4.475 -0.9112 -0.5211  0.5521
19169TIP3    H278999   4.330   1.191   4.474  1.0668  0.0270 -1.5441
19170TIP3   OH279000   0.329   0.772  14.917  0.4047 -0.4647  0.1582
19170TIP3    H179001   0.253   0.807  14.964 -0.5443 -1.3135 -0.6980
19170TIP3    H279002   0.349   0.837  14.851 -0.1727 -0.6621 -0.2148
19171TIP3   OH279003   4.024   0.645  15.068  0.0841  0.0018  0.1449
19171TIP3    H179004   3.981   0.583  15.126  0.7668  0.5950  1.3051
19171TIP3    H279005   3.983   0.730  15.087 -1.4813 -0.1682 -2.0564
19172TIP3   OH279006   2.607   5.849   4.900 -0.3179 -0.0272  0.2221
19172TIP3    H179007   2.557   5.917   4.947 -2.0573 -0.5420 -0.7978
19172TIP3    H279008   2.583   5.861   4.808 -0.4614 -1.8600 -0.0037
19173TIP3   OH279009   3.545   5.236   4.518 -0.1479 -0.1621 -0.1330
19173TIP3    H179010   3.572   5.283   4.439  0.2975 -0.8392 -0.3910
19173TIP3    H279011   3.470   5.183   4.490 -0.6283  0.3588  0.1492
19174TIP3   OH279012   0.541   3.575  11.451 -0.5360  0.1667  0.3656
19174TIP3    H179013   0.522   3.599  11.361 -0.9067  0.0647  0.4154
19174TIP3    H279014   0.584   3.490  11.445 -1.6645 -0.4255  0.3527
19175TIP3   OH279015   2.782   5.832  16.215 -0.1492  0.2668 -0.5241
19175TIP3    H179016   2.702   5.849  16.264  0.4973  0.5489  0.4831
19175TIP3    H279017   2.766   5.868  16.128 -1.0163  0.5584 -0.2515
19176TIP3   OH279018   4.924   3.494  11.084  0.0513 -0.1437 -0.3834
19176TIP3    H179019   5.014   3.476  11.112  0.2615 -1.1324 -1.6159
19176TIP3    H279020   4.921   3.465  10.993 -1.4466  0.1452 -0.4481
19177TIP3   OH279021   2.956   0.241  11.330  0.3416  0.4906  0.4758
19177TIP3    H179022   2.911   0.297  11.266 -1.1731  0.5301  1.5137
19177TIP3    H279023   3.026   0.296  11.365  1.4216  0.3459 -1.3652
19178TIP3   OH279024   1.917   2.997   5.808  0.5805  0.1108  0.2464
19178TIP3    H179025   1.930   3.092   5.807 -0.7281  0.3693  2.1054
19178TIP3    H279026   1.878   2.978   5.722  1.4950  1.1235 -0.4279
19179TIP3   OH279027   3.900   5.453  11.408 -0.2370 -0.1608 -0.2899
19179TIP3    H179028   3.982   5.405  11.397  0.8212  1.5385 -0.2168
19179TIP3    H279029   3.871   5.431  11.496 -0.2991 -1.4149 -0.6130
19180TIP3   OH279030   0.783   3.150   3.999  0.1138  0.4246 -0.0471
19180TIP3    H179031   0.865   3.169   4.045  0.4836 -1.9305  0.3620
19180TIP3    H279032   0.715   3.163   4.066  0.3119  0.5281  0.1364
19181TIP3   OH279033   5.250   3.770   1.760 -0.4016 -0.0715  0.0299
19181TIP3    H179034   5.178   3.732   1.808 -1.0882 -0.7367 -1.4510
19181TIP3    H279035   5.314   3.795   1.827 -1.4448 -0.6316  1.2672
19182TIP3   OH279036   1.948   2.951  16.096  0.2156  0.0592  0.2802
19182TIP3    H179037   1.904   3.016  16.041  0.8771  1.1243  0.9609
19182TIP3    H279038   1.907   2.868  16.073 -0.8579  0.7575 -0.4145
19183TIP3   OH279039   0.172   6.565   6.039 -0.1426  0.4059  0.6133
19183TIP3    H179040   0.077   6.565   6.028 -0.2262  0.6769  1.3183
19183TIP3    H279041   0.186   6.579   6.132  0.6008  0.8208  0.4504
19184TIP3   OH279042   6.462   5.257   3.940 -0.4066  0.1364  0.4897
19184TIP3    H179043   6.446   5.351   3.953  0.1884  0.2197  0.6693
19184TIP3    H279044   6.375   5.219   3.932 -0.6828  0.6186  1.0533
19185TIP3   OH279045   2.003   2.134  17.269 -1.0384 -0.3949  0.0540
19185TIP3    H179046   2.020   2.040  17.266 -0.3896 -0.3199  1.1538
19185TIP3    H279047   1.912   2.142  17.239 -1.1787 -1.3808  0.1668
19186TIP3   OH279048   1.594   1.617   0.162  0.5157 -0.1524 -0.4016
19186TIP3    H179049   1.678   1.575   0.180  1.1132  1.3517  0.5052
19186TIP3    H279050   1.610   1.671   0.085 -0.2625 -1.5480 -1.5960
19187TIP3   OH279051   0.467   2.115  11.949  0.4471  0.9041 -0.1471
19187TIP3    H179052   0.453   2.030  11.993  0.7224  0.5242 -0.7798
19187TIP3    H279053   0.454   2.180  12.018  1.0886  0.3037  0.5611
19188TIP3   OH279054   0.008   1.689   4.891  0.6858 -0.3148  0.5473
19188TIP3    H179055   0.015   1.593   4.891 -0.5080 -0.4437 -1.0561
19188TIP3    H279056  -0.083   1.707   4.911  1.1658  0.5619  2.0550
19189TIP3   OH279057   3.727   5.851  14.110 -0.1733  0.1952  0.2343
19189TIP3    H179058   3.714   5.861  14.204 -0.9717  2.4422 -0.0310
19189TIP3    H279059   3.713   5.758  14.093  3.5139 -1.0095  2.7566
19190TIP3   OH279060   3.732   2.311  15.300  0.5318  0.0267  0.1192
19190TIP3    H179061   3.759   2.349  15.216 -0.3622  1.4622  0.4552
19190TIP3    H279062   3.727   2.217  15.283  0.2557  0.3006 -1.4771
19191TIP3   OH279063   5.038   1.310   4.758 -0.1192 -0.3507  0.1235
19191TIP3    H179064   5.018   1.345   4.671 -0.1557 -0.1008  0.2320
19191TIP3    H279065   5.124   1.270   4.748 -0.8442 -1.8312 -0.4620
19192TIP3   OH279066   3.417   1.943  15.838  0.1183 -0.7080 -0.1335
19192TIP3    H179067   3.418   1.874  15.772  0.3953 -1.7199  0.9000
19192TIP3    H279068   3.341   1.996  15.816  0.1303 -1.0999 -1.1784
19193TIP3   OH279069   3.192   4.382   3.553 -0.0415 -0.5592 -0.3815
19193TIP3    H179070   3.220   4.474   3.553  0.7482 -0.7844  0.9960
19193TIP3    H279071   3.262   4.336   3.507  0.6479 -0.7663  0.8499
19194TIP3   OH279072   2.090   0.242   3.054 -0.1425  0.0662 -0.3880
19194TIP3    H179073   2.130   0.216   2.971 -0.1387 -0.4145 -0.2409
19194TIP3    H279074   2.161   0.285   3.102 -0.4023  1.2455 -1.0209
19195TIP3   OH279075   1.966   4.337   1.213 -0.1135  0.6556  0.8181
19195TIP3    H179076   2.002   4.251   1.233 -0.6823  0.3015  0.3494
19195TIP3    H279077   1.933   4.369   1.297  0.5084  0.6141  1.0807
19196TIP3   OH279078   5.496   0.163  12.963 -0.1859 -0.6823 -0.6174
19196TIP3    H179079   5.571   0.186  12.909  2.1385  0.8383  2.9091
19196TIP3    H279080   5.494   0.068  12.962  0.9213 -0.7220 -1.8141
19197TIP3   OH279081   6.315   4.207   3.502 -0.5839  0.6320  0.2022
19197TIP3    H179082   6.284   4.205   3.411 -0.6258 -0.8827  0.2167
19197TIP3    H279083   6.409   4.189   3.496 -0.3549  1.7028  0.3945
19198TIP3   OH279084   4.699   1.324  15.727  0.3570  0.3238  0.0316
19198TIP3    H179085   4.643   1.365  15.793  0.1828 -1.4487  1.0270
19198TIP3    H279086   4.754   1.263  15.776  0.0052 -1.2736 -1.4630
19199TIP3   OH279087   5.730   3.228   4.603 -0.1510  0.2897  0.1117
19199TIP3    H179088   5.645   3.237   4.560 -0.8697 -0.8472  1.2120
19199TIP3    H279089   5.752   3.135   4.592 -0.5436 -0.1331  2.4634
19200TIP3   OH279090   3.773   3.946   1.175  0.1796  0.2775  0.0244
19200TIP3    H179091   3.692   3.990   1.203 -0.0854  1.4949 -2.3850
19200TIP3    H279092   3.762   3.856   1.203 -1.3853  0.7267  0.9982
19201TIP3   OH279093   2.846   6.764  12.888  0.1126 -0.0558  0.3201
19201TIP3    H179094   2.766   6.741  12.842  0.7319 -2.1155  0.1896
19201TIP3    H279095   2.826   6.750  12.981  0.7370 -2.1095  0.1868
19202TIP3   OH279096   5.869   1.573  11.870  0.2353 -0.6480 -0.0983
19202TIP3    H179097   5.947   1.624  11.850 -0.8128  0.6686 -0.9978
19202TIP3    H279098   5.814   1.633  11.922 -0.6159 -1.1646 -0.3804
19203TIP3   OH279099   6.055   2.159   6.647 -0.1776  0.7961 -0.7708
19203TIP3    H179100   5.981   2.107   6.680 -0.9001  1.8298 -0.7297
19203TIP3    H279101   6.043   2.161   6.553  1.4525 -1.4854 -1.1237
19204TIP3   OH279102   0.159   0.932  14.461 -0.4793  0.1523  0.2751
19204TIP3    H179103   0.130   1.023  14.459 -0.0875  0.2926  0.6916
19204TIP3    H279104   0.107   0.892  14.531  0.2338  0.3794  0.9558
19205TIP3   OH279105   6.810   4.695  15.931 -0.0057  0.4776 -0.3183
19205TIP3    H179106   6.749   4.760  15.896 -1.3228 -0.7154 -0.3198
19205TIP3    H279107   6.814   4.714  16.025 -0.5258  0.4406 -0.2898
19206TIP3   OH279108   0.153   4.036  14.761 -0.1147 -0.0197 -0.2348
19206TIP3    H179109   0.229   4.022  14.816 -0.5198  0.3035  0.4164
19206TIP3    H279110   0.091   4.083  14.817 -0.5337  0.3092 -0.9553
19207TIP3   OH279111   1.178   5.535  14.658  0.4412 -0.0266  0.1640
19207TIP3    H179112   1.161   5.564  14.747  0.8360 -0.4790  0.3926
19207TIP3    H279113   1.171   5.439  14.662 -0.1875 -0.0149 -0.4299
19208TIP3   OH279114   1.705   0.696   4.713  0.3152 -0.3559  0.3581
19208TIP3    H179115   1.720   0.721   4.622  0.0002  0.0228  0.4075
19208TIP3    H279116   1.695   0.600   4.710 -2.2671 -0.1568 -0.4164
19209TIP3   OH279117   1.150   3.102   0.141 -0.0023  0.1449  0.8093
19209TIP3    H179118   1.164   3.061   0.056  0.5609  2.8136 -0.4726
19209TIP3    H279119   1.234   3.140   0.164 -0.2672 -0.1490  2.3802
19210TIP3   OH279120   1.333   0.119   2.787  0.1816 -0.0728 -0.2408
19210TIP3    H179121   1.302   0.185   2.725  0.5330  0.8615  0.5522
19210TIP3    H279122   1.382   0.057   2.733 -2.1351 -1.0115 -1.3567
19211TIP3   OH279123   4.445   1.308  10.343  0.1398 -0.0312 -0.0795
19211TIP3    H179124   4.408   1.269  10.264 -0.0808 -0.7998  0.3974
19211TIP3    H279125   4.371   1.320  10.401  0.4250 -0.2591  0.3355
19212TIP3   OH279126   5.677   4.452  15.614 -0.0397 -0.5357  0.0612
19212TIP3    H179127   5.672   4.535  15.661 -0.1562  0.6131 -1.8788
19212TIP3    H279128   5.634   4.389  15.672 -1.7437  1.1558  0.7321
19213TIP3   OH279129   0.018   6.768  11.283 -0.1332 -0.0126  0.0183
19213TIP3    H179130   0.030   6.694  11.341 -2.2128 -0.1120  0.4008
19213TIP3    H279131   0.014   6.730  11.195 -0.9065 -0.3468  0.1882
19214TIP3   OH279132   3.709   5.912  13.270 -0.2627  0.1543  0.4927
19214TIP3    H179133   3.756   5.967  13.333 -1.3288  0.5220  0.9978
19214TIP3    H279134   3.774   5.848  13.241  0.5334  0.6140  1.1975
19215TIP3   OH279135   1.486   0.238  14.243 -0.8629  0.3551  0.0318
19215TIP3    H179136   1.392   0.223  14.258 -0.6668  0.4260  1.3861
19215TIP3    H279137   1.527   0.153  14.262 -0.7786 -0.1819 -2.1912
19216TIP3   OH279138   3.203   5.436  10.608  0.5646 -0.2039  0.0409
19216TIP3    H179139   3.211   5.360  10.551  0.3931 -1.9872  2.2685
19216TIP3    H279140   3.289   5.447  10.646 -0.1597 -1.3396  2.1376
19217TIP3   OH279141   1.017   5.465   5.227  0.1635 -0.2702 -0.0565
19217TIP3    H179142   0.997   5.549   5.266 -0.4253  0.5457 -1.9879
19217TIP3    H279143   1.102   5.478   5.185  1.1067 -1.3245  1.4212
19218TIP3   OH279144   4.415   0.313  16.502 -0.3534 -0.1952 -1.0699
19218TIP3    H179145   4.458   0.257  16.566 -1.0208 -0.3195 -0.7318
19218TIP3    H279146   4.409   0.259  16.423 -0.3048 -0.3366 -0.9776
19219TIP3   OH279147   1.892   5.826  12.860 -0.2911  0.2543  0.0660
19219TIP3    H179148   1.956   5.815  12.791  2.9899  1.8550  2.5359
19219TIP3    H279149   1.852   5.911  12.842 -1.3222 -0.4481 -1.1195
19220TIP3   OH279150   5.959   3.816   3.320  0.1058  0.9333 -0.1685
19220TIP3    H179151   5.994   3.794   3.234  0.4073  2.3344 -0.4322
19220TIP3    H279152   6.001   3.755   3.380  0.0212  0.0540 -0.9923
19221TIP3   OH279153   2.915   3.910  16.244 -0.1483 -0.4441  0.3683
19221TIP3    H179154   2.956   3.828  16.216 -0.0369 -0.4264  0.4799
19221TIP3    H279155   2.866   3.939  16.167 -0.7059 -0.9445  0.5211
19222TIP3   OH279156   4.227   1.432  15.857  0.2663  0.1003  0.1756
19222TIP3    H179157   4.151   1.378  15.879  0.9485 -0.9988 -0.0334
19222TIP3    H279158   4.264   1.389  15.779  0.9210  0.7909  0.0994
19223TIP3   OH279159   5.381   6.767  10.561 -0.2903 -0.1309  0.4257
19223TIP3    H179160   5.416   6.701  10.501 -0.3049  0.1198  0.1344
19223TIP3    H279161   5.287   6.765  10.546 -0.2587  0.1881  0.1676
19224TIP3   OH279162   6.385   3.049   5.813 -0.1311 -0.2638 -0.0110
19224TIP3    H179163   6.321   3.102   5.766  0.6407 -0.1567 -0.9816
19224TIP3    H279164   6.440   3.113   5.857  1.3683 -0.1321 -1.9186
19225TIP3   OH279165   4.366   1.187  13.678  0.0278  0.2160  0.3115
19225TIP3    H179166   4.403   1.137  13.752 -0.0809  0.8222  0.7806
19225TIP3    H279167   4.439   1.196  13.617 -0.1792 -1.2953 -0.2106
19226TIP3   OH279168   2.814   1.134  12.431 -0.0953  0.2702  0.2485
19226TIP3    H179169   2.878   1.204  12.418 -0.8190  1.2259  1.6334
19226TIP3    H279170   2.841   1.065  12.370  1.8154  0.9290  0.2961
19227TIP3   OH279171   3.489   1.307   5.008  0.2147 -0.6529  0.1110
19227TIP3    H179172   3.532   1.223   5.021  1.3822 -0.5544 -2.4503
19227TIP3    H279173   3.475   1.313   4.913 -0.7587  1.6000  0.3207
19228TIP3   OH279174   6.344   2.075  16.345  0.6556 -0.0110  0.0427
19228TIP3    H179175   6.391   2.154  16.370  1.8963 -0.9936  0.9045
19228TIP3    H279176   6.323   2.089  16.252  0.4026  1.5188  0.2950
19229TIP3   OH279177   5.713   0.123  15.772 -0.1876 -0.1628  0.9720
19229TIP3    H179178   5.640   0.068  15.743 -1.4354  0.8652  2.0338
19229TIP3    H279179   5.722   0.188  15.703 -0.8844  0.2316  1.2387
19230TIP3   OH279180   4.304   3.154   5.704 -0.3348 -0.1721 -0.1949
19230TIP3    H179181   4.392   3.174   5.735 -0.2286 -0.7808 -0.0777
19230TIP3    H279182   4.298   3.059   5.712 -1.0639 -0.1161 -0.0418
19231TIP3   OH279183   4.980   4.114  10.664  0.3281  0.6229  0.6914
19231TIP3    H179184   4.975   4.019  10.676  4.1049 -0.0773 -1.7326
19231TIP3    H279185   5.012   4.147  10.748  2.1258 -0.7585  0.6112
19232TIP3   OH279186   0.178   4.257  13.563  0.4193 -0.2819  0.1840
19232TIP3    H179187   0.116   4.281  13.494  0.9984 -0.3044 -0.3551
19232TIP3    H279188   0.151   4.308  13.639  1.2454  1.6102 -0.7475
19233TIP3   OH279189   2.173   3.131  13.739 -0.3540  0.0109  0.0243
19233TIP3    H179190   2.164   3.225  13.747  0.5490  0.0733  0.4550
19233TIP3    H279191   2.141   3.111  13.650  0.9778  0.9384 -0.6995
19234TIP3   OH279192   6.416   4.536  14.115 -0.4210  0.4714  0.5926
19234TIP3    H179193   6.392   4.607  14.174  0.8265  1.6927 -0.3062
19234TIP3    H279194   6.484   4.487  14.162  0.2883  1.2062  0.3513
19235TIP3   OH279195   3.935   6.742   0.530 -0.1744 -0.1072 -0.2393
19235TIP3    H179196   3.900   6.749   0.619 -1.3182 -0.3081 -0.6447
19235TIP3    H279197   4.029   6.751   0.540 -0.4246  2.1834  0.7600
19236TIP3   OH279198   0.666   0.637  11.644 -0.8670  0.2053 -0.0277
19236TIP3    H179199   0.679   0.728  11.672 -2.2435  0.0635  1.2024
19236TIP3    H279200   0.741   0.590  11.679  0.5362  1.0402 -1.7594
19237TIP3   OH279201   6.817   5.929   6.672 -0.1558  0.1891 -0.0496
19237TIP3    H179202   6.765   6.007   6.654 -1.3137  0.0080  2.1753
19237TIP3    H279203   6.881   5.925   6.601 -2.6316  0.8705 -2.4425
19238TIP3   OH279204   0.782   1.321   2.783 -0.1386 -0.5274 -0.2896
19238TIP3    H179205   0.820   1.234   2.775 -1.9380 -1.2147 -1.9241
19238TIP3    H279206   0.815   1.369   2.708  0.6108  0.1540  0.4468
19239TIP3   OH279207   6.493   4.107  16.351  0.0826  0.1685 -0.4824
19239TIP3    H179208   6.527   4.175  16.410  1.6378 -0.1390 -0.9702
19239TIP3    H279209   6.473   4.034  16.409  2.0183 -0.2920 -0.3117
19240TIP3   OH279210   2.763   0.769  11.775  0.2576  0.1333 -0.1630
19240TIP3    H179211   2.682   0.743  11.731 -0.8268  2.0121  0.5850
19240TIP3    H279212   2.781   0.698  11.837 -2.5504  0.9589  1.7907
19241TIP3   OH279213   2.622   5.905   0.645 -0.1213 -0.0392  0.3405
19241TIP3    H179214   2.648   5.907   0.553 -3.3285 -0.5754 -0.7088
19241TIP3    H279215   2.582   5.819   0.657 -0.2137  0.2092  2.1324
19242TIP3   OH279216   0.701   1.320   4.069 -0.7279 -0.2508 -0.4603
19242TIP3    H179217   0.693   1.380   3.995 -2.6810  1.4968  1.0494
19242TIP3    H279218   0.713   1.233   4.029 -2.0297  0.5753 -2.8297
19243TIP3   OH279219   3.528   4.710  11.502  0.0630  0.2352  0.1655
19243TIP3    H179220   3.600   4.680  11.446  0.2636 -0.5688  0.8346
19243TIP3    H279221   3.534   4.805  11.500  0.7956  0.1874 -0.2427
19244TIP3   OH279222   0.107   4.820  13.260  0.3992 -0.1473  0.5432
19244TIP3    H179223   0.058   4.771  13.194  0.3182  0.8536 -0.1591
19244TIP3    H279224   0.165   4.877  13.210 -0.4930  1.4986  1.2736
19245TIP3   OH279225   2.980   6.376   0.588 -0.5837 -0.7783  0.0374
19245TIP3    H179226   2.930   6.296   0.606 -0.3952 -0.7881  0.5252
19245TIP3    H279227   2.932   6.445   0.634  0.9407 -1.0979  2.2604
19246TIP3   OH279228   0.176   2.405  12.405 -0.2720 -0.0991 -0.3475
19246TIP3    H179229   0.234   2.477  12.430  0.1590 -0.3010 -0.7466
19246TIP3    H279230   0.227   2.354  12.342 -0.4753 -0.9050  0.1364
19247TIP3   OH279231   5.375   3.219  11.817 -0.1264 -0.1090  0.6195
19247TIP3    H179232   5.348   3.129  11.838  2.2836 -1.3102 -0.8794
19247TIP3    H279233   5.367   3.224  11.722  1.3263  0.6816  0.5200
19248TIP3   OH279234   1.902   2.536   5.628  0.1510 -0.0960  0.7106
19248TIP3    H179235   1.975   2.499   5.679  1.1606  1.5134  0.5081
19248TIP3    H279236   1.844   2.462   5.612  0.7065 -1.0188  2.6466
19249TIP3   OH279237   4.318   4.128   5.103  0.5965 -0.1683 -0.2166
19249TIP3    H179238   4.389   4.184   5.074  0.1991  0.6947  0.4249
19249TIP3    H279239   4.323   4.131   5.199  0.7048 -1.4109 -0.1707
19250TIP3   OH279240   3.166   0.329  12.019  0.4886 -0.2080 -0.0302
19250TIP3    H179241   3.197   0.253  11.970  1.2503  0.2423 -0.2696
19250TIP3    H279242   3.236   0.345  12.083 -0.1833 -0.3813  0.7661
19251TIP3   OH279243   3.911   0.368  14.712 -0.1154 -0.1097 -0.1681
19251TIP3    H179244   3.918   0.411  14.626  1.6549  2.0610  0.9561
19251TIP3    H279245   3.894   0.440  14.773 -3.3556 -1.8215  1.1506
19252TIP3   OH279246   5.175   1.109  16.909  0.1013  0.3930  0.7066
19252TIP3    H179247   5.086   1.077  16.895  0.9011 -1.7300  0.1275
19252TIP3    H279248   5.213   1.117  16.822  0.6846  0.6799  0.9753
19253TIP3   OH279249   3.742   4.663  13.900  0.4806 -0.0905 -0.2707
19253TIP3    H179250   3.719   4.571  13.913  1.1288  0.0589  2.3247
19253TIP3    H279251   3.673   4.713  13.943  1.6935  0.5212  1.0620
19254TIP3   OH279252   5.748   1.343   5.889  0.0326 -0.4057  0.2382
19254TIP3    H179253   5.777   1.347   5.798  1.1539 -0.5163  0.5823
19254TIP3    H279254   5.814   1.392   5.937 -0.2411 -0.8371  1.0686
19255TIP3   OH279255   4.792   0.247   5.614 -0.0526  0.4300 -0.3730
19255TIP3    H179256   4.727   0.178   5.627  0.9142 -0.0626  3.1741
19255TIP3    H279257   4.867   0.202   5.574  0.2195 -0.4482  1.0392
19256TIP3   OH279258   3.284   2.115  16.934 -0.1533  0.0202  0.6136
19256TIP3    H179259   3.342   2.097  16.861 -0.0937 -0.5875  0.8080
19256TIP3    H279260   3.328   2.076  17.010 -0.0078  1.0081  1.0507
19257TIP3   OH279261   2.374   5.385  13.341  0.0868  0.6553  0.1257
19257TIP3    H179262   2.362   5.290  13.337  1.9068  0.4274 -1.9032
19257TIP3    H279263   2.463   5.396  13.376 -0.8019  1.7164  2.1945
19258TIP3   OH279264   5.016   6.772   5.002 -0.0356 -0.0274 -0.0414
19258TIP3    H179265   4.936   6.821   4.984 -0.7493 -0.9920  0.4441
19258TIP3    H279266   5.075   6.796   4.931 -1.0886 -0.0272 -0.9424
19259TIP3   OH279267   1.885   0.515   1.585 -0.3486 -0.5489  0.0411
19259TIP3    H179268   1.866   0.500   1.678 -0.8094 -1.1158 -0.1312
19259TIP3    H279269   1.966   0.467   1.568  0.8620  1.2034  0.5940
19260TIP3   OH279270   5.222   0.838   0.274 -0.4285  0.4696  0.3402
19260TIP3    H179271   5.138   0.870   0.242 -0.7244  0.0701  0.7207
19260TIP3    H279272   5.257   0.910   0.326 -1.5037 -0.1147  1.9459
19261TIP3   OH279273   5.316   3.148   1.583  0.2307  0.1929 -0.1131
19261TIP3    H179274   5.351   3.192   1.661 -0.1437  1.7065 -0.7457
19261TIP3    H279275   5.266   3.217   1.539 -3.9031 -1.8587  0.8775
19262TIP3   OH279276   4.726   4.329   1.900 -0.3122 -0.0921  0.0320
19262TIP3    H179277   4.733   4.369   1.987 -1.3557 -1.1129  0.6111
19262TIP3    H279278   4.651   4.270   1.907 -0.7010  0.1473 -1.7067
19263TIP3   OH279279   2.926   1.393  14.193  0.5123  0.0546  0.5970
19263TIP3    H179280   2.862   1.434  14.252 -1.1424 -0.2467 -0.8986
19263TIP3    H279281   3.008   1.440  14.210 -0.5474  1.7500  1.2600
19264TIP3   OH279282   2.234   6.467  13.813 -0.5704 -0.0956 -0.4673
19264TIP3    H179283   2.203   6.508  13.894 -1.4157  1.2753 -1.4320
19264TIP3    H279284   2.251   6.376  13.837  1.1691  0.7265  1.7179
19265TIP3   OH279285   1.637   4.461   0.256  0.0250 -0.3100 -0.1285
19265TIP3    H179286   1.710   4.515   0.285 -0.6827  0.3470  0.4813
19265TIP3    H279287   1.619   4.403   0.330  1.0235 -1.6918 -0.9144
19266TIP3   OH279288   2.300   2.871  13.259  0.7761  0.6886 -0.3585
19266TIP3    H179289   2.366   2.818  13.214 -0.5762 -2.5107  1.1102
19266TIP3    H279290   2.217   2.848  13.218  0.1535  2.1861 -0.0421
19267TIP3   OH279291   6.558   1.658  13.822 -0.0586 -0.4258 -0.1602
19267TIP3    H179292   6.600   1.581  13.784 -0.3751 -0.7740  0.1795
19267TIP3    H279293   6.596   1.665  13.910  1.8811  1.3316 -1.0592
19268TIP3   OH279294   3.999   0.136  13.712  0.1225 -0.1590 -0.4903
19268TIP3    H179295   4.069   0.093  13.761 -0.0209 -0.5636 -0.6362
19268TIP3    H279296   3.927   0.141  13.775 -0.4228 -1.6368 -0.9600
19269TIP3   OH279297   5.810   6.124   5.375  0.6353 -0.6171  0.2603
19269TIP3    H179298   5.792   6.030   5.385 -0.2356 -0.3013  1.8961
19269TIP3    H279299   5.729   6.161   5.342  1.0984 -0.4756 -0.7467
19270TIP3   OH279300   5.626   2.278  16.863 -0.4283  0.2729 -0.2394
19270TIP3    H179301   5.549   2.224  16.878  0.5371 -0.8292  0.9540
19270TIP3    H279302   5.674   2.233  16.794  0.9576 -1.0982  1.5483
19271TIP3   OH279303   0.890   1.344  15.789 -0.0455  0.1717 -1.1394
19271TIP3    H179304   0.941   1.425  15.797  0.1345  0.1178 -1.7502
19271TIP3    H279305   0.888   1.325  15.695 -1.6297  0.4525 -1.1867
19272TIP3   OH279306   3.462   6.708   2.801  0.5598  0.0344 -0.2831
19272TIP3    H179307   3.500   6.794   2.819  1.5786 -0.5458  0.5138
19272TIP3    H279308   3.535   6.647   2.817 -0.4834 -1.0671  0.4596
19273TIP3   OH279309   4.978   0.171   5.425 -0.3772  0.1739 -0.0433
19273TIP3    H179310   4.964   0.104   5.358  1.7994 -1.1121  0.6546
19273TIP3    H279311   5.046   0.227   5.389  0.2384 -0.0526  0.7394
19274TIP3   OH279312   1.620   6.223   1.938  0.2878 -0.0999 -0.1817
19274TIP3    H179313   1.657   6.220   1.850 -0.0165 -0.7526 -0.2895
19274TIP3    H279314   1.696   6.231   1.995  0.6395 -1.6952 -0.3894
19275TIP3   OH279315   0.001   2.305   5.494  0.3522 -0.4459  0.0434
19275TIP3    H179316  -0.046   2.235   5.538 -1.5103  0.1904 -0.8231
19275TIP3    H279317   0.059   2.261   5.432  0.1074 -1.2407  0.3762
19276TIP3   OH279318   2.302   6.329   2.097 -0.5680  0.1238 -0.0930
19276TIP3    H179319   2.247   6.402   2.069  2.0541  1.7448 -1.4701
19276TIP3    H279320   2.277   6.256   2.040 -0.1778  1.3338 -1.8817
19277TIP3   OH279321   1.144   6.499  17.030 -0.0793 -0.0082  0.3766
19277TIP3    H179322   1.114   6.420  17.075  1.2700 -0.9341 -0.2807
19277TIP3    H279323   1.080   6.512  16.960 -0.3509 -0.4835  0.5304
19278TIP3   OH279324   5.533   3.892   4.681 -0.7786 -0.0930  0.7076
19278TIP3    H179325   5.606   3.853   4.632  0.4659  0.7866  1.7954
19278TIP3    H279326   5.521   3.834   4.756 -1.0358 -0.0934  0.6659
19279TIP3   OH279327   5.646   2.025   0.232  0.7520  0.3979 -0.4037
19279TIP3    H179328   5.626   2.047   0.323  2.0003  1.4415 -0.3637
19279TIP3    H279329   5.560   2.024   0.189  0.1382 -0.1232  0.7646
19280TIP3   OH279330   5.913   2.629   5.642 -0.1448  0.4507 -0.2002
19280TIP3    H179331   5.983   2.611   5.705  1.8704 -0.8362 -2.6098
19280TIP3    H279332   5.844   2.567   5.665  0.2936  0.3863  1.0362
19281TIP3   OH279333   3.979   4.562  13.077 -0.4758 -0.4319 -0.1943
19281TIP3    H179334   3.974   4.626  13.006 -1.0437  1.2883  1.3194
19281TIP3    H279335   3.964   4.613  13.157  0.3575 -2.2455  1.2065
19282TIP3   OH279336   3.776   3.389   1.209  0.3114 -0.1324 -0.5818
19282TIP3    H179337   3.806   3.475   1.181 -2.4085  0.4592 -2.0827
19282TIP3    H279338   3.734   3.403   1.293  1.9220 -0.4946  0.3185
19283TIP3   OH279339   3.302   2.243   1.068 -0.0105 -0.2134 -0.0343
19283TIP3    H179340   3.357   2.248   0.989 -1.3040  0.1943 -0.9446
19283TIP3    H279341   3.284   2.150   1.080  0.1785 -0.2750 -0.2235
19284TIP3   OH279342   0.826   6.745  13.187 -0.4200  0.0063 -0.0171
19284TIP3    H179343   0.771   6.786  13.254  0.4201  1.8087 -0.3765
19284TIP3    H279344   0.910   6.792  13.193  0.0364 -0.5640 -1.5663
19285TIP3   OH279345   6.610   2.195   3.739  0.4620  0.1703  0.1344
19285TIP3    H179346   6.557   2.116   3.746  0.1131  0.3044 -0.8574
19285TIP3    H279347   6.699   2.165   3.758  0.4661 -0.6516 -1.0474
19286TIP3   OH279348   5.435   4.276   4.912 -0.1310 -0.3445  0.5910
19286TIP3    H179349   5.505   4.243   4.855  0.2509  0.3342  0.6618
19286TIP3    H279350   5.357   4.271   4.858 -0.1322 -1.5734  0.6697
19287TIP3   OH279351   4.120   2.623  12.628  0.0321 -0.6431 -0.0677
19287TIP3    H179352   4.123   2.594  12.537 -0.2931  0.2183 -0.3653
19287TIP3    H279353   4.139   2.717  12.623 -1.7283 -0.2211  0.5654
19288TIP3   OH279354   6.036   4.019  16.464 -0.4698 -0.6056 -0.2484
19288TIP3    H179355   5.942   4.004  16.467 -0.3666 -1.1294  0.9737
19288TIP3    H279356   6.074   3.938  16.499  0.4044 -0.2291 -0.3075
19289TIP3   OH279357   6.359   2.137  15.312  0.0884  0.3333 -0.0673
19289TIP3    H179358   6.376   2.196  15.385  0.3092 -0.4956  0.5662
19289TIP3    H279359   6.269   2.155  15.287 -0.2799  0.0245  0.9802
19290TIP3   OH279360   1.998   4.372   5.990  0.4016 -0.1667  0.2500
19290TIP3    H179361   2.055   4.384   6.067 -1.1272 -1.0868  1.5844
19290TIP3    H279362   1.936   4.444   5.994  1.1470  0.5765 -0.9480
19291TIP3   OH279363   1.530   6.691   1.274 -0.2439 -0.7175  0.5900
19291TIP3    H179364   1.616   6.663   1.243 -1.1545 -0.4731 -2.4125
19291TIP3    H279365   1.476   6.612   1.272 -0.6765 -0.4210  0.1595
19292TIP3   OH279366   2.219   1.258   4.407 -0.0806  0.1481 -0.0667
19292TIP3    H179367   2.194   1.272   4.499  0.4468  0.8270 -0.0208
19292TIP3    H279368   2.248   1.167   4.404  0.4999  0.2993  0.5911
19293TIP3   OH279369   2.503   6.231  11.085  0.2868  0.0223 -0.1268
19293TIP3    H179370   2.584   6.243  11.035  0.1414  2.4494  0.0880
19293TIP3    H279371   2.523   6.266  11.172 -0.4197 -1.2395  0.5739
19294TIP3   OH279372   1.975   3.103  11.852  0.4420 -0.7751  0.0527
19294TIP3    H179373   2.031   3.119  11.776  0.5365  0.9405  0.4528
19294TIP3    H279374   1.913   3.176  11.852 -1.0615 -1.9854  0.3152
19295TIP3   OH279375   4.033   6.571  14.025  0.2152  0.5239 -0.0056
19295TIP3    H179376   4.096   6.620  13.972  1.5714  0.3353  1.3812
19295TIP3    H279377   3.987   6.516  13.962  0.3009  1.8231 -1.2648
19296TIP3   OH279378   0.496   6.536  12.915 -0.1678 -0.4999 -0.4409
19296TIP3    H179379   0.453   6.603  12.967  0.5902 -0.1389 -0.2625
19296TIP3    H279380   0.586   6.568  12.904 -0.1560 -0.8425 -1.4750
19297TIP3   OH279381   2.598   2.579   3.323 -0.0396 -0.3743  0.0806
19297TIP3    H179382   2.559   2.666   3.312  0.7523 -0.0747 -0.4809
19297TIP3    H279383   2.692   2.596   3.326  0.1879 -1.3083 -1.1248
19298TIP3   OH279384   0.359   0.744  11.138  0.1718 -0.4796 -0.5447
19298TIP3    H179385   0.266   0.764  11.151  0.0761 -1.5827  0.6190
19298TIP3    H279386   0.377   0.772  11.048 -1.2620 -0.1666 -0.7556
19299TIP3   OH279387   0.478   6.425   1.434  0.7056  0.2443  0.2413
19299TIP3    H179388   0.478   6.346   1.488 -1.1612  0.5793  0.8337
19299TIP3    H279389   0.533   6.487   1.482  1.3166 -0.3466  0.3159
19300TIP3   OH279390   1.800   4.052  15.287  0.4781  0.4026 -0.1737
19300TIP3    H179391   1.808   4.145  15.264 -2.6116  0.4791 -1.5073
19300TIP3    H279392   1.741   4.052  15.363  2.1773 -0.4252  1.2013
19301TIP3   OH279393   0.385   1.760  11.315 -0.4765 -0.3850 -0.3346
19301TIP3    H179394   0.442   1.689  11.288 -1.6298 -1.9178  1.0852
19301TIP3    H279395   0.370   1.811  11.235  3.1140  0.3578 -0.7001
19302TIP3   OH279396   5.111   3.873  13.405 -0.2675  0.0611  0.3618
19302TIP3    H179397   5.196   3.916  13.403 -0.2872  0.0868 -0.0124
19302TIP3    H279398   5.056   3.926  13.348  0.0506 -1.1628 -1.1754
19303TIP3   OH279399   0.510   2.312  13.373  0.2312 -0.0466  0.4903
19303TIP3    H179400   0.556   2.366  13.309  1.6083  0.1229  1.5791
19303TIP3    H279401   0.418   2.336  13.363  0.4522  0.1649 -1.2247
19304TIP3   OH279402   1.237   5.004   0.334  0.2059 -0.3842  0.9481
19304TIP3    H179403   1.227   5.090   0.375  0.9842 -0.9712  2.4189
19304TIP3    H279404   1.324   5.007   0.293  0.2319 -0.4639  0.9967
19305TIP3   OH279405   5.677   3.730   4.226 -0.3323  0.4557  0.0602
19305TIP3    H179406   5.738   3.658   4.244  0.0974  0.8360  0.1290
19305TIP3    H279407   5.601   3.711   4.280 -0.9986 -0.9414 -1.2867
19306TIP3   OH279408   4.876   6.741   1.799 -0.0050  0.0740 -0.0147
19306TIP3    H179409   4.889   6.657   1.843 -1.7382 -0.6007 -0.7117
19306TIP3    H279410   4.781   6.752   1.796 -0.0054  0.2180 -3.2481
19307TIP3   OH279411   4.244   1.739  13.137  0.0327 -1.1522 -0.2491
19307TIP3    H179412   4.197   1.767  13.215 -0.3260 -2.6582  0.1042
19307TIP3    H279413   4.200   1.659  13.109 -1.4525  0.5655 -3.4641
19308TIP3   OH279414   2.726   6.416  11.603  0.4872  0.1740 -0.2133
19308TIP3    H179415   2.705   6.508  11.617  1.3912  0.6996 -1.9629
19308TIP3    H279416   2.821   6.414  11.592  0.5705 -1.0901  0.5744
19309TIP3   OH279417   2.128   4.849  14.239 -0.2053  0.5082 -0.7662
19309TIP3    H179418   2.193   4.784  14.264 -3.1770 -2.6458 -0.4723
19309TIP3    H279419   2.112   4.832  14.146 -1.2573  0.5749 -0.6045
19310TIP3   OH279420   5.524   6.544  15.901 -0.5614 -0.2015 -0.4674
19310TIP3    H179421   5.531   6.606  15.829 -0.5677 -0.7796 -0.9651
19310TIP3    H279422   5.518   6.458  15.860  1.9604 -0.8124  0.2424
19311TIP3   OH279423   0.753   4.912   4.292  0.0324 -0.3723  0.1067
19311TIP3    H179424   0.827   4.967   4.320 -1.3103  1.2957  0.5769
19311TIP3    H279425   0.708   4.892   4.374 -1.1234  0.3167 -0.3410
19312TIP3   OH279426   1.331   2.257  16.609  0.2419 -0.3135 -0.4104
19312TIP3    H179427   1.270   2.313  16.562 -0.0307  1.3516  1.7752
19312TIP3    H279428   1.417   2.297  16.594  0.1760  0.1195  0.3330
19313TIP3   OH279429   0.523   6.418  13.978  0.4630  0.5131 -0.5598
19313TIP3    H179430   0.575   6.497  13.984  0.7754  0.2068  1.2729
19313TIP3    H279431   0.433   6.447  13.997  0.4289  0.5701 -0.8050
19314TIP3   OH279432   4.528   2.448  16.217  0.4751  0.5035 -0.1222
19314TIP3    H179433   4.464   2.378  16.231  0.9439 -0.2198 -1.3997
19314TIP3    H279434   4.583   2.446  16.296  0.4615 -0.5586 -0.1203
19315TIP3   OH279435   3.460   5.558  14.876  0.3620  0.5078 -0.5377
19315TIP3    H179436   3.401   5.484  14.893 -0.5371  1.2860 -0.1563
19315TIP3    H279437   3.499   5.538  14.791  1.4116 -1.2142  0.3001
19316TIP3   OH279438   6.532   0.779  13.536 -0.1041  0.2705  0.0731
19316TIP3    H179439   6.620   0.769  13.572 -0.4036 -0.4073  0.6442
19316TIP3    H279440   6.501   0.863  13.571  0.5957  0.9083 -0.7724
19317TIP3   OH279441   2.947   1.151  15.455  0.5464 -0.2565 -0.2203
19317TIP3    H179442   2.912   1.092  15.390  1.7763 -0.6427 -0.5643
19317TIP3    H279443   2.884   1.150  15.527 -0.9815  0.4219 -1.5090
19318TIP3   OH279444   2.578   1.795  10.287  0.1330 -0.0373 -0.3625
19318TIP3    H179445   2.581   1.738  10.210 -1.8764 -1.9230  0.8340
19318TIP3    H279446   2.554   1.881  10.253  1.7291 -0.1976 -2.0646
19319TIP3   OH279447   3.029   4.234  12.131 -0.4266  0.8499 -0.1034
19319TIP3    H179448   3.032   4.231  12.227 -1.0930  1.8163 -0.0358
19319TIP3    H279449   3.096   4.299  12.108  0.9114 -0.5769 -0.4148
19320TIP3   OH279450   1.104   3.706  14.096  0.4138  0.2593  0.1275
19320TIP3    H179451   1.094   3.611  14.086  0.9285  0.3196 -1.0854
19320TIP3    H279452   1.178   3.728  14.040 -0.3181  1.5205 -0.3794
19321TIP3   OH279453   2.474   1.920   1.158 -0.6657 -0.4283  0.2723
19321TIP3    H179454   2.534   1.994   1.161 -1.3841  0.1318  1.6201
19321TIP3    H279455   2.517   1.852   1.209 -0.0043 -0.9789 -0.9679
19322TIP3   OH279456   2.261   4.714   2.008 -0.1463  0.1692 -0.0451
19322TIP3    H179457   2.249   4.619   2.009  0.1554  0.0975 -1.1835
19322TIP3    H279458   2.355   4.726   2.022 -0.2113  0.3122  0.2762
19323TIP3   OH279459   0.557   5.193  14.416  0.1213 -0.2503  0.2663
19323TIP3    H179460   0.580   5.280  14.383  1.0186 -0.5778 -0.0118
19323TIP3    H279461   0.641   5.155  14.441 -0.1942 -1.2711 -0.2028
19324TIP3   OH279462   0.651   5.875  12.581  0.2113 -0.3509 -0.0758
19324TIP3    H179463   0.634   5.892  12.674  1.5888  0.6053  0.0282
19324TIP3    H279464   0.583   5.925  12.535 -0.3419 -0.6493  0.3943
19325TIP3   OH279465   2.832   0.342   4.957 -0.1324 -0.2324 -0.0191
19325TIP3    H179466   2.832   0.249   4.983  2.9913 -0.8639 -1.7075
19325TIP3    H279467   2.823   0.390   5.039 -1.3931 -2.0072  0.9455
19326TIP3   OH279468   4.968   2.693  15.244  0.5047  0.4271  0.5518
19326TIP3    H179469   5.049   2.648  15.266 -1.0531 -2.2478  1.2002
19326TIP3    H279470   4.945   2.662  15.156 -2.1304 -2.7107  2.1385
19327TIP3   OH279471   0.285   3.170  17.265  0.5215 -0.3856 -0.1959
19327TIP3    H179472   0.301   3.181  17.359 -0.2398 -0.2228 -0.0779
19327TIP3    H279473   0.372   3.156  17.227  0.9887  0.9077  0.3508
19328TIP3   OH279474   6.171   4.268   4.602  0.3326 -0.7301 -0.4457
19328TIP3    H179475   6.195   4.179   4.576  0.7649 -0.7016 -0.1526
19328TIP3    H279476   6.146   4.260   4.694 -1.6743 -0.9201 -0.9682
19329TIP3   OH279477   0.808   1.368  11.742 -0.1832  0.0071 -0.1092
19329TIP3    H179478   0.749   1.404  11.676 -1.1784  0.9104  1.2107
19329TIP3    H279479   0.856   1.444  11.775 -1.9586  0.1711  2.3702
19330TIP3   OH279480   0.468   4.150  16.094 -0.2443  0.0134  0.0696
19330TIP3    H179481   0.457   4.232  16.045  0.3670  0.2126  0.2591
19330TIP3    H279482   0.385   4.104  16.083 -0.1286  0.0744 -1.1171
19331TIP3   OH279483   0.351   0.749  11.466  0.3202 -0.4315  0.0134
19331TIP3    H179484   0.384   0.795  11.543 -0.4865  0.3189 -0.0702
19331TIP3    H279485   0.362   0.811  11.394  1.1923 -1.1782 -0.5162
19332TIP3   OH279486   0.288   6.678  16.538  0.0235 -0.0440  0.3239
19332TIP3    H179487   0.270   6.761  16.582 -2.7473 -0.2719 -0.2283
19332TIP3    H279488   0.328   6.703  16.455 -1.7695  0.8715 -0.3168
19333TIP3   OH279489   5.813   3.546  14.475  0.1099 -0.5348 -0.0569
19333TIP3    H179490   5.763   3.564  14.554  1.8249 -0.0914  0.9808
19333TIP3    H279491   5.747   3.541  14.406 -1.1952  3.0199  0.6998
19334TIP3   OH279492   1.789   4.253   1.420  0.0284  0.1666 -0.0143
19334TIP3    H179493   1.740   4.333   1.438  1.3917  1.0149  0.0943
19334TIP3    H279494   1.834   4.234   1.502 -0.9561 -1.2338  0.2307
19335TIP3   OH279495   6.438   3.298  12.563  0.0624 -0.4249  0.3518
19335TIP3    H179496   6.512   3.237  12.553  0.7624  0.0624  2.1318
19335TIP3    H279497   6.417   3.294  12.656 -2.6215 -1.0250 -0.2032
19336TIP3   OH279498   1.299   2.969  15.770  0.8912  0.2042 -0.6275
19336TIP3    H179499   1.350   3.038  15.814 -1.2149  0.5286  1.5003
19336TIP3    H279500   1.223   3.015  15.734  0.4420 -0.7382 -0.9034
19337TIP3   OH279501   1.528   1.904   5.060  0.1566 -0.6838  0.3376
19337TIP3    H179502   1.540   1.997   5.080 -4.1296 -0.0146  0.9181
19337TIP3    H279503   1.573   1.890   4.977  0.2425  2.1696 -0.1740
19338TIP3   OH279504   2.055   1.704   1.557  0.1091 -0.5258 -0.2168
19338TIP3    H179505   1.980   1.762   1.570 -0.3053 -1.1041  0.0243
19338TIP3    H279506   2.085   1.684   1.646  2.4374  2.0756 -0.3139
19339TIP3   OH279507   6.631   2.178   0.439  0.3359 -0.4349 -0.4630
19339TIP3    H179508   6.559   2.140   0.490 -0.0155 -1.2031 -1.4998
19339TIP3    H279509   6.590   2.209   0.359  0.9965  0.0984 -0.5975
19340TIP3   OH279510   3.267   5.522   6.169 -0.3523  0.6371 -0.2191
19340TIP3    H179511   3.245   5.605   6.211 -0.7548  1.0970 -1.2911
19340TIP3    H279512   3.327   5.479   6.229  0.3872  2.0097  0.0458
19341TIP3   OH279513   6.539   1.824   5.938 -0.4599  0.1019  0.3312
19341TIP3    H179514   6.542   1.840   6.032 -1.3647  0.3830  0.3184
19341TIP3    H279515   6.625   1.785   5.918 -0.5393 -0.6870  1.3927
19342TIP3   OH279516   5.990   1.781  13.248 -0.0663  0.1594  0.4014
19342TIP3    H179517   5.997   1.709  13.184 -1.4212 -0.2274  0.6719
19342TIP3    H279518   5.942   1.743  13.321 -0.0684  1.1151  0.9005
19343TIP3   OH279519   5.516   1.200  15.854  0.1019 -0.1237  0.2384
19343TIP3    H179520   5.572   1.245  15.917 -1.3400  0.9375  0.8364
19343TIP3    H279521   5.428   1.235  15.871 -0.5205 -0.6470 -1.6021
19344TIP3   OH279522   0.550   2.261   1.775 -0.0287  0.9258  0.3391
19344TIP3    H179523   0.566   2.218   1.691 -1.5704  1.2122 -0.1371
19344TIP3    H279524   0.613   2.334   1.776 -1.3350  2.1805 -1.5500
19345TIP3   OH279525   0.487   4.696   2.226 -0.4785 -0.4056  0.0408
19345TIP3    H179526   0.406   4.747   2.235 -0.3749 -0.0740 -0.7712
19345TIP3    H279527   0.461   4.621   2.172 -0.5477 -1.0385  0.9309
19346TIP3   OH279528   0.124   3.966  16.631 -0.4020 -0.3927  0.2308
19346TIP3    H179529   0.042   3.988  16.588  0.2903  1.0169 -0.4459
19346TIP3    H279530   0.126   3.871  16.634 -0.1869 -0.6161 -3.4805
19347TIP3   OH279531   4.695   0.852  12.087 -0.1077 -0.1617 -0.4812
19347TIP3    H179532   4.720   0.760  12.095  1.2539  0.1842 -0.5632
19347TIP3    H279533   4.768   0.901  12.125 -0.8702  0.8968 -0.3075
19348TIP3   OH279534   5.430   1.872  16.129 -0.1239 -0.3423 -0.1783
19348TIP3    H179535   5.351   1.818  16.130 -1.0068  0.8743 -1.2735
19348TIP3    H279536   5.400   1.959  16.103  1.8269 -0.2959 -2.6640
19349TIP3   OH279537   2.271   6.080   1.951  0.1486 -0.1438  0.4931
19349TIP3    H179538   2.217   6.127   1.887  0.1033 -0.1905  0.4968
19349TIP3    H279539   2.209   6.026   1.999  0.4753 -1.9600 -1.0170
19350TIP3   OH279540   5.973   5.791  13.457 -0.1198  0.2170 -0.1188
19350TIP3    H179541   5.882   5.780  13.433 -0.2098 -1.3504  0.7871
19350TIP3    H279542   6.002   5.869  13.410 -2.0120  0.9475 -0.1221
19351TIP3   OH279543   2.902   3.449   1.936  0.4316  0.0474  0.0485
19351TIP3    H179544   2.967   3.476   2.001  0.1508  1.8750 -0.3724
19351TIP3    H279545   2.819   3.484   1.970 -0.0510 -0.7171 -0.3100
19352TIP3   OH279546   3.177   5.153  17.041  0.4848 -0.1893  0.0931
19352TIP3    H179547   3.202   5.088  17.107  0.1873 -0.7970 -0.3807
19352TIP3    H279548   3.259   5.183  17.004  0.7432  1.1106  1.6109
19353TIP3   OH279549   5.361   4.197   4.363  0.5355 -0.6170  0.0378
19353TIP3    H179550   5.367   4.106   4.392 -2.1316 -1.1023 -0.6061
19353TIP3    H279551   5.281   4.230   4.405  0.4754  0.8443 -1.1496
19354TIP3   OH279552   2.318   4.576   4.812  0.3460 -0.1005  0.4124
19354TIP3    H179553   2.284   4.611   4.895  0.0100  0.9377 -0.1441
19354TIP3    H279554   2.388   4.637   4.788 -0.1548  0.1227 -0.5074
19355TIP3   OH279555   4.962   1.108  14.459 -0.1776 -0.4446  0.4319
19355TIP3    H179556   4.891   1.084  14.518  1.0597 -1.5408  1.5396
19355TIP3    H279557   5.016   1.030  14.454  0.5498  0.1134 -1.0113
19356TIP3   OH279558   6.219   1.999   2.088 -0.6629  0.0299 -0.7875
19356TIP3    H179559   6.234   2.093   2.089  0.3601 -0.1062  1.4202
19356TIP3    H279560   6.304   1.960   2.069 -0.0217 -0.4858  2.5161
19357TIP3   OH279561   3.526   0.618   2.328  0.2215  0.0033  0.5632
19357TIP3    H179562   3.489   0.705   2.340 -0.9856 -0.3518 -0.2457
19357TIP3    H279563   3.518   0.576   2.414 -1.0441  0.0537  0.4995
19358TIP3   OH279564   1.712   2.070  13.198 -0.0712  0.6437 -0.1898
19358TIP3    H179565   1.622   2.103  13.187 -0.0361  0.7594 -0.1279
19358TIP3    H279566   1.704   1.976  13.183 -0.6057  0.2838  1.9453
19359TIP3   OH279567   1.093   3.355   3.987 -0.8178  0.2891 -0.2468
19359TIP3    H179568   1.108   3.332   3.895 -1.0673  0.8666 -0.4337
19359TIP3    H279569   1.142   3.289   4.036 -0.8553 -0.1498 -0.7899
19360TIP3   OH279570   5.838   3.506   4.252  0.3402 -0.8446 -0.8627
19360TIP3    H179571   5.870   3.427   4.209  0.7868 -0.4770 -1.2095
19360TIP3    H279572   5.915   3.563   4.258  0.2136 -0.7716  0.1507
19361TIP3   OH279573   4.025   5.320  13.058 -0.1528  0.1395  0.3270
19361TIP3    H179574   4.120   5.328  13.051 -0.1291  0.4667  0.9571
19361TIP3    H279575   4.003   5.243  13.004  0.5000 -0.1462  0.4621
19362TIP3   OH279576   1.565   5.188  12.366  0.1604 -0.0351  0.4439
19362TIP3    H179577   1.505   5.166  12.295 -1.8396  1.1512  1.6502
19362TIP3    H279578   1.536   5.135  12.440  2.0607 -1.0840  0.5008
19363TIP3   OH279579   4.602   3.996  14.443 -0.4442 -0.1489  0.0161
19363TIP3    H179580   4.695   3.992  14.467  0.2729  1.0420 -2.3231
19363TIP3    H279581   4.592   3.931  14.373 -1.2738  0.0656 -0.0816
19364TIP3   OH279582   0.024   6.625   4.011 -0.2508 -0.0916  0.3154
19364TIP3    H179583  -0.052   6.638   3.954 -0.7370  1.8274  1.3034
19364TIP3    H279584  -0.011   6.577   4.087 -0.1210 -0.5795  0.0698
19365TIP3   OH279585   1.448   3.566   3.687 -0.8475  0.0551 -0.0138
19365TIP3    H179586   1.455   3.631   3.757  2.7024  0.1802 -0.3414
19365TIP3    H279587   1.430   3.484   3.732 -0.5162  0.4577  0.8728
19366TIP3   OH279588   4.502   3.777   4.461 -0.0365 -0.0371 -0.4218
19366TIP3    H179589   4.423   3.761   4.410  0.8214  0.3334 -1.9228
19366TIP3    H279590   4.522   3.692   4.502 -0.3217 -0.5401 -1.3106
19367TIP3   OH279591   0.159   4.953  14.121  0.2130  0.1167  0.2971
19367TIP3    H179592   0.213   4.919  14.193 -0.1780  0.6264  0.8394
19367TIP3    H279593   0.072   4.965  14.160 -0.0408  0.2597 -0.3034
19368TIP3   OH279594   4.558   2.635   5.124 -0.3493  0.5029  0.2246
19368TIP3    H179595   4.513   2.666   5.045 -0.5549 -0.7073 -0.1480
19368TIP3    H279596   4.504   2.666   5.196 -0.8789  0.4882 -0.1595
19369TIP3   OH279597   4.610   6.402   1.390  0.0115  0.0905  0.1205
19369TIP3    H179598   4.515   6.398   1.404  0.2090 -1.2843  1.3669
19369TIP3    H279599   4.636   6.311   1.378  1.2929  0.3475  0.7945
19370TIP3   OH279600   1.055   3.006   1.324  0.2327 -0.0101  0.2434
19370TIP3    H179601   0.990   3.072   1.297 -0.9695 -0.5683  1.6116
19370TIP3    H279602   1.139   3.043   1.299 -0.6164  0.4101 -2.3297
19371TIP3   OH279603   6.322   5.566   3.273 -0.2249 -0.2911 -0.1700
19371TIP3    H179604   6.350   5.476   3.292  1.1184  0.3599  1.0672
19371TIP3    H279605   6.340   5.614   3.354  1.3963  1.6374 -1.5857
19372TIP3   OH279606   6.181   6.207   4.060 -0.0924  0.0073 -0.0237
19372TIP3    H179607   6.115   6.138   4.063  0.3390 -0.4233 -0.3203
19372TIP3    H279608   6.264   6.161   4.072  0.4933  0.0564 -3.0760
19373TIP3   OH279609   5.086   2.105   5.947  0.1178  0.3178 -0.2888
19373TIP3    H179610   5.106   2.012   5.938  1.8110  0.6541 -0.4302
19373TIP3    H279611   5.172   2.148   5.951 -0.5215  2.2016 -3.3977
19374TIP3   OH279612   5.306   4.227  13.365  0.1847  0.0529  0.5344
19374TIP3    H179613   5.358   4.297  13.327 -1.4495  1.0536  0.0491
19374TIP3    H279614   5.218   4.264  13.373 -0.9513 -2.2057 -0.5754
19375TIP3   OH279615   5.805   4.713   2.902  0.5886  0.1654 -0.0890
19375TIP3    H179616   5.718   4.712   2.942  0.2328 -0.3910 -0.8549
19375TIP3    H279617   5.835   4.623   2.907 -0.4860 -0.4893 -3.1778
19376TIP3   OH279618   2.258   2.505   4.966  0.5955  0.3021 -0.0407
19376TIP3    H179619   2.346   2.515   4.930  0.6187 -0.7395 -0.3238
19376TIP3    H279620   2.230   2.419   4.934 -0.4259  0.5183  0.2526
19377TIP3   OH279621   0.921   0.795   1.933 -0.2084 -0.2402 -0.0473
19377TIP3    H179622   0.922   0.886   1.961 -0.5002 -0.0707 -0.5810
19377TIP3    H279623   0.869   0.795   1.853 -2.0271 -1.2170  1.0629
19378TIP3   OH279624   2.051   4.624   5.694 -0.2298 -0.1921  0.3600
19378TIP3    H179625   2.119   4.671   5.743 -0.6054  0.1544  0.5572
19378TIP3    H279626   1.969   4.651   5.735 -0.4521 -1.0308  0.4706
19379TIP3   OH279627   2.543   1.519   1.101 -0.5698  0.1879  1.0819
19379TIP3    H179628   2.520   1.516   1.194 -0.1407 -2.7987  1.1948
19379TIP3    H279629   2.507   1.438   1.066  2.3042 -0.4703 -0.5734
19380TIP3   OH279630   2.501   0.641   5.955  0.4756 -0.2576  0.1073
19380TIP3    H179631   2.472   0.574   6.016  0.7530 -0.1723  0.3334
19380TIP3    H279632   2.464   0.722   5.989  0.8879 -0.1656  0.3332
19381TIP3   OH279633   5.124   6.721   3.525  0.4220 -0.1038  0.4090
19381TIP3    H179634   5.052   6.660   3.536 -0.7162  1.5021  3.1626
19381TIP3    H279635   5.118   6.751   3.434 -1.1147 -1.4977  0.0171
19382TIP3   OH279636   5.045   5.073   4.343  0.6655  0.6021 -0.2224
19382TIP3    H179637   5.008   5.035   4.264  0.4879  0.1996  0.0509
19382TIP3    H279638   4.985   5.048   4.413  1.1437  0.4350  0.1370
19383TIP3   OH279639   5.489   3.334   6.458 -0.2700 -0.1233 -0.1264
19383TIP3    H179640   5.482   3.334   6.363  0.2266  0.2072 -0.1684
19383TIP3    H279641   5.561   3.273   6.477  0.8391  1.1641 -0.0739
19384TIP3   OH279642   5.341   0.021   3.062  0.3949  0.4264  1.2442
19384TIP3    H179643   5.414  -0.041   3.063  1.0898  1.1185 -0.8344
19384TIP3    H279644   5.383   0.107   3.065 -0.4819  0.8255  2.5237
19385TIP3   OH279645   4.791   2.073  16.238  0.0525 -0.1204 -0.5016
19385TIP3    H179646   4.805   2.032  16.153  0.8876 -1.2708  0.1534
19385TIP3    H279647   4.871   2.054  16.287 -0.5877  0.1358  0.6946
19386TIP3   OH279648   1.133   6.649  16.678 -0.0297 -0.1191  0.2104
19386TIP3    H179649   1.066   6.604  16.730  1.1192 -3.5524 -1.0491
19386TIP3    H279650   1.214   6.636  16.726  0.4277  0.1026 -0.4877
19387TIP3   OH279651   2.058   5.523  10.316 -0.0593  0.1654  0.1022
19387TIP3    H179652   2.134   5.581  10.314  0.3233 -0.2907  1.0162
19387TIP3    H279653   2.000   5.561  10.382 -1.0313  0.9853 -1.1786
19388TIP3   OH279654   1.180   0.373   1.162  0.2668 -0.2597  0.2218
19388TIP3    H179655   1.087   0.375   1.186  0.2626 -0.8841  0.2751
19388TIP3    H279656   1.182   0.331   1.076  0.4839 -0.1061  0.1519
19389TIP3   OH279657   1.336   2.984   1.830 -0.3552 -0.3593 -0.8060
19389TIP3    H179658   1.324   3.079   1.839 -0.0760 -0.3392 -0.6278
19389TIP3    H279659   1.412   2.964   1.885 -1.5624 -0.9901  0.7100
19390TIP3   OH279660   5.653   1.918  16.333  0.3788  0.0755  0.2622
19390TIP3    H179661   5.627   1.847  16.275 -0.8056  0.3002  0.4867
19390TIP3    H279662   5.570   1.954  16.365  0.9754  1.1542  0.6361
19391TIP3   OH279663   6.026   5.067  15.188 -0.2766 -0.0419 -0.1664
19391TIP3    H179664   6.076   5.015  15.125  0.2086  0.8342 -0.5347
19391TIP3    H279665   5.996   5.004  15.253  0.8020 -0.6971 -0.2681
19392TIP3   OH279666   6.705   3.619  12.573  0.6131 -0.3344 -0.4494
19392TIP3    H179667   6.796   3.593  12.590  0.3163 -0.7414  0.5932
19392TIP3    H279668   6.696   3.613  12.478  2.0464  0.9682 -0.7172
19393TIP3   OH279669   2.042   1.095   4.114  0.9497  0.1628 -0.7381
19393TIP3    H179670   2.137   1.100   4.100  0.9119  1.3695 -0.6581
19393TIP3    H279671   2.033   1.080   4.208  1.0609  0.2309 -0.7160
19394TIP3   OH279672   0.826   1.096   0.962 -0.2320 -0.3122 -0.4000
19394TIP3    H179673   0.917   1.092   0.932 -0.2847  0.1036 -0.6188
19394TIP3    H279674   0.779   1.137   0.889 -0.0492  2.5338  0.9552
19395TIP3   OH279675   4.002   0.116   5.217 -0.4983 -0.1608 -0.2952
19395TIP3    H179676   3.917   0.154   5.242 -0.5695 -1.2009  1.2458
19395TIP3    H279677   3.980   0.048   5.153 -0.6951  0.3503 -0.7730
19396TIP3   OH279678   1.026   4.305  14.132 -0.2832  0.0977  0.0596
19396TIP3    H179679   1.096   4.354  14.177 -2.3779  2.5838  0.8955
19396TIP3    H279680   1.001   4.237  14.195  1.8160 -1.3870 -0.5855
19397TIP3   OH279681   3.183   2.278  15.586  0.3945 -0.3932  0.1051
19397TIP3    H179682   3.206   2.202  15.640 -0.3688 -0.2105  0.7069
19397TIP3    H279683   3.220   2.258  15.500  3.5871  0.2916  1.1862
19398TIP3   OH279684   4.430   1.619  16.772  0.4735  0.0300  0.1599
19398TIP3    H179685   4.393   1.651  16.690  0.6928  0.0599  0.0741
19398TIP3    H279686   4.401   1.527  16.776 -1.9167  0.7302  1.4032
19399TIP3   OH279687   2.222   2.387   3.625  0.3376  0.2358  0.9186
19399TIP3    H179688   2.290   2.402   3.560  0.0396 -0.4504  0.4324
19399TIP3    H279689   2.146   2.436   3.594 -0.1885 -1.0389  0.0766
19400TIP3   OH279690   6.267   0.233  12.733  0.5945 -0.3000  0.6466
19400TIP3    H179691   6.302   0.297  12.795 -1.4929  0.4717  1.1069
19400TIP3    H279692   6.172   0.242  12.740  0.2640 -0.5855 -2.2760
19401TIP3   OH279693   1.634   1.843   3.713  0.1079 -0.1223  0.4940
19401TIP3    H179694   1.634   1.778   3.783 -0.2706  0.5946  1.1732
19401TIP3    H279695   1.719   1.886   3.720 -0.3339  0.6572  1.1949
19402TIP3   OH279696   1.631   3.218   5.596 -0.5762  0.1190  0.5085
19402TIP3    H179697   1.652   3.259   5.680 -1.2120 -1.7196  1.6265
19402TIP3    H279698   1.667   3.130   5.602 -0.4827 -0.0135 -1.2556
19403TIP3   OH279699   2.622   1.131  16.033 -0.4183 -0.5215 -0.2560
19403TIP3    H179700   2.638   1.218  15.996 -1.6934 -0.0845  0.1424
19403TIP3    H279701   2.683   1.074  15.987  0.6423  0.6218 -0.3348
19404TIP3   OH279702   2.323   3.534  12.333  0.0026  0.4470  0.2258
19404TIP3    H179703   2.377   3.477  12.388  1.2974  0.6139 -0.8187
19404TIP3    H279704   2.235   3.526  12.369  0.5436 -0.5876  1.3876
19405TIP3   OH279705   5.865   4.253   6.353 -0.2164 -0.1448 -0.1070
19405TIP3    H179706   5.810   4.196   6.406 -0.8045  2.5707  2.4744
19405TIP3    H279707   5.804   4.315   6.314  0.6979  1.2654  0.6244
19406TIP3   OH279708   5.492   3.038  15.496 -0.4689  0.5842 -0.1198
19406TIP3    H179709   5.407   3.077  15.520 -0.5291 -0.1029  0.8421
19406TIP3    H279710   5.471   2.977  15.425 -1.1223 -0.9725  1.3446
19407TIP3   OH279711   5.584   0.293  15.612 -0.0607 -0.3176  0.0728
19407TIP3    H179712   5.603   0.377  15.654  0.6259 -0.4828  0.0948
19407TIP3    H279713   5.491   0.299  15.589  0.2761  1.0054 -1.1711
19408TIP3   OH279714   2.794   4.655  13.287 -0.2417  0.5577 -0.1785
19408TIP3    H179715   2.748   4.605  13.354 -1.8068  1.1283 -0.7838
19408TIP3    H279716   2.770   4.746  13.304 -0.6574  0.7102 -1.4724
19409TIP3   OH279717   0.330   1.756   2.980 -0.3829 -0.5651 -0.1517
19409TIP3    H179718   0.315   1.769   3.073  1.1009  0.4543 -0.0307
19409TIP3    H279719   0.291   1.832   2.938 -0.5386 -0.7418 -0.3349
19410TIP3   OH279720   3.699   1.757   3.681  0.3596 -0.1253 -0.3991
19410TIP3    H179721   3.770   1.759   3.746  0.9891 -0.9664 -1.0405
19410TIP3    H279722   3.639   1.690   3.712 -1.4433  2.1268  1.3911
19411TIP3   OH279723   2.757   4.240   5.276 -0.2007  0.0746  0.3187
19411TIP3    H179724   2.713   4.323   5.297 -2.1554 -0.3155 -1.8549
19411TIP3    H279725   2.818   4.262   5.206 -0.6667 -0.3052 -0.2102
19412TIP3   OH279726   5.446   0.649  17.191 -0.4701 -0.3858  0.3809
19412TIP3    H179727   5.438   0.560  17.228 -0.5514 -0.8013 -0.6128
19412TIP3    H279728   5.518   0.688  17.240  0.1637 -1.3188  0.2207
19413TIP3   OH279729   2.834   3.944  12.214  0.1463  0.0187  0.0727
19413TIP3    H179730   2.856   4.037  12.222  0.5630 -0.0142 -0.6019
19413TIP3    H279731   2.772   3.928  12.285 -0.5413  0.9932 -0.2818
19414TIP3   OH279732   2.014   2.729   5.449 -0.4363  0.7364  0.3449
19414TIP3    H179733   1.980   2.659   5.505  1.2956  0.5657  1.2512
19414TIP3    H279734   2.097   2.695   5.417 -0.7982  1.3594 -1.3533
19415TIP3   OH279735   5.383   5.394  15.576 -0.1484 -0.1188  0.2871
19415TIP3    H179736   5.476   5.401  15.552 -0.5454  0.5660 -1.1189
19415TIP3    H279737   5.338   5.454  15.517 -1.3086  0.9818  2.1903
19416TIP3   OH279738   0.428   1.028  17.240 -0.9040 -0.4634  0.1125
19416TIP3    H179739   0.352   0.981  17.204 -1.0791  0.2590 -0.4739
19416TIP3    H279740   0.503   0.972  17.219 -0.8694  0.3970 -2.3221
19417TIP3   OH279741   2.842   0.173   4.033  0.4366  0.4532 -0.2620
19417TIP3    H179742   2.929   0.203   4.055  0.0744  1.6674 -0.4448
19417TIP3    H279743   2.856   0.096   3.977  1.3653  0.3386  0.1210
19418TIP3   OH279744   3.073   6.702  12.402  0.8909  0.5574  0.3728
19418TIP3    H179745   3.033   6.648  12.471  1.1182  0.9729  0.8331
19418TIP3    H279746   3.039   6.790  12.418  1.5318  0.7990  0.4085
19419TIP3   OH279747   3.164   6.212   4.411 -0.3383  0.2610  0.0473
19419TIP3    H179748   3.142   6.119   4.404 -1.1115  0.3475  1.1550
19419TIP3    H279749   3.219   6.218   4.489 -0.0542  0.7040 -0.1810
19420TIP3   OH279750   4.996   4.892   2.061 -0.2172 -0.4515  0.8507
19420TIP3    H179751   5.065   4.957   2.073  0.2537 -1.0575  1.5143
19420TIP3    H279752   5.041   4.808   2.068 -0.4581 -0.9119 -1.9701
19421TIP3   OH279753   0.570   1.858  15.119  0.0967 -0.4517 -0.4075
19421TIP3    H179754   0.597   1.767  15.132  2.3836  0.3267  0.8912
19421TIP3    H279755   0.624   1.889  15.046  2.0210  0.8016  1.4410
19422TIP3   OH279756   4.716   6.434   0.584 -0.0525  0.2264  0.0692
19422TIP3    H179757   4.767   6.410   0.662 -0.8304 -0.1755  0.4666
19422TIP3    H279758   4.741   6.369   0.518 -0.9108 -0.7094  0.6322
19423TIP3   OH279759   5.205   0.805  17.150  0.2180 -0.3261  0.2968
19423TIP3    H179760   5.285   0.752  17.150  0.1978 -0.3597 -0.1499
19423TIP3    H279761   5.195   0.833  17.241  0.4899 -0.6963  0.4422
19424TIP3   OH279762   5.032   0.566   2.916  0.0332  0.9972 -0.1291
19424TIP3    H179763   5.051   0.476   2.939  0.5941  1.3254  0.7190
19424TIP3    H279764   5.031   0.567   2.820 -0.9261 -0.0920 -0.1468
19425TIP3   OH279765   0.957   1.698   5.953  0.1886  0.1625  0.1377
19425TIP3    H179766   0.977   1.730   5.865  0.6821  0.8421  0.4866
19425TIP3    H279767   0.870   1.732   5.971  0.4708  0.8335  0.2741
19426TIP3   OH279768   6.102   2.553  14.748 -0.1955  0.1594 -0.8224
19426TIP3    H179769   6.068   2.510  14.670 -1.5307  0.7255 -0.5793
19426TIP3    H279770   6.024   2.576  14.798  0.4197  2.9020 -0.9713
19427TIP3   OH279771   3.785   2.320  14.121  0.3566 -0.0835  0.4035
19427TIP3    H179772   3.832   2.261  14.063 -0.8405 -0.2129 -0.4537
19427TIP3    H279773   3.845   2.333  14.195  0.8097 -2.0552  0.4376
19428TIP3   OH279774   2.157   0.455   4.835 -0.1515 -0.4656 -0.6578
19428TIP3    H179775   2.193   0.511   4.766 -0.3887  0.1968 -0.2609
19428TIP3    H279776   2.116   0.383   4.789  0.6599 -0.6210 -1.1634
19429TIP3   OH279777   5.039   3.285  11.518  0.2227  0.6214 -0.5942
19429TIP3    H179778   5.051   3.226  11.444 -2.2125 -1.9041  0.7973
19429TIP3    H279779   5.054   3.230  11.595 -0.3519  2.3108  0.7981
19430TIP3   OH279780   3.847   4.230  15.385  0.0537 -0.5479  0.5185
19430TIP3    H179781   3.828   4.318  15.352  1.2172  0.8194  3.1943
19430TIP3    H279782   3.882   4.184  15.309 -0.8892  1.1563 -1.0556
19431TIP3   OH279783   3.096   6.352   0.837 -0.2774  0.9440 -0.0821
19431TIP3    H179784   3.047   6.379   0.760  1.2111  0.2631 -1.3140
19431TIP3    H279785   3.078   6.258   0.845  0.5606  0.7461 -0.3790
19432TIP3   OH279786   1.845   4.344   5.748  0.3070 -0.0638 -0.1341
19432TIP3    H179787   1.855   4.360   5.842  1.5485 -0.2220 -0.2158
19432TIP3    H279788   1.825   4.430   5.711 -1.4526 -0.2116  0.4072
19433TIP3   OH279789   2.648   2.872  10.473 -0.1279 -0.0589 -0.4296
19433TIP3    H179790   2.601   2.919  10.542 -1.4660 -0.4503 -1.0418
19433TIP3    H279791   2.655   2.935  10.401  1.5693  0.4659  0.1322
19434TIP3   OH279792   1.986   0.546   5.286  0.5366  0.1499 -0.1824
19434TIP3    H179793   2.061   0.509   5.333  1.4111  0.2338 -1.4598
19434TIP3    H279794   1.982   0.496   5.204 -0.2704  0.7226 -0.5031
19435TIP3   OH279795   6.090   1.327  11.359  0.3007  0.4712  0.1426
19435TIP3    H179796   6.024   1.391  11.386 -0.4885  0.8056 -2.3339
19435TIP3    H279797   6.046   1.242  11.367  0.5766  0.4207  1.2481
19436TIP3   OH279798   0.177   2.231   2.233  0.0620  0.5217  0.2963
19436TIP3    H179799   0.221   2.315   2.226  0.9282  0.0571 -0.0067
19436TIP3    H279800   0.154   2.208   2.143  1.0712 -0.1978  0.2037
19437TIP3   OH279801   6.605   2.083  16.203 -0.5924 -0.3647  0.1052
19437TIP3    H179802   6.656   2.160  16.178 -0.7850 -0.0936  0.5374
19437TIP3    H279803   6.514   2.111  16.193 -0.6620 -0.8245 -0.5958
19438TIP3   OH279804   0.368   2.847   1.138 -0.1919 -0.0400  0.0192
19438TIP3    H179805   0.361   2.860   1.233 -1.2387  0.3465 -0.0995
19438TIP3    H279806   0.352   2.753   1.126 -1.2850  0.1129  0.1362
19439TIP3   OH279807   2.846   0.778   4.250  0.2475 -0.9357  0.8384
19439TIP3    H179808   2.921   0.837   4.250 -0.3050 -0.2228  0.3892
19439TIP3    H279809   2.783   0.820   4.308 -0.2006 -1.0144  0.4127
19440TIP3   OH279810   6.238   5.667  12.637  0.0489  0.4094  0.5889
19440TIP3    H179811   6.204   5.582  12.664 -0.1265 -0.3279 -1.6997
19440TIP3    H279812   6.193   5.685  12.554  1.3446  1.9336  0.1723
19441TIP3   OH279813   1.489   3.433  14.196  0.4228 -0.4503  0.8893
19441TIP3    H179814   1.531   3.442  14.281  2.8277 -0.4138 -0.2325
19441TIP3    H279815   1.546   3.375  14.146 -1.1053 -0.7599 -0.6108
19442TIP3   OH279816   5.521   1.253   6.711  0.6677 -0.5052  0.3196
19442TIP3    H179817   5.483   1.204   6.639  0.1746 -1.7868  1.4108
19442TIP3    H279818   5.513   1.345   6.684 -0.8231 -0.8747 -0.6227
19443TIP3   OH279819   4.287   6.547   1.834  0.0558 -0.4499  0.8189
19443TIP3    H179820   4.303   6.512   1.922 -0.2154  0.7106  1.3436
19443TIP3    H279821   4.202   6.510   1.808  0.1041 -0.7400  1.0712
19444TIP3   OH279822   1.857   2.841   4.327  0.2448 -0.2259 -0.0668
19444TIP3    H179823   1.942   2.813   4.362  0.7472  1.1420 -0.1431
19444TIP3    H279824   1.848   2.932   4.355 -1.3907 -0.4549  0.2893
19445TIP3   OH279825   4.429   1.335   1.361 -0.5076 -0.3048  0.1532
19445TIP3    H179826   4.413   1.355   1.269  1.0651 -1.4082 -0.3945
19445TIP3    H279827   4.360   1.273   1.385  0.1502 -1.4535 -0.8314
19446TIP3   OH279828   4.466   5.510  14.149  0.8790  0.4362 -0.0839
19446TIP3    H179829   4.477   5.595  14.108  1.1545  0.1388 -0.6436
19446TIP3    H279830   4.459   5.449  14.076  1.9560 -0.1783  0.3032
19447TIP3   OH279831   3.113   4.735   6.184 -0.2445 -0.6077  0.1497
19447TIP3    H179832   3.061   4.656   6.199 -1.1208  0.4099  3.0424
19447TIP3    H279833   3.156   4.752   6.267  3.2491 -0.2378 -1.5393
19448TIP3   OH279834   0.582   4.219   5.590  1.0814  0.2468 -0.1146
19448TIP3    H179835   0.495   4.202   5.628  0.4551 -0.4209 -1.7592
19448TIP3    H279836   0.632   4.139   5.609  1.2241  0.4697  0.4796
19449TIP3   OH279837   6.111   0.987  16.025 -0.3687 -0.3511 -0.5329
19449TIP3    H179838   6.141   0.969  16.114 -0.9481 -1.4701 -0.5535
19449TIP3    H279839   6.016   0.981  16.030 -0.3689 -1.2855 -1.4058
19450TIP3   OH279840   5.697   4.044   0.114  0.4101  0.1125 -0.1654
19450TIP3    H179841   5.698   4.003   0.027  0.7030 -2.8756  1.1318
19450TIP3    H279842   5.757   3.991   0.166 -0.2955  1.3914  2.0675
19451TIP3   OH279843   1.171   6.634  14.077 -0.8395 -0.3327  0.3180
19451TIP3    H179844   1.219   6.666  14.000  0.7323  0.0073  1.3912
19451TIP3    H279845   1.100   6.697  14.088 -1.7166 -0.9546 -1.4270
19452TIP3   OH279846   2.532   4.854  14.704 -1.0406 -0.3535 -0.9664
19452TIP3    H179847   2.526   4.863  14.799  0.8160 -0.2480 -0.8149
19452TIP3    H279848   2.517   4.943  14.671 -0.3087 -0.1068 -0.6597
19453TIP3   OH279849   1.500   2.492  13.532 -0.5914  0.5113 -1.0703
19453TIP3    H179850   1.541   2.410  13.558 -2.2497 -0.2340 -0.6697
19453TIP3    H279851   1.518   2.500  13.438  0.2766  0.1277 -0.9440
19454TIP3   OH279852   3.007   2.339   3.920 -0.8380  0.3388  0.0327
19454TIP3    H179853   3.011   2.371   4.011 -1.6335 -0.4257  0.3497
19454TIP3    H279854   3.098   2.315   3.900 -0.7479 -0.0436  0.8396
19455TIP3   OH279855   1.353   5.291  11.402 -0.3725 -0.2098  0.8414
19455TIP3    H179856   1.310   5.207  11.416  0.8919 -0.9616  0.4000
19455TIP3    H279857   1.350   5.304  11.307 -1.1558  0.5836  0.9662
19456TIP3   OH279858   2.975   5.916  11.834  0.4122  0.2308  0.7140
19456TIP3    H179859   2.911   5.984  11.813 -0.6757 -1.6499 -3.0173
19456TIP3    H279860   3.049   5.964  11.871 -0.5959  3.3700 -0.9094
19457TIP3   OH279861   4.520   4.641   5.386  0.2522 -0.3653 -0.0945
19457TIP3    H179862   4.500   4.651   5.479  0.7249 -0.1389 -0.0155
19457TIP3    H279863   4.454   4.695   5.342 -1.8429 -2.7661 -0.0741
19458TIP3   OH279864   1.944   4.298   1.665  0.5073 -0.1626 -0.0349
19458TIP3    H179865   1.996   4.376   1.682 -0.7679  1.0758 -1.4696
19458TIP3    H279866   2.000   4.243   1.610  0.9687  0.3070 -0.0404
19459TIP3   OH279867   0.685   0.811  12.532 -0.1706 -0.1587  0.4392
19459TIP3    H179868   0.677   0.723  12.495  0.9204  0.2753 -0.9456
19459TIP3    H279869   0.671   0.800  12.626 -0.6700 -1.6996  0.1999
19460TIP3   OH279870   5.811   2.501   0.030  0.2903  0.3342  0.1773
19460TIP3    H179871   5.797   2.414   0.067  1.5440 -0.4282 -0.9960
19460TIP3    H279872   5.799   2.489  -0.064  0.6099  1.3936 -0.0166
19461TIP3   OH279873   1.497   3.141  14.123 -0.3790  0.5651 -0.9761
19461TIP3    H179874   1.539   3.055  14.127 -1.3516  0.0808 -0.6751
19461TIP3    H279875   1.565   3.200  14.093  0.9696  0.1004  0.9995
19462TIP3   OH279876   2.213   5.861   1.133  0.5347  0.9964  0.4361
19462TIP3    H179877   2.305   5.880   1.114  1.0798 -1.0019  0.9268
19462TIP3    H279878   2.173   5.845   1.048  0.1146  3.6870  0.0105
19463TIP3   OH279879   1.243   4.796  11.359 -0.1737  0.1733 -0.7988
19463TIP3    H179880   1.171   4.766  11.304  0.9556  0.3657 -2.4289
19463TIP3    H279881   1.312   4.821  11.298  0.9957  0.7631  0.6947
19464TIP3   OH279882   1.025   4.799  13.887 -0.5302 -0.2817 -0.6095
19464TIP3    H179883   1.014   4.710  13.852 -1.8911  0.2279 -1.5452
19464TIP3    H279884   1.119   4.815  13.880  0.2212 -2.6187  2.0934
19465TIP3   OH279885   1.396   0.107   4.829 -0.1457 -0.8948 -0.3861
19465TIP3    H179886   1.406   0.063   4.745 -0.9571 -1.3869 -0.2419
19465TIP3    H279887   1.319   0.163   4.819 -0.0996 -0.7656 -0.0535
19466TIP3   OH279888   6.010   4.837   1.840 -0.0702  0.3544  0.3522
19466TIP3    H179889   5.998   4.771   1.771 -0.6984  1.5859 -0.7657
19466TIP3    H279890   6.062   4.906   1.799 -0.7402  1.2693  0.9973
19467TIP3   OH279891   3.192   4.038   0.975 -0.2637  0.1818  0.5052
19467TIP3    H179892   3.174   4.129   0.952  1.1791  0.9796  2.2819
19467TIP3    H279893   3.272   4.041   1.027  0.4729 -2.2483 -0.3128
19468TIP3   OH279894   5.641   6.244  10.465 -0.2172 -0.0394  0.0118
19468TIP3    H179895   5.546   6.257  10.457  0.0264  1.5870 -0.6276
19468TIP3    H279896   5.656   6.231  10.558 -1.1472 -1.2087  0.0294
19469TIP3   OH279897   2.047   3.400  11.701 -0.2964  0.3681  0.5495
19469TIP3    H179898   2.047   3.492  11.676 -1.2137  0.1900 -0.1751
19469TIP3    H279899   2.066   3.400  11.795 -0.3259  1.3008  0.5582
19470TIP3   OH279900   3.498   5.651   4.337 -1.0465  0.8664 -0.3519
19470TIP3    H179901   3.487   5.565   4.297 -0.0389  0.7974 -0.4962
19470TIP3    H279902   3.411   5.692   4.330 -1.3431  0.1559 -0.9514
19471TIP3   OH279903   6.707   4.939  15.858  0.4010 -0.0812 -0.1412
19471TIP3    H179904   6.793   4.981  15.856  0.5157 -0.3293 -0.6237
19471TIP3    H279905   6.672   4.958  15.945  0.3111  1.2958 -0.4570
19472TIP3   OH279906   1.233   5.963  11.504  0.2662  0.0419  0.4281
19472TIP3    H179907   1.238   5.964  11.409 -0.2415 -0.6994  0.3904
19472TIP3    H279908   1.247   5.872  11.529  1.0564  0.3278  1.1113
19473TIP3   OH279909   1.586   6.522   2.056  0.2432  0.6189  0.6312
19473TIP3    H179910   1.507   6.469   2.049  0.0397  0.3958  3.3590
19473TIP3    H279911   1.631   6.510   1.972 -1.0837 -1.7324  0.1705
19474TIP3   OH279912   5.514   4.276  13.861  0.3290  0.1753 -0.9134
19474TIP3    H179913   5.537   4.249  13.950  0.6013  0.1350 -0.9922
19474TIP3    H279914   5.596   4.309  13.824  0.3516 -0.3320 -1.3344
19475TIP3   OH279915   5.485   6.538  16.229 -0.0250  0.0994  0.2324
19475TIP3    H179916   5.455   6.474  16.164 -0.0750 -0.6079  0.9472
19475TIP3    H279917   5.464   6.623  16.189 -0.5300 -0.3323 -0.4538
19476TIP3   OH279918   6.595   3.529  13.909 -0.3182  0.0953 -0.2532
19476TIP3    H179919   6.538   3.540  13.833  0.6498 -1.1008 -1.1974
19476TIP3    H279920   6.666   3.592  13.895  0.0270 -0.3471 -0.5183
19477TIP3   OH279921   6.558   4.403  12.351  0.1217 -0.2879 -0.2183
19477TIP3    H179922   6.614   4.425  12.276 -0.7462  1.2240 -0.4671
19477TIP3    H279923   6.491   4.471  12.351  0.8381  0.5814  2.6943
19478TIP3   OH279924   4.184   4.166  13.969  0.2807 -0.0318  0.0723
19478TIP3    H179925   4.089   4.152  13.974  0.1464  0.5604 -0.7754
19478TIP3    H279926   4.220   4.079  13.957 -0.2957 -0.0901 -1.4535
19479TIP3   OH279927   3.378   1.293  15.522  0.5992  0.1145 -0.1684
19479TIP3    H179928   3.428   1.372  15.501  0.4143  0.2103 -0.2524
19479TIP3    H279929   3.287   1.318  15.508  0.5610 -0.2121 -0.5310
19480TIP3   OH279930   0.611   0.712   2.720 -0.3384 -0.2476 -0.5439
19480TIP3    H179931   0.572   0.654   2.654 -1.5875  2.3665 -2.2727
19480TIP3    H279932   0.570   0.686   2.802 -0.3224 -2.2138 -1.0916
19481TIP3   OH279933   4.906   2.136  16.605 -0.4263  0.0827 -0.5651
19481TIP3    H179934   4.987   2.183  16.628 -0.9045  0.5968  0.1036
19481TIP3    H279935   4.918   2.049  16.642 -0.1082  0.1032 -0.6121
19482TIP3   OH279936   0.346   6.572  15.448  0.4148  0.7445  0.0536
19482TIP3    H179937   0.351   6.629  15.525 -1.1466 -0.3700  1.0454
19482TIP3    H279938   0.390   6.491  15.475 -0.1571  0.3363 -0.2240
19483TIP3   OH279939   5.259   4.882   1.858 -0.3091  0.4820  0.2948
19483TIP3    H179940   5.194   4.845   1.799 -2.0399  2.8699  0.5541
19483TIP3    H279941   5.343   4.858   1.820 -1.3524 -0.4791 -1.5398
19484TIP3   OH279942   2.809   0.445   4.699  0.5315  0.1873 -0.2228
19484TIP3    H179943   2.829   0.412   4.786  0.0871  0.7009  0.0772
19484TIP3    H279944   2.825   0.539   4.704 -1.5796  0.5852 -0.0584
19485TIP3   OH279945   2.147   3.848  13.090  0.6484  0.1459  0.7875
19485TIP3    H179946   2.194   3.906  13.031 -0.1088 -0.4932 -0.4844
19485TIP3    H279947   2.119   3.775  13.035  0.4254 -0.7674  2.0664
19486TIP3   OH279948   0.104   4.011  17.053 -0.3624  0.4385 -0.0219
19486TIP3    H179949   0.021   3.983  17.014 -0.0936  0.8840 -0.9584
19486TIP3    H279950   0.079   4.070  17.123 -0.8640 -0.3587  0.4873
19487TIP3   OH279951   4.110   4.542  15.161 -0.5174  0.1744 -0.0288
19487TIP3    H179952   4.172   4.536  15.235 -0.5093  1.1370  0.0586
19487TIP3    H279953   4.136   4.471  15.103  0.3515  0.2419  0.2548
19488TIP3   OH279954   0.575   1.834   5.102 -0.1925 -0.5144 -0.2542
19488TIP3    H179955   0.580   1.901   5.033 -0.5685  1.1977  1.3039
19488TIP3    H279956   0.654   1.848   5.155 -0.8479 -0.5333  0.7517
19489TIP3   OH279957   6.531   4.216  16.994 -0.0790  0.0019 -0.4062
19489TIP3    H179958   6.512   4.277  16.923 -0.0574  0.3303 -0.1315
19489TIP3    H279959   6.547   4.271  17.071  1.6935 -0.2549 -0.5373
19490TIP3   OH279960   0.555   3.542   4.575  0.0158  0.4550 -0.9629
19490TIP3    H179961   0.473   3.535   4.527 -0.1545  0.1748 -0.6279
19490TIP3    H279962   0.622   3.517   4.512 -0.2536 -0.4387 -0.8981
19491TIP3   OH279963   5.201   0.013   4.812  0.1060 -0.2861  0.2634
19491TIP3    H179964   5.213   0.107   4.797 -1.1411 -0.2223 -0.4633
19491TIP3    H279965   5.290  -0.022   4.808  0.6922  0.9710  1.4652
19492TIP3   OH279966   4.979   2.111  12.464 -0.1164 -0.2821 -0.4705
19492TIP3    H179967   4.910   2.062  12.509 -0.4802 -0.3680 -1.1154
19492TIP3    H279968   5.000   2.183  12.523 -0.5001 -0.4659 -0.1084
19493TIP3   OH279969   0.572   5.654  12.206 -0.1109  0.5461  0.1785
19493TIP3    H179970   0.658   5.690  12.187 -0.9207  1.4770 -2.1416
19493TIP3    H279971   0.575   5.566  12.168 -0.3027  0.7515 -0.3273
19494TIP3   OH279972   5.349   3.913   4.159 -0.3168  0.2935 -0.1115
19494TIP3    H179973   5.262   3.936   4.194 -1.1601  0.0297 -1.9014
19494TIP3    H279974   5.374   3.834   4.208 -0.6101  0.9399  1.1232
19495TIP3   OH279975   3.547   0.911  11.783  0.4179  0.0945  0.3609
19495TIP3    H179976   3.604   0.863  11.843  2.1539  1.7695  0.1535
19495TIP3    H279977   3.482   0.952  11.839  0.6150 -0.2309  0.8316
19496TIP3   OH279978   4.752   3.284  14.242 -0.1045  0.4383  0.2702
19496TIP3    H179979   4.796   3.298  14.158  0.3325  0.6688  0.5343
19496TIP3    H279980   4.793   3.205  14.278  1.6510  1.7991  1.4900
19497TIP3   OH279981   3.022   5.161  12.097  0.1919  0.1088  0.0353
19497TIP3    H179982   2.951   5.213  12.136  0.0504 -0.7580  0.9472
19497TIP3    H279983   2.978   5.104  12.035 -0.1276 -1.4344  1.6176
19498TIP3   OH279984   1.834   3.816   4.404  0.0967 -0.5059 -0.4194
19498TIP3    H179985   1.746   3.822   4.441 -0.2494 -0.5277 -1.2116
19498TIP3    H279986   1.878   3.750   4.457 -0.3352 -0.4284  0.0438
19499TIP3   OH279987   0.712   0.301  12.396  0.1896 -0.4314 -0.2912
19499TIP3    H179988   0.640   0.298  12.333  0.2952  0.8344 -0.5041
19499TIP3    H279989   0.722   0.394  12.415  0.8907 -0.7103  0.7608
19500TIP3   OH279990   0.251   5.786  11.996 -0.1932 -0.4270  0.3754
19500TIP3    H179991   0.231   5.855  11.933  0.6994  0.1655  0.7231
19500TIP3    H279992   0.171   5.775  12.047  0.4766  2.4113  2.2464
19501TIP3   OH279993   3.051   1.087   2.763 -0.7642  0.2036 -0.0437
19501TIP3    H179994   3.051   0.997   2.730  0.4121  0.6374 -1.3414
19501TIP3    H279995   2.959   1.106   2.779 -1.6104  0.1531 -3.8488
19502TIP3   OH279996   4.650   2.233  15.420  0.3937  0.2140 -0.5401
19502TIP3    H179997   4.664   2.311  15.475  0.9282 -0.3178  0.0944
19502TIP3    H279998   4.578   2.187  15.463 -0.3490  0.6635 -1.2719
19503TIP3   OH279999   4.379   4.991  12.242 -0.2533  0.0518 -0.1203
19503TIP3    H180000   4.327   4.910  12.245 -1.4802  0.8704  1.7611
19503TIP3    H280001   4.342   5.040  12.168  0.6708 -1.1447 -1.4507
19504TIP3   OH280002   0.381   2.017  12.691  0.5078  0.4483 -0.4438
19504TIP3    H180003   0.354   2.062  12.771  0.5686  0.2712 -0.3225
19504TIP3    H280004   0.477   2.013  12.698  0.4266 -0.9639  0.2410
19505TIP3   OH280005   0.796   3.201   1.598 -0.1834 -0.0859  0.0002
19505TIP3    H180006   0.754   3.119   1.624 -2.2477  0.9580  0.1661
19505TIP3    H280007   0.726   3.252   1.556  0.9544  1.6812  0.1166
19506TIP3   OH280008   4.827   5.142  14.721 -0.1385  0.0871  0.3435
19506TIP3    H180009   4.917   5.167  14.701 -0.3639  1.5136  1.0333
19506TIP3    H280010   4.786   5.132  14.635  0.3047  0.8585  0.0318
19507TIP3   OH280011   1.459   6.224  16.019 -0.4172  0.1641  0.5219
19507TIP3    H180012   1.510   6.145  16.034  0.2349 -0.2435 -2.9681
19507TIP3    H280013   1.368   6.195  16.023 -0.1896 -0.6816 -0.1947
19508TIP3   OH280014   4.747   1.683  13.420 -0.0769 -0.1481  0.3917
19508TIP3    H180015   4.789   1.614  13.472  0.6275 -0.2573 -0.2919
19508TIP3    H280016   4.720   1.638  13.339 -1.8697 -0.1618  0.9572
19509TIP3   OH280017   4.665   0.875  13.696  0.6618  0.2818 -0.4633
19509TIP3    H180018   4.674   0.780  13.687 -0.8756  0.0411  0.2383
19509TIP3    H280019   4.623   0.903  13.615 -3.0809 -0.3506  1.0422
19510TIP3   OH280020   1.023   3.398   5.629 -0.2745  0.1035  0.1814
19510TIP3    H180021   1.019   3.303   5.617 -0.9171  0.2019 -0.4897
19510TIP3    H280022   0.933   3.427   5.613  0.3432  1.0623 -1.9454
19511TIP3   OH280023   1.965   1.184  13.074  0.2070  0.2980 -0.0131
19511TIP3    H180024   1.950   1.139  12.991  0.7212 -0.7298  0.4327
19511TIP3    H280025   1.908   1.261  13.070 -2.4878 -1.5434  0.1304
19512TIP3   OH280026   1.696   6.655  11.902 -0.0533  0.3759  0.4486
19512TIP3    H180027   1.646   6.588  11.949 -1.2087  0.5780 -0.4419
19512TIP3    H280028   1.689   6.630  11.810 -3.5113  3.4517 -0.3891
19513TIP3   OH280029   5.166   4.067  16.323 -0.5364 -0.3218 -0.6116
19513TIP3    H180030   5.072   4.048  16.323 -1.0054  1.6065  0.6557
19513TIP3    H280031   5.183   4.104  16.237 -1.1077 -0.1196 -0.6457
19514TIP3   OH280032   0.365   1.734   1.345 -0.2696 -0.4658  0.1593
19514TIP3    H180033   0.457   1.751   1.326 -0.2124 -1.5444 -0.5635
19514TIP3    H280034   0.338   1.808   1.401  0.7889  0.3163 -0.3384
19515TIP3   OH280035   5.260   4.844   1.428  0.3342  0.4510  0.3264
19515TIP3    H180036   5.201   4.831   1.354  0.5416  0.4678  0.1569
19515TIP3    H280037   5.332   4.782   1.412 -0.1939 -0.3890  1.1179
19516TIP3   OH280038   3.067   0.614  14.475 -0.1004  0.3799  0.0656
19516TIP3    H180039   3.071   0.523  14.448 -2.7910 -0.1710  1.2227
19516TIP3    H280040   3.135   0.623  14.542  0.1223 -0.7974  0.0037
19517TIP3   OH280041   1.173   1.502  16.608 -0.4847  0.1210 -0.0330
19517TIP3    H180042   1.262   1.517  16.640 -0.3201 -0.0751 -0.3914
19517TIP3    H280043   1.134   1.444  16.673  0.2995 -1.4188 -0.8635
19518TIP3   OH280044   1.413   3.331   3.808  0.1964  0.0435 -0.5948
19518TIP3    H180045   1.439   3.278   3.884  0.6572  2.4858  1.0460
19518TIP3    H280046   1.412   3.268   3.736 -2.4642 -2.9643  1.7141
19519TIP3   OH280047   4.808   5.084   1.481 -0.0230  0.4129  0.1693
19519TIP3    H180048   4.719   5.102   1.451 -0.4393 -0.0347  1.1186
19519TIP3    H280049   4.797   5.033   1.561  1.0944 -0.3772 -0.1572
19520TIP3   OH280050   4.522   4.500  15.495 -0.8496 -0.1144  0.0022
19520TIP3    H180051   4.580   4.576  15.486 -1.5072  0.5608  1.2378
19520TIP3    H280052   4.553   4.455  15.575 -2.2138  0.4528  0.8800
19521TIP3   OH280053   6.761   3.289   0.424  0.0398 -0.0532  0.9904
19521TIP3    H180054   6.677   3.334   0.438  0.4531  1.2649 -0.4922
19521TIP3    H280055   6.738   3.196   0.423 -1.6513  0.3218 -0.7641
19522TIP3   OH280056   0.457   1.700  10.698  0.1207  0.6368 -0.9519
19522TIP3    H180057   0.432   1.609  10.715 -0.3818 -0.0251 -4.4448
19522TIP3    H280058   0.552   1.702  10.710 -0.0200  0.0055  0.3836
19523TIP3   OH280059   0.238   2.291   1.083 -0.2169  0.5820 -0.2363
19523TIP3    H180060   0.318   2.240   1.100  0.6519  1.8413 -0.4820
19523TIP3    H280061   0.179   2.229   1.040  0.1411 -0.7228  1.0600
19524TIP3   OH280062   6.484   3.732   0.207  0.4555 -0.3710  0.1052
19524TIP3    H180063   6.409   3.673   0.201  0.3924 -0.1884 -1.5177
19524TIP3    H280064   6.532   3.703   0.284 -0.7378 -1.1394  0.5850
19525TIP3   OH280065   4.210   6.052  11.407 -0.3252  0.0956  0.3648
19525TIP3    H180066   4.266   6.129  11.401 -0.9964  0.4751 -2.2800
19525TIP3    H280067   4.153   6.069  11.482  0.6479  1.3802  0.8417
19526TIP3   OH280068   1.784   0.297  14.342 -0.5763 -0.0147  0.5887
19526TIP3    H180069   1.748   0.353  14.410 -1.5003  0.5104 -0.3011
19526TIP3    H280070   1.790   0.210  14.382 -0.9364  0.3192  1.3769
19527TIP3   OH280071   5.263   0.168  11.457  0.3696 -0.6646 -0.0480
19527TIP3    H180072   5.211   0.102  11.412  0.2297 -0.3410 -0.3732
19527TIP3    H280073   5.294   0.125  11.536  1.0139 -1.4019 -0.6788
19528TIP3   OH280074   4.347   2.521   1.946 -0.3250 -0.7760 -0.4249
19528TIP3    H180075   4.419   2.538   1.886  1.6204 -0.4132  1.8818
19528TIP3    H280076   4.335   2.426   1.944 -0.1172 -0.7920 -1.1696
19529TIP3   OH280077   1.526   6.297   5.827  0.4050 -0.3642 -0.1600
19529TIP3    H180078   1.443   6.326   5.864  0.0924  0.0360 -1.1445
19529TIP3    H280079   1.590   6.361   5.858  0.0418  0.3191 -0.7927
19530TIP3   OH280080   3.811   6.155   2.180 -0.4454  0.1439  0.0803
19530TIP3    H180081   3.788   6.245   2.202  0.3970  0.3475  0.1586
19530TIP3    H280082   3.854   6.161   2.095 -2.1402 -0.4348 -0.8661
19531TIP3   OH280083   2.847   3.236   3.897  0.1502  0.2378  0.2183
19531TIP3    H180084   2.780   3.293   3.861  0.3520 -0.3805 -1.1883
19531TIP3    H280085   2.929   3.284   3.886  0.4311 -0.5956 -1.7180
19532TIP3   OH280086   4.896   4.298  14.671 -0.5361  0.1138 -0.2596
19532TIP3    H180087   4.827   4.351  14.630 -0.2409  1.7922  1.2650
19532TIP3    H280088   4.871   4.295  14.763  0.3135 -1.1101 -0.0531
19533TIP3   OH280089   6.300   0.798   0.897 -0.1300  0.4908  0.0956
19533TIP3    H180090   6.222   0.756   0.935  0.1526 -0.5016 -0.3957
19533TIP3    H280091   6.311   0.755   0.813  0.7755  0.8532  0.0248
19534TIP3   OH280092   6.770   6.215  13.852  0.1138 -0.5193 -0.3612
19534TIP3    H180093   6.728   6.192  13.935  0.4422 -2.9417 -0.7667
19534TIP3    H280094   6.697   6.224  13.790 -0.0161 -1.2728 -0.3298
19535TIP3   OH280095   3.620   1.003   1.644  0.1081 -0.0067 -0.0060
19535TIP3    H180096   3.658   0.985   1.730  2.9069 -1.8896 -1.4799
19535TIP3    H280097   3.531   1.032   1.663  0.6000 -0.3457  3.4976
19536TIP3   OH280098   3.548   5.235  16.438 -0.3759 -0.0303 -0.0194
19536TIP3    H180099   3.464   5.215  16.395  0.3681 -2.4147 -0.5010
19536TIP3    H280100   3.551   5.175  16.512 -0.8544  2.8482  2.5412
19537TIP3   OH280101   3.078   5.768   3.361 -0.2428  0.4450 -0.3210
19537TIP3    H180102   3.151   5.811   3.317  0.1768  0.4492  0.3617
19537TIP3    H280103   3.076   5.680   3.323 -0.9679  0.9672 -1.5623
19538TIP3   OH280104   0.519   1.464   5.970  0.1746  0.2754 -0.4932
19538TIP3    H180105   0.532   1.523   5.895  1.3216  0.0329 -0.4898
19538TIP3    H280106   0.588   1.487   6.031  0.8835 -1.3352 -0.6460
19539TIP3   OH280107   6.401   6.278  15.472 -0.1423 -0.1541 -0.0803
19539TIP3    H180108   6.317   6.311  15.505 -0.5559 -1.6181  0.3851
19539TIP3    H280109   6.390   6.183  15.468  1.9338 -0.5205  1.2418
19540TIP3   OH280110   6.027   0.797  12.699 -0.6720  0.3275 -0.2674
19540TIP3    H180111   5.934   0.780  12.681 -0.8358 -0.6526  1.2988
19540TIP3    H280112   6.057   0.718  12.744  0.1951  1.7100  1.7305
19541TIP3   OH280113   6.343   6.251  16.865 -0.0444  0.5840  0.5005
19541TIP3    H180114   6.329   6.159  16.842  1.5659  0.5338 -0.3738
19541TIP3    H280115   6.385   6.247  16.951 -0.3620  0.5328  0.6566
19542TIP3   OH280116   3.291   5.162  12.723  0.5078  0.4986  0.3645
19542TIP3    H180117   3.277   5.097  12.792  0.6060 -1.5429 -1.3955
19542TIP3    H280118   3.297   5.109  12.643 -0.3223  2.7910 -1.3005
19543TIP3   OH280119   6.396   6.048   4.058  0.0518  0.1543  0.2856
19543TIP3    H180120   6.429   5.973   4.108  1.3091  1.9049  2.2206
19543TIP3    H280121   6.420   6.028   3.967  1.2721 -1.3306  0.8779
19544TIP3   OH280122   3.412   6.718   4.205  0.0376 -0.1670 -0.2557
19544TIP3    H180123   3.343   6.651   4.199  0.0478 -0.0924 -1.3020
19544TIP3    H280124   3.412   6.743   4.298 -0.7013 -0.8441 -0.0565
19545TIP3   OH280125   1.646   4.423  11.536 -0.3818  0.1230  0.2960
19545TIP3    H180126   1.685   4.468  11.611 -0.6332  1.6758 -0.4543
19545TIP3    H280127   1.569   4.475  11.515 -1.1755 -1.1682 -0.1139
19546TIP3   OH280128   2.513   5.536  13.027  0.6088 -0.4442 -0.3308
19546TIP3    H180129   2.576   5.569  12.963 -0.6956  0.1693 -1.3392
19546TIP3    H280130   2.428   5.567  12.996 -0.4303 -2.7409 -0.0061
19547TIP3   OH280131   4.041   6.588  15.320  0.7356 -0.3525  0.4283
19547TIP3    H180132   4.117   6.536  15.346  1.1507 -0.1589 -0.3616
19547TIP3    H280133   4.053   6.603  15.226  1.9463  3.2127  0.9704
19548TIP3   OH280134   2.644   0.878   2.081  0.3567  0.6325  0.5537
19548TIP3    H180135   2.697   0.808   2.119 -0.2387 -0.2643 -0.2163
19548TIP3    H280136   2.564   0.879   2.133  0.0545  0.2382  0.0950
19549TIP3   OH280137   6.800   5.376   5.231  0.1236  0.4620  0.1334
19549TIP3    H180138   6.839   5.444   5.176 -1.3270  1.7231  0.5955
19549TIP3    H280139   6.764   5.423   5.306  1.7861 -1.1641  2.0930
19550TIP3   OH280140   2.292   5.520   4.841 -0.0388  0.1659 -0.6183
19550TIP3    H180141   2.380   5.502   4.873 -1.0424  0.7050  2.8192
19550TIP3    H280142   2.297   5.607   4.802  1.2686 -0.5361 -2.0963
19551TIP3   OH280143   3.594   5.711   6.143 -0.4439  0.0032 -0.0640
19551TIP3    H180144   3.654   5.764   6.196 -0.5019  0.2335 -0.2274
19551TIP3    H280145   3.508   5.749   6.159 -0.1749  1.8315 -2.3763
19552TIP3   OH280146   4.259   5.373  15.863 -0.4757  0.5109 -0.3192
19552TIP3    H180147   4.350   5.351  15.842 -0.2547  0.0306  1.0521
19552TIP3    H280148   4.230   5.303  15.920 -1.0420  1.6999  0.9169
19553TIP3   OH280149   0.992   3.767  11.129 -0.1609 -0.3316 -0.3168
19553TIP3    H180150   1.080   3.735  11.151  0.4348  1.5465  0.2438
19553TIP3    H280151   1.006   3.823  11.053 -1.4002 -2.4580 -2.2161
19554TIP3   OH280152   5.484   3.536  13.647 -0.3542 -0.7231  0.0579
19554TIP3    H180153   5.410   3.596  13.637 -1.0952 -1.3913  1.3217
19554TIP3    H280154   5.465   3.487  13.727  0.5656 -2.1650 -0.5611
19555TIP3   OH280155   4.478   3.947  16.045  0.2559  0.6242  0.6896
19555TIP3    H180156   4.497   4.026  15.994  1.0389  1.1073  1.7161
19555TIP3    H280157   4.396   3.914  16.007  2.1406 -0.5972 -2.7608
19556TIP3   OH280158   0.894   5.167   5.082 -0.5409 -0.4676  0.5545
19556TIP3    H180159   0.951   5.146   5.008 -0.9675  0.4478 -0.0425
19556TIP3    H280160   0.947   5.144   5.159  0.2796 -0.5254 -0.0069
19557TIP3   OH280161   5.472   3.424   1.220  0.5823 -0.2837  0.5031
19557TIP3    H180162   5.552   3.441   1.170  0.2421 -0.2451 -0.0360
19557TIP3    H280163   5.495   3.445   1.311  0.8423  0.8469  0.1877
19558TIP3   OH280164   2.702   1.833   5.312 -0.3698 -0.0152  0.2929
19558TIP3    H180165   2.726   1.815   5.403 -0.0226  0.8823  0.3957
19558TIP3    H280166   2.682   1.927   5.311 -0.3830 -0.0202 -0.5529
19559TIP3   OH280167   1.460   6.727   4.648  0.4252 -0.0502  0.5377
19559TIP3    H180168   1.417   6.737   4.563  0.8290  0.5060  0.3937
19559TIP3    H280169   1.523   6.656   4.634  1.8659  1.2897 -0.2148
19560TIP3   OH280170   2.361   0.094  15.054 -0.7931 -0.5465 -0.5577
19560TIP3    H180171   2.451   0.107  15.024 -0.3594  0.6786  1.1283
19560TIP3    H280172   2.307   0.112  14.977  0.3224  1.1528 -0.9981
19561TIP3   OH280173   5.972   0.354  11.749 -0.3458 -0.1434  0.7498
19561TIP3    H180174   5.942   0.306  11.672  1.0607 -0.8184  0.5770
19561TIP3    H280175   6.023   0.427  11.714 -1.6948  0.9583  1.0285
19562TIP3   OH280176   5.693   1.349   3.755 -0.0683 -0.5246 -0.2107
19562TIP3    H180177   5.682   1.296   3.676 -1.8100  1.4770 -1.4250
19562TIP3    H280178   5.769   1.312   3.799 -0.0640 -2.7744 -1.9438
19563TIP3   OH280179   1.824   1.457   2.665  0.2332  0.4212  0.0385
19563TIP3    H180180   1.782   1.516   2.727  2.6874  1.3724  0.9124
19563TIP3    H280181   1.914   1.447   2.698  1.2795 -0.0457 -2.6699
19564TIP3   OH280182   3.147   0.545   4.665 -0.5355  0.0130  0.1637
19564TIP3    H180183   3.062   0.543   4.621 -0.2010 -0.4870 -0.4711
19564TIP3    H280184   3.144   0.472   4.726 -0.5612 -0.0058  0.1399
19565TIP3   OH280185   4.789   6.283   5.218  0.0625 -0.1100 -0.1234
19565TIP3    H180186   4.836   6.357   5.256 -1.0163  0.7438 -0.3858
19565TIP3    H280187   4.783   6.219   5.289 -2.5840  1.7561  1.5266
19566TIP3   OH280188   2.383   2.018   2.833  0.0618  0.2997 -0.2572
19566TIP3    H180189   2.434   1.948   2.792  2.6904  0.7995  1.8591
19566TIP3    H280190   2.355   2.074   2.761  1.3461 -0.7778 -1.6553
19567TIP3   OH280191   2.345   0.383  14.821 -0.0074  0.0746  0.1907
19567TIP3    H180192   2.431   0.407  14.787 -0.8814  0.9558 -1.5163
19567TIP3    H280193   2.285   0.396  14.748 -1.7562  0.4704  1.6125
19568TIP3   OH280194   5.472   3.592  12.614 -0.0926 -0.1628  0.0303
19568TIP3    H180195   5.418   3.525  12.571  1.4735 -1.5812  0.1438
19568TIP3    H280196   5.412   3.637  12.674 -0.8663 -2.7868  1.3963
19569TIP3   OH280197   4.433   0.020  10.547 -0.2390  0.6776 -1.0134
19569TIP3    H180198   4.499   0.062  10.491  2.4672 -1.1352  0.5663
19569TIP3    H280199   4.458   0.044  10.636 -1.9584  0.2028 -0.3622
19570TIP3   OH280200   4.308   0.299  13.728  0.2548 -0.2235 -0.5124
19570TIP3    H180201   4.254   0.352  13.787  0.7145 -0.4934  0.1680
19570TIP3    H280202   4.274   0.210  13.739  2.0477 -0.7409  1.4103
19571TIP3   OH280203   3.914   6.147  16.017 -0.5505  0.4380  0.1654
19571TIP3    H180204   3.986   6.166  15.956  1.1675 -0.1354  1.9044
19571TIP3    H280205   3.846   6.108  15.962  0.4228  1.0463 -1.5677
19572TIP3   OH280206   5.144   5.159  12.786 -0.2631  0.3380  0.2779
19572TIP3    H180207   5.105   5.224  12.844  0.1737  1.3090 -0.4764
19572TIP3    H280208   5.071   5.130  12.731 -0.5580 -0.1617  0.9310
19573TIP3   OH280209   2.496   4.437   6.295 -0.4733  0.1050  0.3182
19573TIP3    H180210   2.565   4.493   6.259 -2.2010  1.7605 -0.6027
19573TIP3    H280211   2.479   4.473   6.382  0.1966 -0.6567  0.7691
19574TIP3   OH280212   3.348   0.121  11.081  0.0722 -0.0150 -0.3885
19574TIP3    H180213   3.282   0.064  11.120 -0.8691  1.1149 -0.2769
19574TIP3    H280214   3.416   0.061  11.051  0.3613 -1.0140  2.0343
19575TIP3   OH280215   1.488   2.876   4.823  0.5667 -0.2919 -0.2373
19575TIP3    H180216   1.568   2.928   4.819 -0.6907  1.6514 -1.9976
19575TIP3    H280217   1.512   2.793   4.782  1.7930  0.0769 -0.3213
19576TIP3   OH280218   2.881   5.775  16.581  0.0239 -0.0673  0.7156
19576TIP3    H180219   2.888   5.799  16.489 -0.2905  0.0350  0.7187
19576TIP3    H280220   2.957   5.718  16.597 -0.0186 -0.2293  0.3509
19577TIP3   OH280221   5.769   6.431   2.367 -0.3821  0.3395 -0.1238
19577TIP3    H180222   5.697   6.494   2.368 -0.9992 -0.3017 -1.5854
19577TIP3    H280223   5.792   6.422   2.275  2.3286  1.3283  0.3714
19578TIP3   OH280224   4.821   3.557  13.557 -0.0529  0.0866  0.4401
19578TIP3    H180225   4.883   3.549  13.484  1.9525 -1.0710  2.1678
19578TIP3    H280226   4.810   3.652  13.567  1.3981  0.3373  0.0129
19579TIP3   OH280227   3.409   4.826  12.921 -0.0724 -0.2187  0.2345
19579TIP3    H180228   3.462   4.799  12.996  1.2048  1.4550 -0.0103
19579TIP3    H280229   3.465   4.807  12.845 -1.5506 -2.3808 -0.4143
19580TIP3   OH280230   1.312   0.144   0.452 -0.0070 -0.3893 -0.3604
19580TIP3    H180231   1.280   0.211   0.391  1.7720  2.0683  1.2219
19580TIP3    H280232   1.233   0.105   0.489 -1.1002  0.1636 -1.9960
19581TIP3   OH280233   6.547   4.941   4.373  0.1069 -0.5098 -0.5741
19581TIP3    H180234   6.638   4.919   4.350  1.3725  1.6116  1.9402
19581TIP3    H280235   6.526   5.015   4.316  0.5679  0.0693  0.0062
19582TIP3   OH280236   4.588   2.804   4.260 -0.0377 -0.5428 -0.5273
19582TIP3    H180237   4.652   2.876   4.254  0.6998 -1.1118  0.2296
19582TIP3    H280238   4.504   2.846   4.243  0.3418  0.5760  0.1616
19583TIP3   OH280239   3.920   2.156  16.324  0.0097 -0.2294 -0.1798
19583TIP3    H180240   3.942   2.233  16.273  2.5244 -1.4120 -1.0516
19583TIP3    H280241   3.984   2.090  16.298 -0.9902 -2.1161  1.7317
19584TIP3   OH280242   3.661   2.348   5.922 -0.3760 -0.4367 -0.7518
19584TIP3    H180243   3.651   2.298   6.003  0.9161 -0.2136 -0.4456
19584TIP3    H280244   3.681   2.282   5.855 -2.0313 -0.6927 -1.0391
19585TIP3   OH280245   1.073   4.752   2.069 -0.2735  0.0055  0.5130
19585TIP3    H180246   1.132   4.680   2.094 -1.1633 -0.7022  0.6363
19585TIP3    H280247   1.037   4.725   1.985 -0.6873  0.2601  0.6061
19586TIP3   OH280248   3.621   3.853  17.102 -0.2543  0.3252  0.4272
19586TIP3    H180249   3.602   3.847  17.008  0.1715 -1.0458  0.4123
19586TIP3    H280250   3.562   3.922  17.133 -1.8223 -0.5427 -0.4983
19587TIP3   OH280251   5.428   4.719   5.484  0.0213  0.1178  0.6692
19587TIP3    H180252   5.429   4.715   5.580  1.8067  1.4002  0.7551
19587TIP3    H280253   5.363   4.786   5.463 -0.3320 -0.1252  0.9728
19588TIP3   OH280254   5.592   6.721   3.052 -0.0721 -0.3491 -0.5526
19588TIP3    H180255   5.661   6.733   2.987  0.4234 -1.4216 -0.2488
19588TIP3    H280256   5.636   6.678   3.125 -1.0300 -0.9066 -0.2905
19589TIP3   OH280257   2.332   3.929   5.126  0.4465  0.0181  0.1622
19589TIP3    H180258   2.305   3.998   5.064  0.8172  0.8047  0.8483
19589TIP3    H280259   2.395   3.973   5.184  1.9027 -1.3180 -0.3524
19590TIP3   OH280260   3.893   2.467   2.374  0.4652  0.4855 -0.1035
19590TIP3    H180261   3.825   2.519   2.417  1.2872  0.6372  1.0735
19590TIP3    H280262   3.964   2.462   2.439  0.8762 -1.1251 -0.6230
19591TIP3   OH280263   4.015   6.148   0.538 -0.3790 -0.4427 -0.0025
19591TIP3    H180264   4.005   6.205   0.461  1.2972  0.8461  0.6897
19591TIP3    H280265   4.101   6.170   0.573 -1.0424 -1.1165  2.1712
19592TIP3   OH280266   5.509   5.549   1.381 -0.1893 -0.5076  0.1658
19592TIP3    H180267   5.446   5.615   1.352  0.4667  0.4929  0.9630
19592TIP3    H280268   5.503   5.550   1.477 -0.2549 -1.7097  0.1937
19593TIP3   OH280269   4.685   5.526  15.044  0.0169 -0.3101  0.1417
19593TIP3    H180270   4.728   5.603  15.008  0.0036 -0.7478 -0.8417
19593TIP3    H280271   4.721   5.453  14.994 -0.7561 -0.8319  0.3332
19594TIP3   OH280272   5.919   5.666   3.001  0.2716 -0.4110 -0.4423
19594TIP3    H180273   6.002   5.695   2.963 -1.1464  1.1657 -2.5696
19594TIP3    H280274   5.898   5.585   2.954  0.8745 -1.1727  0.5608
19595TIP3   OH280275   5.794   6.609   6.355  0.0108 -0.3665 -0.0559
19595TIP3    H180276   5.884   6.628   6.381  0.2379  0.6803 -1.4984
19595TIP3    H280277   5.773   6.528   6.400  1.3073 -0.0704  1.1411
19596TIP3   OH280278   2.977   1.304   4.086 -0.0890  0.0804 -0.6712
19596TIP3    H180279   2.930   1.368   4.141 -1.0771 -0.0903 -1.2894
19596TIP3    H280280   3.069   1.323   4.101 -0.3579  1.6700 -0.8358
19597TIP3   OH280281   0.434   5.932  15.967  0.0847  0.5178 -0.8143
19597TIP3    H180282   0.512   5.879  15.950  1.5950  3.2486 -3.4832
19597TIP3    H280283   0.369   5.900  15.904 -0.7026 -1.0935  0.7334
19598TIP3   OH280284   4.395   6.745   1.690 -0.0321  0.8594 -0.0731
19598TIP3    H180285   4.352   6.743   1.605 -1.4703  0.4980  0.6305
19598TIP3    H280286   4.351   6.678   1.741  1.4095  0.4537  0.6973
19599TIP3   OH280287   1.453   2.217   2.869  0.0870  0.2904 -0.3430
19599TIP3    H180288   1.488   2.284   2.810  0.3961 -1.7989 -2.6796
19599TIP3    H280289   1.523   2.153   2.878 -0.3829 -0.0485  1.4376
19600TIP3   OH280290   0.707   5.779   2.563  0.0016  0.1012 -0.5130
19600TIP3    H180291   0.743   5.722   2.631 -0.7922  0.9204  0.6352
19600TIP3    H280292   0.775   5.845   2.548  1.1582 -1.4097 -2.2526
19601TIP3   OH280293   1.087   5.387   5.535 -0.3478  0.2741 -0.4276
19601TIP3    H180294   1.053   5.380   5.446  1.5139 -0.8723 -1.1055
19601TIP3    H280295   1.130   5.473   5.537  0.7817 -0.2474 -1.1170
19602TIP3   OH280296   6.472   6.322  17.125  0.1182 -0.1615  0.0037
19602TIP3    H180297   6.544   6.273  17.087 -0.4626 -2.5782  1.7458
19602TIP3    H280298   6.507   6.356  17.208 -0.1706  0.3773 -0.0903
19603TIP3   OH280299   1.037   4.235   4.764  0.6987  0.3121  0.0405
19603TIP3    H180300   1.080   4.308   4.718 -0.9694 -0.2083 -2.5431
19603TIP3    H280301   0.944   4.251   4.752  0.2666 -1.3914  0.8772
19604TIP3   OH280302   5.640   3.560   4.472 -0.3012 -0.0690  0.1288
19604TIP3    H180303   5.604   3.488   4.420  0.3432 -1.0081  0.9381
19604TIP3    H280304   5.726   3.577   4.433 -0.1236 -0.2812  0.4200
19605TIP3   OH280305   6.722   0.189   0.440 -0.3183  0.1474 -0.2527
19605TIP3    H180306   6.721   0.277   0.402 -1.0656 -0.3054 -1.3101
19605TIP3    H280307   6.813   0.177   0.468  0.1506  0.6870 -1.4615
19606TIP3   OH280308   2.702   1.544  13.491  0.2445 -0.2988  0.4896
19606TIP3    H180309   2.643   1.552  13.566 -0.9464 -2.6499 -0.1211
19606TIP3    H280310   2.645   1.521  13.418  1.5940  0.3237 -0.8072
19607TIP3   OH280311   3.001   0.160  12.465  0.3914 -0.0750  0.0902
19607TIP3    H180312   2.909   0.172  12.443 -0.3204 -2.4893  1.3609
19607TIP3    H280313   3.049   0.209  12.398 -1.7740  3.0241  0.5732
19608TIP3   OH280314   1.765   4.759   3.380  0.2630 -0.0528 -0.4440
19608TIP3    H180315   1.754   4.832   3.441  1.0095  0.3181 -0.7345
19608TIP3    H280316   1.766   4.681   3.436 -2.1499 -0.0243 -0.2618
19609TIP3   OH280317   0.526   0.826   1.507 -0.5923  0.0670 -0.7193
19609TIP3    H180318   0.611   0.799   1.543  0.6009  1.7358 -2.0706
19609TIP3    H280319   0.507   0.762   1.439 -1.5112 -1.5118  0.9251
19610TIP3   OH280320   4.327   1.721  14.576  0.1549  0.2233  0.3700
19610TIP3    H180321   4.295   1.727  14.486 -2.5362  0.5967  1.2699
19610TIP3    H280322   4.422   1.735  14.569 -0.1919  1.8557 -2.2183
19611TIP3   OH280323   5.846   0.697  14.157  0.3685  0.7715  0.2125
19611TIP3    H180324   5.937   0.719  14.179  0.6307  0.3927 -0.4528
19611TIP3    H280325   5.850   0.606  14.127  0.5864  1.9450 -3.9971
19612TIP3   OH280326   2.639   0.088   4.770  0.6283 -0.3678  0.3709
19612TIP3    H180327   2.666   0.013   4.716  0.5370 -0.0122 -0.1801
19612TIP3    H280328   2.713   0.105   4.827 -0.2446 -2.4521  2.2869
19613TIP3   OH280329   0.433   6.674  12.462  0.3054  0.2663 -0.0307
19613TIP3    H180330   0.511   6.717  12.427  0.7121  1.3784  2.0576
19613TIP3    H280331   0.423   6.595  12.409  3.6569 -0.6362  0.4243
19614TIP3   OH280332   5.651   1.511   1.546  0.2284 -0.3041 -0.2922
19614TIP3    H180333   5.622   1.472   1.629 -0.9697 -0.5050 -0.7787
19614TIP3    H280334   5.569   1.533   1.501  0.8649 -0.5716 -1.5949
19615TIP3   OH280335   3.251   1.713  15.633 -0.8812  0.8167 -0.2932
19615TIP3    H180336   3.249   1.805  15.607 -2.4623  0.5179 -1.3544
19615TIP3    H280337   3.304   1.670  15.565  0.4435  1.0033  0.5711
19616TIP3   OH280338   4.365   4.940   1.726 -0.0363  0.2680 -1.0732
19616TIP3    H180339   4.436   4.935   1.791 -0.7713  1.8431 -0.0836
19616TIP3    H280340   4.396   4.887   1.653  2.4523  1.3773 -0.9297
19617TIP3   OH280341   4.350   3.829   0.140  0.0028 -0.1305  0.1919
19617TIP3    H180342   4.305   3.914   0.132 -0.4633 -0.2234  1.5082
19617TIP3    H280343   4.296   3.769   0.088  1.8420  0.8367 -3.1033
19618TIP3   OH280344   2.674   1.852   1.402  0.0398 -0.3197  0.4201
19618TIP3    H180345   2.688   1.919   1.468 -0.3492  0.8145 -0.6179
19618TIP3    H280346   2.731   1.876   1.330 -0.6165 -0.6995 -0.2463
19619TIP3   OH280347   2.245   2.812   4.090 -0.0078 -0.1771  0.2544
19619TIP3    H180348   2.223   2.751   4.019 -0.7519 -1.8200  1.8273
19619TIP3    H280349   2.195   2.891   4.070 -0.3104 -0.6584 -0.9623
19620TIP3   OH280350   6.503   0.396  14.408 -0.3353 -0.1947  0.1794
19620TIP3    H180351   6.543   0.433  14.487 -0.1706 -1.3976  0.6867
19620TIP3    H280352   6.510   0.466  14.343  0.9333  0.2908  0.7868
19621TIP3   OH280353   1.864   2.969   3.518 -0.0861 -0.4911  0.3118
19621TIP3    H180354   1.925   2.937   3.586 -0.3897 -0.6829  0.4983
19621TIP3    H280355   1.814   3.038   3.562  2.0636  1.8953 -0.7017
19622TIP3   OH280356   0.405   4.978  13.996 -0.3469  0.1096  0.4289
19622TIP3    H180357   0.342   5.029  14.048 -1.7359 -0.8106 -0.2641
19622TIP3    H280358   0.373   4.888  14.002 -1.3059  0.0850 -2.9169
19623TIP3   OH280359   2.661   2.101   2.167  0.0787 -0.1190 -0.2257
19623TIP3    H180360   2.738   2.156   2.186  0.3054 -0.7653  0.7618
19623TIP3    H280361   2.619   2.145   2.093  0.0846  1.5753  0.7195
19624TIP3   OH280362   6.624   5.983  15.691  0.4316  0.0472 -0.0704
19624TIP3    H180363   6.564   6.016  15.626  0.6581  1.2870  0.3332
19624TIP3    H280364   6.694   5.941  15.641 -0.0969 -0.2509 -0.5661
19625TIP3   OH280365   4.096   3.173   0.683  0.3413  0.1396 -0.5677
19625TIP3    H180366   4.154   3.104   0.717 -0.2968 -0.4824 -0.7334
19625TIP3    H280367   4.014   3.129   0.665 -0.5786  1.2391  0.7317
19626TIP3   OH280368   3.168   0.585   2.562  0.4460  0.2809 -0.6834
19626TIP3    H180369   3.075   0.589   2.587  0.5239  0.7057 -0.4504
19626TIP3    H280370   3.167   0.580   2.467  0.1225 -1.9558 -0.6037
19627TIP3   OH280371   1.175   3.444  12.537 -0.2528  0.0684 -0.3843
19627TIP3    H180372   1.237   3.466  12.606 -3.1821 -0.4674  2.6826
19627TIP3    H280373   1.206   3.360  12.503  1.9552  0.9492 -0.7031
19628TIP3   OH280374   5.054   4.827  16.423  0.0976 -0.0622  0.4082
19628TIP3    H180375   4.969   4.826  16.378 -0.3576  1.8049  1.1315
19628TIP3    H280376   5.069   4.919  16.443  2.6445 -0.2693 -0.2958
19629TIP3   OH280377   0.750   5.641   0.413 -0.0590 -0.2586  0.2058
19629TIP3    H180378   0.838   5.658   0.448  0.9478 -0.9879 -1.7894
19629TIP3    H280379   0.745   5.694   0.334 -1.6083  0.0903  0.5060
19630TIP3   OH280380   6.592   0.190  15.784  0.1218 -0.1210 -0.0024
19630TIP3    H180381   6.573   0.100  15.756  1.0507  0.1710 -1.6929
19630TIP3    H280382   6.521   0.242  15.747  0.7474  0.1108 -0.9225
19631TIP3   OH280383   1.642   3.049   1.290  0.1388 -0.1191 -0.2682
19631TIP3    H180384   1.709   3.010   1.233 -0.5071 -1.6606 -0.0137
19631TIP3    H280385   1.570   2.985   1.290 -1.0051  1.1323  0.1068
19632TIP3   OH280386   4.311   1.911  13.643 -0.1786  0.4595  0.2489
19632TIP3    H180387   4.293   1.865  13.725 -0.5114  1.2824  0.6511
19632TIP3    H280388   4.399   1.882  13.618 -0.2134 -0.0600  0.7143
19633TIP3   OH280389   5.457   0.008  13.459 -0.4368 -0.1557  0.0685
19633TIP3    H180390   5.500   0.059  13.528 -1.3741  0.7192  0.0159
19633TIP3    H280391   5.422  -0.069  13.504  1.7798 -1.3018 -0.0015
19634TIP3   OH280392   4.227   4.136   3.290  0.0251  0.3591  0.2058
19634TIP3    H180393   4.269   4.218   3.267  1.1060  0.2911  1.7417
19634TIP3    H280394   4.293   4.090   3.342 -1.0264 -0.9179  0.4496
19635TIP3   OH280395   3.804   4.234   4.985  0.1620  0.7194  0.0312
19635TIP3    H180396   3.872   4.239   5.052 -0.3941  0.1041  0.6657
19635TIP3    H280397   3.772   4.144   4.991 -1.0497  1.1386  0.0996
19636TIP3   OH280398   5.738   2.060  11.290  0.1395  0.3628  0.0226
19636TIP3    H180399   5.667   2.098  11.342  0.1864 -1.5294  1.5925
19636TIP3    H280400   5.811   2.122  11.300 -1.2711  2.5016 -1.8704
19637TIP3   OH280401   4.735   3.942  16.731 -0.4358  0.4096  0.1761
19637TIP3    H180402   4.684   3.862  16.744 -2.3585  1.8280  2.0842
19637TIP3    H280403   4.677   3.999  16.680  0.0782  1.3162  0.5844
19638TIP3   OH280404   5.997   0.425   5.408 -0.3577  0.1338 -0.1165
19638TIP3    H180405   5.985   0.345   5.357 -1.6972  0.0564  0.2777
19638TIP3    H280406   5.970   0.401   5.496  2.2254  0.1747  0.7769
19639TIP3   OH280407   3.474   0.807   5.502  0.0243 -0.1917 -0.2497
19639TIP3    H180408   3.439   0.894   5.522  1.4409  0.3006  0.2045
19639TIP3    H280409   3.555   0.801   5.553  0.4803 -1.3746 -1.0613
19640TIP3   OH280410   1.212   2.749  15.913  0.3223  0.1037  0.2890
19640TIP3    H180411   1.243   2.822  15.859 -1.4775  0.0448 -0.9048
19640TIP3    H280412   1.272   2.677  15.893 -0.1311  0.1706 -1.4431
19641TIP3   OH280413   5.796   1.297   4.825 -0.1500 -0.1429 -0.5964
19641TIP3    H180414   5.854   1.220   4.828  0.7624  0.5614  0.2704
19641TIP3    H280415   5.855   1.372   4.821 -0.9176  0.6879  1.9277
19642TIP3   OH280416   2.795   0.357  13.906 -0.0235 -0.5292 -0.1243
19642TIP3    H180417   2.770   0.384  13.817  1.1325 -0.1823 -0.3610
19642TIP3    H280418   2.878   0.311  13.895  1.3970  1.6196  1.0130
19643TIP3   OH280419   0.511   0.676  13.911  0.3794 -0.0184  0.2683
19643TIP3    H180420   0.597   0.712  13.932  1.1433 -1.2760 -0.5340
19643TIP3    H280421   0.477   0.642  13.994 -0.3193  2.3667  1.0216
19644TIP3   OH280422   0.132   3.953   5.981  0.3018 -0.2726 -0.1587
19644TIP3    H180423   0.145   4.010   6.057 -0.2204 -0.8497  0.3748
19644TIP3    H280424   0.218   3.914   5.966  0.4708  0.0426 -0.0240
19645TIP3   OH280425   3.602   5.376  11.968  0.4031  0.0717  0.1037
19645TIP3    H180426   3.535   5.395  11.902  0.2431 -2.7088 -0.6797
19645TIP3    H280427   3.558   5.391  12.051 -0.3202  0.9038 -0.4158
19646TIP3   OH280428   2.924   5.025  10.937  0.2005 -0.1673  0.0100
19646TIP3    H180429   2.842   4.976  10.945  0.5779 -0.4915  2.9971
19646TIP3    H280430   2.991   4.958  10.925  0.2633 -0.0277 -0.4600
19647TIP3   OH280431   1.107   6.112  12.641 -0.1978 -0.4705 -0.3473
19647TIP3    H180432   1.065   6.178  12.586 -1.0963  0.4827  1.3749
19647TIP3    H280433   1.101   6.031  12.591 -3.2732 -0.1704 -0.6564
19648TIP3   OH280434   3.880   2.911  13.483  1.1426  0.0095 -0.7652
19648TIP3    H180435   3.832   2.993  13.475  1.1418  0.0279 -0.5615
19648TIP3    H280436   3.821   2.845  13.446  0.5558 -0.1183  0.3798
19649TIP3   OH280437   0.811   1.483   2.256 -0.0281  0.0206 -0.7029
19649TIP3    H180438   0.788   1.432   2.333 -2.7089 -1.3874 -2.2807
19649TIP3    H280439   0.809   1.574   2.286 -5.6431 -0.0026  0.1881
19650TIP3   OH280440   1.378   1.807   0.892 -0.3103 -0.7306  0.2485
19650TIP3    H180441   1.342   1.724   0.924 -0.2531 -1.0409 -0.4884
19650TIP3    H280442   1.396   1.792   0.800 -0.8317  0.2906 -0.0338
19651TIP3   OH280443   1.230   5.739   4.650 -0.2372  0.5867  0.1713
19651TIP3    H180444   1.276   5.732   4.733  0.2897 -0.1882 -0.1756
19651TIP3    H280445   1.196   5.651   4.633  0.0691  0.6154 -0.6518
19652TIP3   OH280446   5.005   0.235   1.456  0.5111 -0.0557  0.6278
19652TIP3    H180447   4.960   0.206   1.535  0.5047 -1.1224  0.2595
19652TIP3    H280448   5.052   0.157   1.426  1.6740  0.7194  0.3633
19653TIP3   OH280449   4.610   4.732   0.413 -0.1121 -0.7695  0.0411
19653TIP3    H180450   4.683   4.716   0.472 -0.4478 -0.7353  0.4747
19653TIP3    H280451   4.585   4.823   0.430 -0.2311 -0.7704 -0.1287
19654TIP3   OH280452   6.063   3.857   6.291  0.1407  0.4238  0.4598
19654TIP3    H180453   5.988   3.868   6.233  1.9474  1.7640 -1.7913
19654TIP3    H280454   6.095   3.946   6.307  1.6011 -0.1299  0.8471
19655TIP3   OH280455   4.320   4.002   1.983  0.2207 -0.0676  0.1359
19655TIP3    H180456   4.369   4.067   2.033  0.3837 -0.3461  0.3451
19655TIP3    H280457   4.231   4.006   2.018 -0.0920  0.9457 -0.7385
19656TIP3   OH280458   4.049   6.292   6.079  0.4157  0.3383  0.7295
19656TIP3    H180459   4.017   6.381   6.095  0.3359  0.1664  1.6149
19656TIP3    H280460   4.066   6.257   6.167  0.2121 -0.6028  0.4104
19657TIP3   OH280461   5.427   0.474   2.992  0.2688  0.1014  0.2618
19657TIP3    H180462   5.470   0.508   3.070 -0.3572 -0.6768  0.9637
19657TIP3    H280463   5.438   0.379   2.998  0.7871  0.0584 -0.9424
19658TIP3   OH280464   2.385   6.514  11.854 -0.1960 -0.1316  0.5153
19658TIP3    H180465   2.438   6.441  11.885 -0.0477  0.4808  1.7883
19658TIP3    H280466   2.368   6.495  11.762  1.4339 -0.8264  0.3246
19659TIP3   OH280467   4.992   1.422  12.069  0.0779 -0.7824 -0.2145
19659TIP3    H180468   5.061   1.488  12.081 -0.4174 -0.0932 -1.0072
19659TIP3    H280469   4.977   1.420  11.975  1.1097 -3.1324 -0.3802
19660TIP3   OH280470   5.813   4.111  14.563  0.4038  0.1257  0.7009
19660TIP3    H180471   5.735   4.163  14.579  0.5284  0.4602  0.2265
19660TIP3    H280472   5.883   4.175  14.552  0.8616 -0.1761  1.6806
19661TIP3   OH280473   5.244   6.075  12.758  0.5402 -0.5962 -0.1083
19661TIP3    H180474   5.256   6.020  12.836  1.5533 -0.4470 -0.1473
19661TIP3    H280475   5.245   6.164  12.791 -1.6593 -0.5802  0.0232
19662TIP3   OH280476   6.006   0.021   5.809 -0.0437  0.2252  0.2879
19662TIP3    H180477   6.026   0.073   5.887  1.1767  1.9763 -1.1219
19662TIP3    H280478   6.016   0.082   5.736 -0.4628 -1.5375 -1.3214
19663TIP3   OH280479   2.611   4.462   5.368 -0.3321 -0.2693  0.3315
19663TIP3    H180480   2.633   4.543   5.414  1.3187 -1.3132  1.4813
19663TIP3    H280481   2.534   4.428   5.414 -1.6985  1.1055 -0.8165
19664TIP3   OH280482   4.831   5.047   0.235  0.5919  0.8861  0.3599
19664TIP3    H180483   4.810   5.132   0.273 -1.2944  0.2629  0.7699
19664TIP3    H280484   4.783   5.045   0.152  1.0388  0.4152  0.1046
19665TIP3   OH280485   3.987   3.424   6.039 -0.0617  1.0654  0.1680
19665TIP3    H180486   3.915   3.487   6.033  1.6702  3.0253 -2.1161
19665TIP3    H280487   4.055   3.470   6.087  1.2111  1.0026 -1.4761
19666TIP3   OH280488   6.022   0.757   3.139 -0.3627 -0.1891 -0.5642
19666TIP3    H180489   6.021   0.686   3.202 -0.0492 -0.9548 -1.3923
19666TIP3    H280490   5.929   0.776   3.122 -0.4632 -0.8594 -0.8175
19667TIP3   OH280491   4.804   0.879  12.855 -0.3770  0.5369  0.0122
19667TIP3    H180492   4.806   0.784  12.866 -0.3999  0.7143  1.9386
19667TIP3    H280493   4.732   0.908  12.911 -0.4573  1.6837 -0.6643
19668TIP3   OH280494   1.098   0.306  16.253  0.3977 -0.0519  0.4228
19668TIP3    H180495   1.155   0.247  16.302 -0.5276 -1.1639  0.2052
19668TIP3    H280496   1.042   0.346  16.319  1.3660  1.0285  0.6353
19669TIP3   OH280497   1.712   3.864   2.199  0.4933 -0.2447  0.3282
19669TIP3    H180498   1.671   3.851   2.284  0.8710  1.8431  0.8758
19669TIP3    H280499   1.640   3.878   2.138  0.2734 -0.2877  0.5807
19670TIP3   OH280500   3.544   1.500  11.954 -0.0963  0.0956  0.0509
19670TIP3    H180501   3.604   1.544  11.894 -0.9566 -0.8662 -1.5750
19670TIP3    H280502   3.511   1.425  11.905 -1.5699 -0.1906  1.3940
19671TIP3   OH280503   5.343   1.326  14.052 -0.5606  0.3416 -0.1864
19671TIP3    H180504   5.433   1.295  14.039  0.3731  2.4530  0.8365
19671TIP3    H280505   5.314   1.352  13.965  0.7382  1.9205 -0.1827
19672TIP3   OH280506   2.208   0.625   3.928 -0.1280 -0.3407  0.3862
19672TIP3    H180507   2.301   0.625   3.904 -0.2682  0.6165 -0.2013
19672TIP3    H280508   2.170   0.554   3.876  0.4683 -1.5741  1.5383
19673TIP3   OH280509   5.224   2.430   3.137 -0.7565  0.2454  0.3156
19673TIP3    H180510   5.263   2.362   3.192 -0.0219 -0.5779 -1.1488
19673TIP3    H280511   5.187   2.493   3.198 -0.5751 -0.9749  1.7283
19674TIP3   OH280512   1.019   1.608  12.988 -0.7921 -0.3047  0.0498
19674TIP3    H180513   1.031   1.522  12.949 -2.4707 -0.8663  0.6754
19674TIP3    H280514   1.093   1.660  12.956 -0.4539 -1.5984 -1.3666
19675TIP3   OH280515   6.815   1.577   4.008  0.0793 -0.1742 -0.0361
19675TIP3    H180516   6.743   1.550   4.066 -0.6302 -0.0925 -0.8466
19675TIP3    H280517   6.807   1.519   3.932  1.3864 -0.7030  0.2060
19676TIP3   OH280518   2.124   3.424   1.652 -0.0707 -0.1099  0.1475
19676TIP3    H180519   2.148   3.504   1.699  1.4229 -0.9038  0.8199
19676TIP3    H280520   2.170   3.355   1.699 -2.7897 -1.6491  0.7583
19677TIP3   OH280521   3.143   6.224  17.051 -0.7159  0.0840 -0.2646
19677TIP3    H180522   3.094   6.216  16.969  0.8740 -0.2898 -1.2237
19677TIP3    H280523   3.228   6.186  17.032 -0.0989  0.5315  1.4049
19678TIP3   OH280524   4.530   6.176  12.522  0.0922  0.1354  0.0476
19678TIP3    H180525   4.496   6.263  12.501  0.0121 -0.2484 -1.5935
19678TIP3    H280526   4.589   6.190  12.596 -0.7119  1.4063  0.4708
19679TIP3   OH280527   3.067   1.116  16.067 -0.4904 -0.7038 -0.3266
19679TIP3    H180528   3.097   1.079  15.985 -0.7190 -0.2222 -0.6327
19679TIP3    H280529   3.038   1.204  16.044  2.4335  0.7039  0.7568
19680TIP3   OH280530   0.967   2.798   4.381 -0.0529 -0.1791  0.0348
19680TIP3    H180531   0.992   2.768   4.469 -0.0270  1.6300  0.6853
19680TIP3    H280532   1.051   2.809   4.335  0.2802  2.5680  1.0972
19681TIP3   OH280533   1.831   0.126   4.595 -0.2289  0.4504 -0.1640
19681TIP3    H180534   1.746   0.096   4.627 -0.5010  0.1055 -1.1706
19681TIP3    H280535   1.821   0.128   4.500  0.7962  0.6970 -0.2731
19682TIP3   OH280536   0.766   5.777   3.225 -0.0647 -0.0244  0.1910
19682TIP3    H180537   0.677   5.804   3.203  1.2007  2.5677 -2.4117
19682TIP3    H280538   0.780   5.697   3.174 -1.2138 -1.1629  1.5726
19683TIP3   OH280539   0.454   3.161   5.436  0.0657 -0.0979 -0.1800
19683TIP3    H180540   0.524   3.112   5.393 -1.6634 -0.5419 -2.7431
19683TIP3    H280541   0.376   3.140   5.385 -1.6181  1.7535  1.4722
19684TIP3   OH280542   3.354   1.023   3.541  0.2368  0.4326  0.3859
19684TIP3    H180543   3.440   1.000   3.506  0.9438  1.6738  1.2238
19684TIP3    H280544   3.372   1.091   3.606 -1.4232  1.0067  0.2928
19685TIP3   OH280545   1.735   2.327  16.702  0.3841 -0.1024  0.2689
19685TIP3    H180546   1.669   2.332  16.632 -1.1489  0.3000  1.6806
19685TIP3    H280547   1.720   2.406  16.755  0.7668 -0.9362  1.6650
19686TIP3   OH280548   3.845   1.011   5.488 -0.5275 -0.3330 -0.0955
19686TIP3    H180549   3.793   0.946   5.535  1.4019 -1.2754  0.8513
19686TIP3    H280550   3.834   1.092   5.539 -0.5052 -0.7051  0.5038
19687TIP3   OH280551   1.920   0.840   3.431 -0.1947  0.0194 -0.0522
19687TIP3    H180552   1.826   0.825   3.439 -0.3155  1.1748  0.9526
19687TIP3    H280553   1.956   0.818   3.516  0.3588  0.2266 -0.2261
19688TIP3   OH280554   5.485   0.523   1.951 -0.8584  0.7252  0.4176
19688TIP3    H180555   5.486   0.445   2.007 -2.0774 -1.0934 -1.9348
19688TIP3    H280556   5.478   0.596   2.012 -1.3382 -1.0838  2.6677
19689TIP3   OH280557   4.721   2.292   1.991  0.4199  1.0507 -0.0851
19689TIP3    H180558   4.694   2.312   2.081 -1.2478  1.1249 -0.5627
19689TIP3    H280559   4.661   2.224   1.962  0.9659  0.9951 -1.1408
19690TIP3   OH280560   3.818   6.234   1.166  0.0020 -0.2338 -0.1702
19690TIP3    H180561   3.743   6.191   1.207 -2.2082  1.5842 -2.0344
19690TIP3    H280562   3.858   6.166   1.113 -1.5483 -0.8138 -0.6708
19691TIP3   OH280563   3.285   6.393   4.185 -0.1856  0.0297 -0.4530
19691TIP3    H180564   3.381   6.392   4.189 -0.2056 -0.5918  0.1743
19691TIP3    H280565   3.258   6.339   4.260 -1.0688  2.3437  0.9954
19692TIP3   OH280566   1.166   1.291  17.025  0.4078 -0.6168 -0.6019
19692TIP3    H180567   1.200   1.202  17.026  2.4301  0.1239  0.2258
19692TIP3    H280568   1.195   1.330  17.107  0.5081  1.1370 -1.4104
19693TIP3   OH280569   1.827   1.912   5.714 -0.1272 -0.3403 -0.7407
19693TIP3    H180570   1.763   1.903   5.642  0.2500  1.3148 -1.3257
19693TIP3    H280571   1.853   2.004   5.711  1.4181 -0.7183  0.2446
19694TIP3   OH280572   5.136   1.648   1.072 -0.6733 -0.5940 -0.0345
19694TIP3    H180573   5.167   1.722   1.019  0.2196 -0.2906  0.8753
19694TIP3    H280574   5.109   1.583   1.008  0.8582 -0.4343 -0.9026
19695TIP3   OH280575   6.086   2.762  15.104 -0.3298 -0.2940  0.3744
19695TIP3    H180576   6.091   2.845  15.152  0.9660  0.4244 -0.9170
19695TIP3    H280577   6.025   2.780  15.031  0.9387 -0.0278 -0.6598
19696TIP3   OH280578   3.174   0.014   1.183  0.3124 -0.4046  0.1723
19696TIP3    H180579   3.187  -0.079   1.200 -0.0872 -0.6801 -0.9525
19696TIP3    H280580   3.189   0.024   1.089 -1.1303  0.3998 -0.0018
19697TIP3   OH280581   3.099   6.341  15.814  0.3895 -0.0830 -0.8882
19697TIP3    H180582   3.007   6.336  15.839  0.5340 -0.7863 -0.4754
19697TIP3    H280583   3.135   6.410  15.870  0.3862 -0.6558 -0.1730
19698TIP3   OH280584   3.904   6.695   5.036  0.1055 -0.0263 -0.3146
19698TIP3    H180585   3.934   6.669   5.124 -1.3175  0.0218  0.2023
19698TIP3    H280586   3.875   6.613   4.996 -2.2150  0.3481  0.4626
19699TIP3   OH280587   2.587   5.601   3.803  0.2018  0.7328 -0.0409
19699TIP3    H180588   2.657   5.545   3.837 -0.7889 -0.3264  0.2851
19699TIP3    H280589   2.581   5.578   3.710 -0.5888 -0.1436  0.2136
19700TIP3   OH280590   6.085   5.004   6.588 -0.0599  0.0187 -0.0755
19700TIP3    H180591   6.059   4.916   6.616  0.0104  0.0356  0.0462
19700TIP3    H280592   6.034   5.020   6.509  1.0507 -0.7224 -0.9634
19701TIP3   OH280593   4.444   4.193  12.931 -0.0109 -0.3884  0.1909
19701TIP3    H180594   4.349   4.183  12.923 -0.2911  1.9754  0.0200
19701TIP3    H280595   4.456   4.240  13.014  1.2131 -2.6158  1.3660
19702TIP3   OH280596   3.756   6.429   2.116  0.2055  0.3126  0.0003
19702TIP3    H180597   3.837   6.472   2.088  0.3630  1.3684  1.8917
19702TIP3    H280598   3.699   6.432   2.040  1.1627  1.5784 -0.6884
19703TIP3   OH280599   3.239   6.258   4.962  0.9076 -0.1517  0.2076
19703TIP3    H180600   3.306   6.228   5.024  0.4064 -0.4839  0.5926
19703TIP3    H280601   3.205   6.338   5.000  0.0691 -0.7515  0.7641
19704TIP3   OH280602   6.241   1.599  13.138 -0.4496  0.6303  0.5724
19704TIP3    H180603   6.292   1.521  13.116 -0.3729  0.7243  0.4200
19704TIP3    H280604   6.304   1.657  13.181 -0.6916  0.2663  1.4612
19705TIP3   OH280605   5.443   4.731  13.042 -0.4017  0.2743 -0.0822
19705TIP3    H180606   5.379   4.784  12.994 -1.9478 -0.7157  0.8213
19705TIP3    H280607   5.395   4.654  13.070  0.7852  0.1999  1.9748
19706TIP3   OH280608   0.348   0.408   3.854  0.0250  0.2742  0.6415
19706TIP3    H180609   0.399   0.406   3.773 -2.3097  0.2570 -0.9140
19706TIP3    H280610   0.367   0.495   3.891  0.7447  0.4823 -0.1689
19707TIP3   OH280611   4.919   2.591   1.679 -0.2858 -0.3589  0.3129
19707TIP3    H180612   4.935   2.544   1.597  0.0727 -1.1480  0.8136
19707TIP3    H280613   4.953   2.679   1.664  1.3273 -0.9696  0.1529
19708TIP3   OH280614   3.279   3.135  15.369 -0.2144 -0.0798 -0.1900
19708TIP3    H180615   3.231   3.172  15.295 -0.7177 -0.1763  0.0813
19708TIP3    H280616   3.250   3.044  15.373 -1.6683  0.3896  1.2796
19709TIP3   OH280617   0.055   0.358   0.840 -0.1907  0.5765 -0.0303
19709TIP3    H180618   0.015   0.298   0.777 -0.6691  1.7225 -0.8493
19709TIP3    H280619   0.037   0.318   0.925 -2.3846  0.6221 -0.4239
19710TIP3   OH280620   2.454   5.025  10.653  0.7868 -0.3291 -0.2868
19710TIP3    H180621   2.497   5.029  10.568 -0.6387  0.3677 -1.0037
19710TIP3    H280622   2.427   4.934  10.662  3.5457 -1.1653  0.8239
19711TIP3   OH280623   5.879   3.984   2.207  0.3147  0.1691  0.4152
19711TIP3    H180624   5.961   4.026   2.179  1.3176 -1.0818  1.3384
19711TIP3    H280625   5.831   3.969   2.126  0.8510  1.2049 -0.1196
19712TIP3   OH280626   5.598   1.480  15.797 -0.0986  0.2941  0.0549
19712TIP3    H180627   5.611   1.574  15.813  2.1917  0.4122 -1.9627
19712TIP3    H280628   5.628   1.438  15.877  1.6945  1.2000 -0.1028
19713TIP3   OH280629   6.383   4.017   5.375 -0.5996  0.0915  0.2111
19713TIP3    H180630   6.372   3.947   5.439 -0.6940  0.7748  0.9711
19713TIP3    H280631   6.477   4.017   5.355 -0.0496  1.5198  2.3668
19714TIP3   OH280632   4.058   4.446   4.831  0.6216 -0.3054 -0.0392
19714TIP3    H180633   4.134   4.498   4.805 -0.3088  0.1534 -2.0431
19714TIP3    H280634   3.985   4.484   4.781 -1.0854 -0.2849  2.3266
19715TIP3   OH280635   4.296   1.244  12.186  0.0001  0.2715  0.0172
19715TIP3    H180636   4.358   1.172  12.196 -1.3018 -0.6320  2.7096
19715TIP3    H280637   4.340   1.320  12.226  0.0845  0.1113  0.2288
19716TIP3   OH280638   4.765   2.590  16.860 -0.2718  0.1015 -0.3264
19716TIP3    H180639   4.778   2.684  16.846  1.6170 -0.1848 -0.7521
19716TIP3    H280640   4.677   2.584  16.898  0.4400  2.2651  1.9595
19717TIP3   OH280641   1.934   3.864   1.270 -0.7705 -0.4896 -0.5378
19717TIP3    H180642   1.888   3.781   1.277 -1.6416 -0.0416 -0.8194
19717TIP3    H280643   1.898   3.918   1.341 -0.5039 -0.2202 -0.6040
19718TIP3   OH280644   3.023   4.616   2.369  0.4515  0.7165 -0.2344
19718TIP3    H180645   2.936   4.606   2.330  0.0483  0.5906  0.6933
19718TIP3    H280646   3.061   4.529   2.365  0.5786  0.7864 -0.7079
19719TIP3   OH280647   6.479   1.508   0.872  0.4382  0.1305 -0.1985
19719TIP3    H180648   6.477   1.413   0.864  2.1440 -0.0433  0.8981
19719TIP3    H280649   6.555   1.535   0.819  0.5753  0.7725  0.3120
19720TIP3   OH280650   4.649   0.123  10.420  0.2547  0.2868  0.6124
19720TIP3    H180651   4.669   0.191  10.355 -0.5197  0.1373  0.2151
19720TIP3    H280652   4.725   0.065  10.417  0.5301  0.6510  0.3279
19721TIP3   OH280653   3.184   3.153  11.997 -0.6175 -0.0469  0.0510
19721TIP3    H180654   3.180   3.133  12.091  0.7479 -0.7165 -0.0136
19721TIP3    H280655   3.143   3.239  11.990 -1.1314 -0.1746  1.1986
19722TIP3   OH280656   4.828   0.232   1.141 -0.0244  0.0867  0.0343
19722TIP3    H180657   4.783   0.230   1.057 -1.3120 -1.1903  0.7270
19722TIP3    H280658   4.883   0.311   1.137  0.5507 -0.3592 -2.2904
19723TIP3   OH280659   1.351   2.660   5.618 -0.3128  0.2008 -0.0650
19723TIP3    H180660   1.312   2.580   5.651  0.2246 -0.1811 -0.3346
19723TIP3    H280661   1.443   2.654   5.643  0.1184 -0.1120 -1.6075
19724TIP3   OH280662   2.182   0.473  10.977 -0.4087  0.0581 -0.3619
19724TIP3    H180663   2.153   0.402  10.920  1.6980 -0.6655 -0.6376
19724TIP3    H280664   2.179   0.436  11.066 -0.4062  0.0059 -0.3833
19725TIP3   OH280665   5.232   1.109  13.359 -0.5828 -0.1379  0.4791
19725TIP3    H180666   5.255   1.128  13.268  0.1709 -2.7505  0.0229
19725TIP3    H280667   5.158   1.048  13.352 -1.2016  0.4508  1.6634
19726TIP3   OH280668   5.454   4.440  16.803  0.0277 -0.8581 -0.3395
19726TIP3    H180669   5.440   4.534  16.815  1.3838 -0.4471 -1.5905
19726TIP3    H280670   5.535   4.422  16.850  1.2047 -0.8105 -2.2664
19727TIP3   OH280671   4.958   1.366   6.280 -0.0716 -0.2841  0.0892
19727TIP3    H180672   4.976   1.411   6.362 -0.8872  0.1753  0.0298
19727TIP3    H280673   4.948   1.436   6.215  0.5218 -0.6388 -0.4021
19728TIP3   OH280674   6.466   5.353   3.651  0.8255 -0.0440  0.4550
19728TIP3    H180675   6.374   5.374   3.665  0.6236  0.2738 -1.1193
19728TIP3    H280676   6.486   5.286   3.716 -0.3788  0.2275  1.1253
19729TIP3   OH280677   1.807   5.211   5.577 -0.4691  0.1849  0.1458
19729TIP3    H180678   1.730   5.156   5.563 -0.6582  0.7091 -1.0323
19729TIP3    H280679   1.772   5.293   5.612 -0.4266  0.3539 -0.2055
19730TIP3   OH280680   2.596   5.805  11.938 -0.0113 -0.5846  0.6183
19730TIP3    H180681   2.509   5.784  11.972 -0.9745  2.1813  0.0825
19730TIP3    H280682   2.581   5.875  11.874  2.4625 -1.0793 -0.6193
19731TIP3   OH280683   4.298   6.307   4.353 -0.4698 -0.3278  0.2103
19731TIP3    H180684   4.323   6.321   4.262  0.0335  1.2567  0.5579
19731TIP3    H280685   4.225   6.368   4.367  0.0388  0.0883  1.1061
19732TIP3   OH280686   6.148   5.083   2.036  0.0174  1.1948 -0.0305
19732TIP3    H180687   6.210   5.048   2.099 -0.7336  0.9270  0.5761
19732TIP3    H280688   6.203   5.117   1.964  0.7670 -2.1595 -1.2073
19733TIP3   OH280689   3.271   2.535  12.181 -0.0947 -0.2480  0.2167
19733TIP3    H180690   3.225   2.617  12.200  1.2935  0.1261  2.1821
19733TIP3    H280691   3.364   2.557  12.190  0.2983 -2.0063  0.7138
19734TIP3   OH280692   3.358   4.782   3.197  0.3162  0.1539 -0.0391
19734TIP3    H180693   3.298   4.822   3.261  0.9674  1.2137 -0.0681
19734TIP3    H280694   3.338   4.688   3.201 -3.1295  0.6317 -1.8553
19735TIP3   OH280695   3.028   3.174  14.281  0.0307  0.1796 -0.2954
19735TIP3    H180696   3.019   3.225  14.361 -0.4310 -2.2625  1.3252
19735TIP3    H280697   3.112   3.202  14.244  1.0187  0.2977  1.8952
19736TIP3   OH280698   3.641   4.608   3.657  0.2671  0.4582  0.0166
19736TIP3    H180699   3.726   4.592   3.616  0.4074 -0.0927  0.5019
19736TIP3    H280700   3.645   4.699   3.686 -0.4117  1.3533 -2.5173
19737TIP3   OH280701   1.424   1.538  11.478  0.5467 -0.3257  0.4145
19737TIP3    H180702   1.467   1.621  11.460  0.5317  0.1022  2.1888
19737TIP3    H280703   1.419   1.495  11.393 -0.7181  2.0586 -0.8122
19738TIP3   OH280704   2.740   6.746  13.641  0.4271  0.4075  0.4720
19738TIP3    H180705   2.683   6.738  13.565  0.8276  0.0828  0.2080
19738TIP3    H280706   2.680   6.758  13.715 -0.0876 -1.8485  0.4747
19739TIP3   OH280707   0.731   2.367   4.319 -0.1000 -0.5775  0.2351
19739TIP3    H180708   0.765   2.453   4.295 -2.7269  0.5610  0.2009
19739TIP3    H280709   0.759   2.355   4.410 -0.1931  0.5989  0.4373
19740TIP3   OH280710   6.816   5.003  10.610 -0.6929 -0.5518 -0.1607
19740TIP3    H180711   6.909   5.022  10.597 -0.7603  1.3983  1.6233
19740TIP3    H280712   6.782   4.984  10.523  1.1692 -0.2698 -0.9822
19741TIP3   OH280713   3.770   5.607  12.034 -0.3206  0.2377 -0.0292
19741TIP3    H180714   3.721   5.525  12.038  1.5944 -1.0162 -0.8773
19741TIP3    H280715   3.840   5.596  12.098  0.0711  1.1324 -0.2929
19742TIP3   OH280716   0.794   0.045  11.219  0.2551  0.1787  0.4733
19742TIP3    H180717   0.872   0.088  11.183  0.4759  0.5552  1.3666
19742TIP3    H280718   0.761  -0.009  11.147  2.6547 -1.8130  0.6936
19743TIP3   OH280719   2.908   2.926   2.348  0.5835  0.0993  0.0641
19743TIP3    H180720   2.906   2.870   2.270 -3.6151 -1.4810  1.0314
19743TIP3    H280721   2.858   3.004   2.323  0.3602  0.1896  0.7753
19744TIP3   OH280722   5.191   1.580   1.397 -0.4664 -0.3451  0.0867
19744TIP3    H180723   5.254   1.524   1.441  0.6380  1.1497  0.5071
19744TIP3    H280724   5.114   1.580   1.454 -0.4832 -1.4012  0.0723
19745TIP3   OH280725   1.579   2.612   1.249  1.1938  0.3604  0.0306
19745TIP3    H180726   1.550   2.572   1.168  0.9144 -1.9434  1.1840
19745TIP3    H280727   1.512   2.588   1.313  2.9960 -0.6735  1.6200
19746TIP3   OH280728   3.443   2.967  12.530  0.2164  0.1032 -0.0819
19746TIP3    H180729   3.537   2.952  12.529 -0.0199 -1.7392  0.9842
19746TIP3    H280730   3.407   2.892  12.577 -1.8342  0.5070 -0.8940
19747TIP3   OH280731   3.618   5.079   2.487 -0.3740  0.3279  0.3002
19747TIP3    H180732   3.623   5.085   2.392 -2.3299 -0.3739  0.1122
19747TIP3    H280733   3.600   5.168   2.516 -1.0223  0.3353 -0.1026
19748TIP3   OH280734   1.581   2.568  14.314  0.5923  0.5262 -0.2568
19748TIP3    H180735   1.661   2.530  14.353  0.6783  1.1328  0.1722
19748TIP3    H280736   1.608   2.654  14.284 -0.1590  1.2121  0.9297
19749TIP3   OH280737   3.344   3.803  13.917  0.1273 -0.0003 -0.2628
19749TIP3    H180738   3.389   3.719  13.902  2.3259  0.8822  0.9401
19749TIP3    H280739   3.379   3.861  13.849  0.0986  0.4447  0.0958
19750TIP3   OH280740   3.109   4.142   5.418 -0.3281  0.2030 -0.2296
19750TIP3    H180741   3.147   4.068   5.371 -0.4004  0.1594 -0.2189
19750TIP3    H280742   3.044   4.103   5.476 -0.4029  0.2798 -0.2613
19751TIP3   OH280743   4.480   6.736  11.073  0.9524  0.0924  0.5894
19751TIP3    H180744   4.461   6.666  11.011 -2.5154  0.5725  0.9214
19751TIP3    H280745   4.478   6.694  11.159 -1.5786  0.5276  0.8258
19752TIP3   OH280746   2.266   5.808   0.823 -0.1731  0.3488 -0.5943
19752TIP3    H180747   2.253   5.873   0.754 -0.3230  0.1171 -0.7872
19752TIP3    H280748   2.353   5.827   0.858  0.8022 -0.8163 -2.2454
19753TIP3   OH280749   1.878   2.972   0.532 -0.1429 -0.2279 -0.3738
19753TIP3    H180750   1.913   3.060   0.513  2.1885 -0.8632  0.5942
19753TIP3    H280751   1.804   2.962   0.473  0.0289  2.0785 -1.0772
19754TIP3   OH280752   3.809   1.653   4.105  0.0016  0.4040  0.0982
19754TIP3    H180753   3.819   1.702   4.023 -0.7779  0.9833  0.3355
19754TIP3    H280754   3.892   1.666   4.151 -0.1252  1.3497  0.0714
19755TIP3   OH280755   5.511   1.796  11.461 -0.6745  0.0075 -0.6850
19755TIP3    H180756   5.539   1.872  11.513 -0.4616  0.3878 -1.3415
19755TIP3    H280757   5.463   1.834  11.388 -0.7033 -0.5059 -0.9369
19756TIP3   OH280758   1.579   5.165  12.781 -0.3566 -0.6726  0.3764
19756TIP3    H180759   1.665   5.204  12.770 -0.4449 -0.5919 -0.0459
19756TIP3    H280760   1.519   5.240  12.783 -0.5380 -0.7731 -0.5499
19757TIP3   OH280761   3.593   0.777   4.048  0.1522  0.3868 -0.2426
19757TIP3    H180762   3.506   0.763   4.012 -0.3482  1.7417  0.3811
19757TIP3    H280763   3.646   0.706   4.012 -0.6589  0.8534 -2.4736
19758TIP3   OH280764   1.354   3.993   5.094 -0.1441  0.2248  0.3922
19758TIP3    H180765   1.368   4.035   5.009 -0.1544  0.7169  0.6312
19758TIP3    H280766   1.292   4.050   5.139 -2.2882 -1.4512 -0.3082
19759TIP3   OH280767   5.920   3.523  13.349  0.8819 -0.2651  0.2680
19759TIP3    H180768   5.967   3.592  13.396 -0.3929  0.5674  0.3687
19759TIP3    H280769   5.869   3.478  13.416 -0.5837  0.6314 -0.2030
19760TIP3   OH280770   4.354   3.473   5.895 -0.0544  0.1773  0.2878
19760TIP3    H180771   4.312   3.476   5.809  1.6087  1.1170 -0.5508
19760TIP3    H280772   4.336   3.560   5.932  0.6516  0.3986  0.1369
19761TIP3   OH280773   0.183   6.370  11.048  0.1286  0.1697 -0.6526
19761TIP3    H180774   0.102   6.416  11.025  0.1153  0.0317 -0.8849
19761TIP3    H280775   0.182   6.291  10.994  0.6069  0.3554 -0.9369
19762TIP3   OH280776   4.327   0.119  11.199 -0.1793 -0.6920  0.3027
19762TIP3    H180777   4.371   0.034  11.199  0.8085 -0.2004  0.8710
19762TIP3    H280778   4.347   0.156  11.285 -0.0999  0.3551 -0.1531
19763TIP3   OH280779   4.124   2.945   0.245  0.8838 -0.2986 -0.9908
19763TIP3    H180780   4.037   2.951   0.204  0.6723 -0.5440 -0.5830
19763TIP3    H280781   4.182   2.988   0.183  0.1782  1.6793 -0.3654
19764TIP3   OH280782   1.157   0.553   4.416 -0.1672  0.0452  0.1543
19764TIP3    H180783   1.100   0.516   4.348 -2.4662  2.5399  0.5862
19764TIP3    H280784   1.198   0.629   4.375  0.8248 -0.1863  0.6754
19765TIP3   OH280785   1.775   2.403   4.215 -0.0031  0.0122 -0.2551
19765TIP3    H180786   1.776   2.331   4.278  0.1145  0.5757  0.4020
19765TIP3    H280787   1.683   2.425   4.204  0.0771  1.6454  1.7751
19766TIP3   OH280788   5.820   4.514   0.431 -0.1611  0.8911 -0.4999
19766TIP3    H180789   5.854   4.442   0.377 -0.8064 -1.3978  1.9118
19766TIP3    H280790   5.725   4.509   0.419 -0.3268  0.2158  0.8977
19767TIP3   OH280791   6.782   0.848   0.909  0.6230 -0.7569 -0.5970
19767TIP3    H180792   6.813   0.758   0.904 -0.7175 -1.1956 -1.8461
19767TIP3    H280793   6.776   0.876   0.818  2.5374  1.1894 -0.2103
19768TIP3   OH280794   1.019   3.606  11.625 -0.1547 -0.3408 -0.0121
19768TIP3    H180795   0.964   3.559  11.563  0.9551 -0.8442 -0.6464
19768TIP3    H280796   1.082   3.541  11.655 -0.0938  0.1412  0.9338
19769TIP3   OH280797   0.210   5.638   2.588 -0.2286  0.2127 -0.8322
19769TIP3    H180798   0.217   5.733   2.591 -0.8926  0.2256  0.9836
19769TIP3    H280799   0.280   5.606   2.644 -0.3081 -0.3547 -1.0442
19770TIP3   OH280800   2.486   2.388  14.806  0.3894  0.0432  0.6149
19770TIP3    H180801   2.444   2.358  14.726  0.8418  0.3042  0.2759
19770TIP3    H280802   2.478   2.314  14.867  1.0082 -0.5648 -0.0246
19771TIP3   OH280803   5.446   4.093  11.012 -0.0152  0.8659 -0.1397
19771TIP3    H180804   5.535   4.122  10.990 -0.0454  1.0720  0.0053
19771TIP3    H280805   5.422   4.034  10.940  0.7142 -0.2105  0.4756
19772TIP3   OH280806   1.925   2.142   0.428 -0.1556 -0.3274  0.5076
19772TIP3    H180807   1.887   2.060   0.396 -0.6592 -0.1054  0.5197
19772TIP3    H280808   2.013   2.119   0.456  0.2390 -0.5710 -0.8527
19773TIP3   OH280809   5.478   3.066  14.610  0.4508 -0.1796 -0.3504
19773TIP3    H180810   5.466   2.989  14.554 -0.4808 -1.0511  0.9795
19773TIP3    H280811   5.390   3.095  14.632  0.7921  1.1029 -0.5672
19774TIP3   OH280812   6.763   3.844   3.347  0.6081 -0.0848 -0.3239
19774TIP3    H180813   6.724   3.758   3.331 -0.0313  0.0798  0.3248
19774TIP3    H280814   6.824   3.829   3.419 -1.0063  0.3865  1.2128
19775TIP3   OH280815   0.173   2.320  14.534  0.0009  0.7015  0.0951
19775TIP3    H180816   0.179   2.339  14.628  2.6049  1.4518 -0.1506
19775TIP3    H280817   0.264   2.308  14.506 -0.7979 -1.0077 -2.0673
19776TIP3   OH280818   1.038   3.630   4.076  0.5521 -0.2019 -0.0034
19776TIP3    H180819   1.077   3.678   4.003  0.9992 -1.5436 -0.6635
19776TIP3    H280820   1.048   3.538   4.053 -2.3077 -0.6327  0.1839
19777TIP3   OH280821   5.588   3.362  16.803 -0.4904  0.0060 -0.0179
19777TIP3    H180822   5.569   3.284  16.750 -0.1425 -0.6566  0.8144
19777TIP3    H280823   5.544   3.345  16.886  1.7776 -0.5148  1.1312
19778TIP3   OH280824   4.756   1.556   1.770 -0.6235  0.2161  0.6738
19778TIP3    H180825   4.663   1.533   1.768 -0.7723  0.4454  2.5777
19778TIP3    H280826   4.760   1.644   1.735 -0.8985 -0.3213 -0.7806
19779TIP3   OH280827   6.580   0.713  13.155  0.1480  0.0779 -0.1618
19779TIP3    H180828   6.489   0.724  13.128 -0.3649 -1.3746  0.8662
19779TIP3    H280829   6.630   0.729  13.075 -1.0156  0.6060 -0.8120
19780TIP3   OH280830   2.729   3.173   0.272  0.4958  0.4849 -0.0677
19780TIP3    H180831   2.718   3.084   0.305  0.6391  1.1273  1.7860
19780TIP3    H280832   2.739   3.161   0.177 -2.3775 -1.2380 -0.2977
19781TIP3   OH280833   2.973   5.309  14.914 -0.2568  0.0895  0.5687
19781TIP3    H180834   2.962   5.283  15.005 -0.4731 -1.3431  0.1601
19781TIP3    H280835   2.930   5.239  14.864  3.1149 -1.2213 -0.7830
19782TIP3   OH280836   0.749   2.904  16.506 -0.6971  0.1067 -0.1103
19782TIP3    H180837   0.657   2.932  16.498 -0.8670  0.1321  1.5159
19782TIP3    H280838   0.788   2.970  16.563  0.3517  0.0820 -0.7776
19783TIP3   OH280839   3.615   6.210  11.913 -0.7476 -0.4883  0.6287
19783TIP3    H180840   3.527   6.196  11.949 -0.4719  0.0268  1.5055
19783TIP3    H280841   3.674   6.204  11.988  0.1808 -2.5187 -0.1630
19784TIP3   OH280842   2.090   2.666   6.380 -0.5998  0.3001  0.3222
19784TIP3    H180843   2.142   2.590   6.407  0.7122  0.7956 -0.7209
19784TIP3    H280844   2.153   2.738   6.376 -1.1634  0.7177 -1.8753
19785TIP3   OH280845   3.620   6.627  17.054 -0.2379  0.0266  0.4538
19785TIP3    H180846   3.545   6.581  17.091 -0.9048  0.4865 -0.2955
19785TIP3    H280847   3.647   6.688  17.123 -1.1593  0.5282  0.3887
19786TIP3   OH280848   3.175   2.928  11.804 -0.4517  0.0960 -0.0580
19786TIP3    H180849   3.125   2.862  11.854  0.0278  0.5285  1.0311
19786TIP3    H280850   3.204   2.990  11.870 -1.3314  1.7084 -1.1374
19787TIP3   OH280851   3.545   4.000  13.274  0.1239  0.1079  0.2808
19787TIP3    H180852   3.472   4.061  13.269  2.2206  2.9317  1.2855
19787TIP3    H280853   3.545   3.970  13.365 -0.9026 -1.4963 -0.2098
19788TIP3   OH280854   1.470   5.284   2.894  0.1774  0.3403 -0.1603
19788TIP3    H180855   1.456   5.333   2.812 -0.4997  0.4692  0.0275
19788TIP3    H280856   1.438   5.343   2.962 -2.0517 -0.9201 -0.0442
19789TIP3   OH280857   1.838   5.575   2.751  0.0516  0.4344  0.3125
19789TIP3    H180858   1.927   5.549   2.724  0.5351  1.2786  1.0268
19789TIP3    H280859   1.838   5.565   2.846 -0.3292  1.2685  0.4128
19790TIP3   OH280860   3.228   3.703   3.217  0.0793  0.1139  1.1332
19790TIP3    H180861   3.187   3.765   3.277 -1.5804  0.4180 -0.2230
19790TIP3    H280862   3.207   3.737   3.130 -0.8606 -2.2957  0.3414
19791TIP3   OH280863   2.121   0.894  13.863 -0.0400  0.1050  0.0059
19791TIP3    H180864   2.155   0.819  13.814  0.3650  0.1765  0.1799
19791TIP3    H280865   2.095   0.858  13.948 -0.1509  0.0985 -0.0308
19792TIP3   OH280866   3.498   2.520  12.548 -0.4756 -0.5175 -0.0816
19792TIP3    H180867   3.424   2.489  12.496 -0.0866  0.6528 -1.3730
19792TIP3    H280868   3.464   2.596  12.595 -0.2247 -0.2892 -0.2722
19793TIP3   OH280869   4.677   2.069  15.988 -0.6494 -0.1322  0.1940
19793TIP3    H180870   4.621   2.103  15.918  0.8195  1.0798 -0.4386
19793TIP3    H280871   4.720   2.146  16.024  1.3549 -1.1012 -0.0033
19794TIP3   OH280872   2.087   2.826  13.117 -0.2232 -0.7541  0.0764
19794TIP3    H180873   2.036   2.747  13.134 -0.8239 -0.1778  1.0299
19794TIP3    H280874   2.084   2.837  13.022 -2.2002 -0.5263  0.1394
19795TIP3   OH280875   1.940   5.739   4.275 -0.5901  0.0893 -0.1675
19795TIP3    H180876   1.891   5.770   4.351  0.6372 -0.0186  0.7019
19795TIP3    H280877   1.902   5.653   4.256 -0.0364 -0.4744  1.1783
19796TIP3   OH280878   0.724   3.283   6.186 -0.2295 -0.4846  0.0963
19796TIP3    H180879   0.775   3.345   6.133  0.5647 -0.9775  0.2696
19796TIP3    H280880   0.691   3.219   6.124 -1.7450  0.5359 -0.2088
19797TIP3   OH280881   6.217   4.831   6.137  0.0021 -0.2207  0.1406
19797TIP3    H180882   6.252   4.775   6.067 -0.0616 -0.4889  0.3221
19797TIP3    H280883   6.288   4.893   6.155  0.6783 -1.2180  1.0123
19798TIP3   OH280884   5.355   0.247   4.736 -0.0898  0.2947 -0.0707
19798TIP3    H180885   5.339   0.222   4.646  0.6288  0.9055 -0.3805
19798TIP3    H280886   5.449   0.235   4.749  0.4048  3.0320 -0.3644
19799TIP3   OH280887   3.239   2.585  12.877 -0.8590  0.6304 -0.1806
19799TIP3    H180888   3.231   2.612  12.968 -1.3168  1.5451 -0.4760
19799TIP3    H280889   3.162   2.530  12.861 -1.2586  1.1989 -0.2505
19800TIP3   OH280890   5.746   4.046  16.479 -0.1158  0.7636 -0.5783
19800TIP3    H180891   5.677   4.111  16.498 -0.6349  0.0468  0.0811
19800TIP3    H280892   5.698   3.969  16.448  0.2895 -0.0468  0.7096
19801TIP3   OH280893   3.364   4.715  12.468 -0.1753  0.1927 -0.5714
19801TIP3    H180894   3.286   4.704  12.522 -0.5697  1.5923 -0.8226
19801TIP3    H280895   3.392   4.625  12.447 -1.6942 -0.3293 -0.4653
19802TIP3   OH280896   0.715   3.733   4.137  0.1248  0.0026  0.0690
19802TIP3    H180897   0.769   3.803   4.174 -0.4337  0.8168 -0.6378
19802TIP3    H280898   0.772   3.692   4.071  1.3270 -1.8091  2.0920
19803TIP3   OH280899   3.681   1.012   1.250 -0.0833  0.0432  0.0494
19803TIP3    H180900   3.595   1.025   1.290  0.6173  0.5896  1.4875
19803TIP3    H280901   3.671   1.041   1.160 -0.9838  1.8099  0.6697
19804TIP3   OH280902   3.340   2.395   5.126 -1.1071 -0.2156  0.3149
19804TIP3    H180903   3.299   2.360   5.205 -0.5711 -0.1824  0.6086
19804TIP3    H280904   3.323   2.489   5.130 -1.4764 -0.2729  0.1532
19805TIP3   OH280905   5.233   4.122  15.152  0.1237  0.6263 -0.0944
19805TIP3    H180906   5.322   4.135  15.186  0.0778  0.2313  0.1871
19805TIP3    H280907   5.232   4.030  15.124 -0.4462  0.3777  0.6851
19806TIP3   OH280908   4.932   4.630  16.071 -0.3209 -0.1444 -0.1136
19806TIP3    H180909   4.990   4.599  16.140  1.8045 -1.0150 -2.1427
19806TIP3    H280910   4.862   4.565  16.067  0.7373 -1.3103 -0.2206
19807TIP3   OH280911   3.777   4.016  12.866 -0.2604  0.6306 -0.2349
19807TIP3    H180912   3.784   3.960  12.943 -0.3057  0.0017 -0.6738
19807TIP3    H280913   3.686   4.046  12.866 -0.7864 -0.8458 -1.0214
19808TIP3   OH280914   0.003   0.798  12.259  0.3041 -0.0783 -0.4542
19808TIP3    H180915   0.022   0.766  12.171  0.5767  0.9977 -0.7991
19808TIP3    H280916  -0.075   0.852  12.249  0.5041  0.2875 -0.1026
19809TIP3   OH280917   3.742   1.035  14.730 -0.0272 -0.1321  0.3362
19809TIP3    H180918   3.732   1.072  14.642 -1.6646 -1.4366 -0.0981
19809TIP3    H280919   3.743   1.110  14.788  2.9751  0.8955 -0.8484
19810TIP3   OH280920   3.397   5.834   0.935  0.5804  0.6032  0.4905
19810TIP3    H180921   3.394   5.914   0.987  0.6358  1.8590 -1.3535
19810TIP3    H280922   3.327   5.845   0.871  0.1055 -1.1822  0.6591
19811TIP3   OH280923   6.623   4.840  15.048  0.2320  0.5339 -0.2856
19811TIP3    H180924   6.681   4.889  14.989  1.0512 -0.2251 -0.1297
19811TIP3    H280925   6.683   4.792  15.106 -0.5278 -0.6340 -0.4248
19812TIP3   OH280926   0.144   2.871   5.909 -0.3285 -0.8428 -0.3351
19812TIP3    H180927   0.209   2.933   5.942 -0.3504 -0.8285 -0.3185
19812TIP3    H280928   0.183   2.834   5.830 -1.5444  1.3705 -2.0723
19813TIP3   OH280929   3.476   4.737  16.745  0.2139  0.0197  0.1400
19813TIP3    H180930   3.391   4.768  16.775  0.0585  0.8411 -1.0865
19813TIP3    H280931   3.456   4.669  16.680  0.3590  2.1372 -2.2564
19814TIP3   OH280932   1.585   6.244  12.925  0.4078 -0.0010  0.0908
19814TIP3    H180933   1.489   6.242  12.918  0.5095 -0.5404 -1.5498
19814TIP3    H280934   1.614   6.173  12.869  1.8395  1.4463 -1.0979
19815TIP3   OH280935   6.067   3.555   3.884  0.7585 -0.1987  0.3425
19815TIP3    H180936   6.074   3.624   3.818 -1.2020 -0.0537  0.2129
19815TIP3    H280937   6.053   3.602   3.966  1.8660 -0.4147  0.6731
19816TIP3   OH280938   1.000   3.566  13.144 -0.1012 -0.0962  0.3712
19816TIP3    H180939   1.090   3.598  13.155 -0.5795  0.7028  2.5799
19816TIP3    H280940   0.990   3.555  13.049  2.7594 -1.6083  0.1262
19817TIP3   OH280941   4.727   2.552  15.343 -0.1054 -0.1279 -0.0302
19817TIP3    H180942   4.738   2.473  15.290  1.1058 -1.3563  1.8761
19817TIP3    H280943   4.808   2.602  15.329 -0.6814  0.5716 -0.9006
19818TIP3   OH280944   2.605   0.162   3.348  0.0335 -0.7274 -0.2809
19818TIP3    H180945   2.592   0.239   3.292  2.2285  1.6117  2.1067
19818TIP3    H280946   2.683   0.120   3.313  0.7848  0.1246  0.3109
19819TIP3   OH280947   1.207   6.194  11.003  0.0583  0.6069 -0.3511
19819TIP3    H180948   1.178   6.155  10.921  0.6169 -1.7106  0.4535
19819TIP3    H280949   1.277   6.254  10.979 -1.0575  1.4162 -1.6975
19820TIP3   OH280950   1.367   0.240  12.885 -0.8023  0.0648 -0.6389
19820TIP3    H180951   1.438   0.295  12.853 -0.1854 -0.8178 -0.8422
19820TIP3    H280952   1.290   0.296  12.883  0.0393  1.3330  0.4373
19821TIP3   OH280953   6.476   4.196  15.039 -0.3179  0.1677  0.1360
19821TIP3    H180954   6.541   4.219  15.105 -0.8694  2.6431 -0.0976
19821TIP3    H280955   6.439   4.280  15.011 -2.4260 -1.0519 -0.9567
19822TIP3   OH280956   6.565   5.640   3.178  0.5239  0.2537  0.4226
19822TIP3    H180957   6.482   5.593   3.185  0.2774  0.7434  0.8938
19822TIP3    H280958   6.608   5.601   3.102  0.8851 -1.5814  1.5219
19823TIP3   OH280959   5.051   1.511   0.315 -0.1510 -0.0244 -0.3309
19823TIP3    H180960   5.116   1.506   0.245  2.0646 -1.1182  1.6605
19823TIP3    H280961   5.080   1.445   0.379 -2.4591  0.4306  1.3035
19824TIP3   OH280962   0.342   4.080   3.958  0.2461  0.2039  0.3305
19824TIP3    H180963   0.256   4.115   3.979  0.8555  0.9215  1.7565
19824TIP3    H280964   0.402   4.126   4.017  1.4334 -1.2058  0.2839
19825TIP3   OH280965   6.323   2.441   3.221  0.4659  0.7136  0.0393
19825TIP3    H180966   6.251   2.473   3.167  0.6549 -0.1783 -0.7663
19825TIP3    H280967   6.279   2.401   3.297  0.1915  1.6661  0.3928
19826TIP3   OH280968   3.641   6.367   4.321 -0.1310 -0.6554  0.0675
19826TIP3    H180969   3.644   6.424   4.244  0.0285 -1.4135 -0.5023
19826TIP3    H280970   3.587   6.414   4.384 -0.3455 -0.0653 -0.5439
19827TIP3   OH280971   4.557   5.309   5.467 -0.1689 -0.2169  0.6044
19827TIP3    H180972   4.577   5.395   5.428 -0.9316  0.6853  2.0992
19827TIP3    H280973   4.461   5.304   5.465 -0.4120  0.6916  3.8313
19828TIP3   OH280974   2.059   0.936  10.689 -0.2006  0.1722  0.0304
19828TIP3    H180975   2.083   0.844  10.680  1.2611  0.6129 -0.9516
19828TIP3    H280976   1.965   0.935  10.707 -0.7400 -1.4346 -2.4295
19829TIP3   OH280977   2.215   6.058  13.097 -0.5341  0.4837  0.4577
19829TIP3    H180978   2.165   5.978  13.113  0.7917 -0.4539  0.0816
19829TIP3    H280979   2.306   6.029  13.090  0.0906  2.1224  1.1190
19830TIP3   OH280980   3.485   2.280   4.930  0.1728  0.5565  0.5461
19830TIP3    H180981   3.431   2.327   4.994  0.4046  1.6384 -0.0223
19830TIP3    H280982   3.563   2.336   4.920 -0.0136  0.5875 -0.9242
19831TIP3   OH280983   6.735   3.898   2.742 -0.4660 -0.3147  0.3943
19831TIP3    H180984   6.784   3.923   2.821  0.8516 -2.0082  0.1829
19831TIP3    H280985   6.703   3.810   2.761 -1.4965 -0.1134 -0.3654
19832TIP3   OH280986   4.844   5.336   5.487  0.0746  0.5919 -0.4212
19832TIP3    H180987   4.872   5.425   5.464 -0.2750  1.3053  1.7084
19832TIP3    H280988   4.748   5.339   5.479  0.1503 -0.2044 -2.1986
19833TIP3   OH280989   5.105   6.176  16.529  0.0614  0.2153 -0.3192
19833TIP3    H180990   5.156   6.141  16.457 -0.1893  0.2950 -0.5356
19833TIP3    H280991   5.113   6.271  16.520  0.0778  0.2248 -0.2067
19834TIP3   OH280992   3.813   4.624   4.840 -0.2216  0.2286  0.3386
19834TIP3    H180993   3.859   4.693   4.887 -2.7131  1.9842  0.4599
19834TIP3    H280994   3.759   4.582   4.906 -0.9287  0.1813 -0.2479
19835TIP3   OH280995   2.882   6.812   5.554 -0.0523  0.1447  0.7617
19835TIP3    H180996   2.816   6.766   5.503 -0.9861  0.6099  1.5270
19835TIP3    H280997   2.929   6.865   5.489 -0.4029 -0.2191  0.2034
19836TIP3   OH280998   1.407   1.025   2.774 -0.2868 -0.4558 -0.4165
19836TIP3    H180999   1.491   1.064   2.795 -0.6266 -0.2840  0.6863
19836TIP3    H281000   1.410   0.937   2.813 -0.1048 -0.9831 -1.5672
19837TIP3   OH281001   2.455   6.141  17.126  0.2022 -0.0064 -0.2248
19837TIP3    H181002   2.485   6.095  17.205  0.0800  1.4678  0.7376
19837TIP3    H281003   2.361   6.126  17.123  0.4793 -1.8240 -1.3321
19838TIP3   OH281004   4.885   1.006   1.540 -0.6421  0.0331  0.5666
19838TIP3    H181005   4.930   0.957   1.609 -0.9678 -0.9434  0.1049
19838TIP3    H281006   4.847   1.081   1.585  0.0095 -0.0341  1.2653
19839TIP3   OH281007   4.187   2.802   5.280  0.0270  0.5759  0.2117
19839TIP3    H181008   4.259   2.806   5.343 -0.0411  2.6534  0.2228
19839TIP3    H281009   4.224   2.833   5.198 -0.0886 -1.3917 -0.6466
19840TIP3   OH281010   4.172   2.235  16.078  0.5972 -0.1062 -0.5217
19840TIP3    H181011   4.164   2.329  16.063 -3.2288 -0.0583  0.7551
19840TIP3    H281012   4.192   2.199  15.992  1.0971  1.7687 -1.2384
19841TIP3   OH281013   2.386   0.152  15.655  0.3801 -0.2829  0.1603
19841TIP3    H181014   2.336   0.211  15.711 -0.7719  0.7484 -1.8385
19841TIP3    H281015   2.363   0.064  15.687 -2.8490  0.1334 -0.6577
19842TIP3   OH281016   4.696   2.737   1.667 -0.0644 -0.3526  0.0103
19842TIP3    H181017   4.769   2.799   1.659  1.8330 -2.0112  2.6018
19842TIP3    H281018   4.733   2.654   1.636 -1.3227 -0.9595  0.1032
19843TIP3   OH281019   0.243   1.534   1.055 -0.2464  0.2620 -0.1128
19843TIP3    H181020   0.187   1.482   0.997  0.4894 -0.3594 -0.2835
19843TIP3    H281021   0.186   1.559   1.128 -0.9690  0.3844 -0.7181
19844TIP3   OH281022   5.696   1.727  13.178 -0.0815 -0.5877  0.3435
19844TIP3    H181023   5.779   1.695  13.141 -0.5996 -0.0458 -1.3848
19844TIP3    H281024   5.697   1.821  13.159 -0.7138 -0.4181  1.1054
19845TIP3   OH281025   3.398   5.361  11.787 -0.8230  0.2601 -0.3747
19845TIP3    H181026   3.332   5.317  11.841 -2.2846  2.6951  0.0035
19845TIP3    H281027   3.347   5.406  11.719  0.7413 -0.1360 -1.8877
19846TIP3   OH281028   0.153   2.233   2.777 -0.3709 -0.4010 -0.4051
19846TIP3    H181029   0.137   2.299   2.844 -1.5738 -0.8124 -0.2577
19846TIP3    H281030   0.228   2.266   2.727  2.7156 -1.5512  3.0468
19847TIP3   OH281031   6.719   3.358   6.325 -0.7552 -0.5950  0.1464
19847TIP3    H181032   6.644   3.407   6.291 -0.6012 -0.7599 -0.4263
19847TIP3    H281033   6.691   3.266   6.322  0.3937 -0.9365 -2.5298
19848TIP3   OH281034   0.308   4.913  16.628 -0.5734  0.2885 -0.2659
19848TIP3    H181035   0.389   4.910  16.680 -1.1526  0.3544  0.6687
19848TIP3    H281036   0.322   4.849  16.558 -0.5365 -1.2823  1.1220
19849TIP3   OH281037   2.683   4.027  14.285 -0.4588 -0.0791  0.3113
19849TIP3    H181038   2.683   4.119  14.311  0.4834  0.3649 -1.1381
19849TIP3    H281039   2.592   4.008  14.261 -0.9277  0.0660  1.8584
19850TIP3   OH281040   1.653   2.223  16.942  0.1150 -0.4076  0.5308
19850TIP3    H181041   1.626   2.313  16.961 -0.6276 -0.5591  0.2148
19850TIP3    H281042   1.664   2.221  16.847 -0.5807 -0.8399  0.4558
19851TIP3   OH281043   3.719   1.250   5.588 -0.4611  0.4712 -0.1166
19851TIP3    H181044   3.671   1.207   5.659 -0.0861 -2.1137 -1.3190
19851TIP3    H281045   3.655   1.311   5.551 -0.8767  1.3818  1.9683
19852TIP3   OH281046   1.454   4.975  13.421 -0.1043  0.8308 -0.0013
19852TIP3    H181047   1.531   4.999  13.370 -0.6876  1.5689 -0.5640
19852TIP3    H281048   1.454   4.880  13.421  0.6205  0.8268 -0.2890
19853TIP3   OH281049   5.634   4.135   4.768 -0.4285  0.9790  0.2903
19853TIP3    H181050   5.597   4.057   4.726  0.3766  0.1946  0.9946
19853TIP3    H281051   5.715   4.151   4.719 -0.6791  1.4747  0.0396
19854TIP3   OH281052   5.086   0.604  13.149  0.0698  0.0399 -0.4792
19854TIP3    H181053   5.152   0.558  13.097  2.3143  0.6447  1.6579
19854TIP3    H281054   5.101   0.697  13.131 -3.1156  0.1816 -3.2162
19855TIP3   OH281055   1.609   2.637  13.958  0.2356 -0.5529  0.0143
19855TIP3    H181056   1.653   2.686  13.888 -0.0198  2.3107  1.7259
19855TIP3    H281057   1.541   2.587  13.912  1.3849 -0.4080 -1.9929
19856TIP3   OH281058   2.930   6.561  13.521  0.3154  0.1334  0.0712
19856TIP3    H181059   3.013   6.569  13.567  0.3727  0.9248 -0.1477
19856TIP3    H281060   2.864   6.589  13.585  0.2205 -0.4272  0.2229
19857TIP3   OH281061   0.903   0.588  16.054 -0.3653  0.4014 -0.2117
19857TIP3    H181062   0.817   0.549  16.045 -0.4542  0.5343  0.0382
19857TIP3    H281063   0.923   0.580  16.148  0.4988 -0.8997 -0.4821
19858TIP3   OH281064   0.154   0.108   5.282 -0.5987 -0.7630  0.2439
19858TIP3    H181065   0.143   0.085   5.190  1.5469 -0.7605 -0.0666
19858TIP3    H281066   0.168   0.024   5.326 -2.5686 -0.8646  0.7799
19859TIP3   OH281067   0.914   3.875  11.554 -0.0676  0.4471 -0.2078
19859TIP3    H181068   0.909   3.781  11.574 -2.0113  0.9402  2.0803
19859TIP3    H281069   1.004   3.889  11.525  0.0401 -2.2396 -1.5044
19860TIP3   OH281070   4.945   6.064   4.833  0.0609  0.2579 -0.1655
19860TIP3    H181071   4.970   6.016   4.912  0.1023  0.2615 -0.1770
19860TIP3    H281072   4.946   5.997   4.764 -0.6069  0.1073 -0.0459
19861TIP3   OH281073   2.410   4.406  10.876 -0.2179 -0.0490  0.8315
19861TIP3    H181074   2.493   4.436  10.913  0.5627 -2.7196  1.4482
19861TIP3    H281075   2.344   4.461  10.919  0.8831 -1.0123  4.0525
19862TIP3   OH281076   6.768   5.306   3.289 -0.6150  0.6314 -0.0826
19862TIP3    H181077   6.710   5.230   3.276 -0.1340 -0.1417  1.8787
19862TIP3    H281078   6.742   5.340   3.375 -0.1138  2.0785 -0.4882
19863TIP3   OH281079   6.812   5.429  13.595  0.0987  0.6428  0.1663
19863TIP3    H181080   6.754   5.368  13.639 -0.0787 -0.8631 -2.0016
19863TIP3    H281081   6.892   5.428  13.647 -0.6604  0.2550  1.3637
19864TIP3   OH281082   3.987   4.972  14.808  0.7111  0.1639  0.6939
19864TIP3    H181083   3.987   4.915  14.885 -0.8293  0.6513  1.0856
19864TIP3    H281084   3.999   4.912  14.734  0.1966 -0.5538  1.1785
19865TIP3   OH281085   2.067   3.164   3.987 -0.4495 -0.3751  0.4766
19865TIP3    H181086   2.063   3.070   3.970  0.0410 -0.4833  0.9308
19865TIP3    H281087   2.112   3.200   3.910 -0.6722 -0.5052  0.2849
19866TIP3   OH281088   4.811   1.470   3.202 -0.3270  0.0004  0.3147
19866TIP3    H181089   4.824   1.553   3.249  0.5067 -0.4324  0.8671
19866TIP3    H281090   4.820   1.403   3.270  0.3102 -0.6050 -0.3600
19867TIP3   OH281091   2.018   1.282  14.275 -0.5223  0.1559  0.1839
19867TIP3    H181092   2.019   1.377  14.282  0.5544  0.2074 -0.4241
19867TIP3    H281093   2.003   1.264  14.182 -0.4488 -0.2619  0.2495
19868TIP3   OH281094   2.685   0.864  13.490  0.7249  0.0905 -0.1833
19868TIP3    H181095   2.611   0.880  13.433  0.7404 -0.0489 -0.2447
19868TIP3    H281096   2.647   0.833  13.572  0.7248 -0.1946 -0.2906
19869TIP3   OH281097   4.564   3.221   5.471 -0.3667  0.8304  0.5015
19869TIP3    H181098   4.584   3.135   5.433  0.7023  2.0189 -1.8357
19869TIP3    H281099   4.612   3.222   5.554  1.1166 -0.1681 -0.2969
19870TIP3   OH281100   4.255   2.385   3.138  0.3192  0.7347  0.7292
19870TIP3    H181101   4.242   2.479   3.126  1.1207  0.9584  1.4920
19870TIP3    H281102   4.194   2.361   3.207  0.5227  0.8115  0.9362
19871TIP3   OH281103   1.300   0.998   3.374 -0.0321 -0.4097 -0.6040
19871TIP3    H181104   1.234   0.963   3.433 -0.6941  0.4975 -0.7853
19871TIP3    H281105   1.251   1.042   3.305  0.7215  1.4522 -0.0337
19872TIP3   OH281106   1.537   4.719  13.427 -0.5951  0.4086  0.1925
19872TIP3    H181107   1.566   4.631  13.453 -0.1878  0.6457  0.5449
19872TIP3    H281108   1.605   4.748  13.365 -2.1851 -0.6633 -2.2206
19873TIP3   OH281109   3.856   4.468   2.929  0.2189  0.3277 -0.1119
19873TIP3    H181110   3.876   4.375   2.916 -2.2780 -0.0962 -1.5801
19873TIP3    H281111   3.919   4.514   2.873  2.3437 -0.3127  1.6044
19874TIP3   OH281112   3.939   0.838   5.307  0.0644 -0.3172 -0.3740
19874TIP3    H181113   3.916   0.900   5.376 -0.2958 -1.0594  0.1851
19874TIP3    H281114   3.870   0.772   5.310  1.4829 -1.8342  0.4015
19875TIP3   OH281115   6.783   4.002   1.693  0.1126  0.8028  0.3645
19875TIP3    H181116   6.857   4.062   1.705  1.5762 -0.8303 -0.1077
19875TIP3    H281117   6.783   3.948   1.772  1.0444 -0.8189 -0.6773
19876TIP3   OH281118   1.948   2.681   0.279  0.0516 -0.5003 -0.3318
19876TIP3    H181119   1.886   2.732   0.331 -3.4865 -4.3110 -0.3673
19876TIP3    H281120   1.966   2.604   0.333  3.7583 -0.2803 -1.0044
19877TIP3   OH281121   2.866   0.524  12.363 -0.3051  0.5079 -0.4999
19877TIP3    H181122   2.818   0.467  12.422 -0.5506  0.2758 -0.9237
19877TIP3    H281123   2.921   0.465  12.311  0.2883  0.7514 -0.1644
19878TIP3   OH281124   4.274   2.109  14.645 -0.4551  0.1044  0.3862
19878TIP3    H181125   4.286   2.169  14.718 -2.8694  0.7320  0.3466
19878TIP3    H281126   4.181   2.085  14.648 -0.6460  0.1290 -2.4371
19879TIP3   OH281127   0.766   0.494  16.649  0.4220  0.1488  0.1641
19879TIP3    H181128   0.723   0.417  16.685  1.7520 -1.0219 -0.6474
19879TIP3    H281129   0.696   0.560  16.643 -0.8073 -1.0592  0.6292
19880TIP3   OH281130   5.281   2.676  13.241  0.2564 -0.3366  0.1925
19880TIP3    H181131   5.340   2.608  13.206  1.0625  0.0437  0.7947
19880TIP3    H281132   5.237   2.633  13.315 -0.5740 -0.7624 -0.5268
19881TIP3   OH281133   3.524   6.482   4.531  0.0519 -0.0673  0.6672
19881TIP3    H181134   3.452   6.428   4.565  1.7511 -2.5944  0.5296
19881TIP3    H281135   3.564   6.519   4.610 -0.5022  0.1776  0.8436
19882TIP3   OH281136   3.162   6.033  15.267 -0.2654 -0.5207 -0.3152
19882TIP3    H181137   3.075   6.068  15.286 -0.6498 -0.5504 -1.8299
19882TIP3    H281138   3.218   6.065  15.338 -0.9758  1.6845 -0.6735
19883TIP3   OH281139   3.528   0.749   3.198 -0.6942  0.5455 -0.3419
19883TIP3    H181140   3.467   0.675   3.204  1.3497 -1.2088 -0.0189
19883TIP3    H281141   3.540   0.763   3.104 -2.4796  1.7549 -0.4424
19884TIP3   OH281142   1.470   4.299   5.632  0.5189  0.2905  0.5835
19884TIP3    H181143   1.505   4.371   5.684  0.8936 -0.4616  1.3986
19884TIP3    H281144   1.511   4.310   5.546 -0.1605  1.5887  0.3904
19885TIP3   OH281145   3.617   1.223   0.319 -0.6985 -0.6710  0.0382
19885TIP3    H181146   3.665   1.140   0.325  0.6026  0.0934  0.7889
19885TIP3    H281147   3.615   1.255   0.410  1.1223  1.3354 -0.5329
19886TIP3   OH281148   2.987   0.868  15.015  0.2221  0.1997 -0.0407
19886TIP3    H181149   2.916   0.877  14.952 -1.2692  1.2273  1.6879
19886TIP3    H281150   3.013   0.776  15.010 -1.8960 -0.4478 -0.0600
19887TIP3   OH281151   2.947   4.184   0.867  0.0560  0.3018  0.0576
19887TIP3    H181152   2.870   4.144   0.827 -1.7588  1.9449  1.6815
19887TIP3    H281153   2.963   4.263   0.815  1.0068 -0.2760 -0.5699
19888TIP3   OH281154   0.704   3.842  12.644 -0.3452  0.5008 -0.1417
19888TIP3    H181155   0.731   3.904  12.711  0.3688 -1.1337  1.1464
19888TIP3    H281156   0.769   3.853  12.574  1.7482 -0.9492  1.4408
19889TIP3   OH281157   6.614   1.186  15.745  0.3053 -0.2705  0.8299
19889TIP3    H181158   6.571   1.254  15.797  1.8986  1.0222  0.5138
19889TIP3    H281159   6.707   1.194  15.766  0.9472 -0.0916 -1.7344
19890TIP3   OH281160   3.782   6.378  13.103 -0.1782  0.5678 -0.0683
19890TIP3    H181161   3.691   6.376  13.132 -0.1615 -0.5229 -0.0615
19890TIP3    H281162   3.780   6.420  13.017 -0.6480  0.8256  0.0692
19891TIP3   OH281163   1.555   5.353   0.005 -0.5793 -0.0296  0.1588
19891TIP3    H181164   1.642   5.319  -0.016 -0.4211  1.6967 -2.6195
19891TIP3    H281165   1.571   5.419   0.072 -0.4776 -2.8412  3.1098
19892TIP3   OH281166   5.040   5.236  14.022  0.0615  0.1399 -0.2317
19892TIP3    H181167   4.983   5.225  14.098  0.6356  0.0447  0.1941
19892TIP3    H281168   5.058   5.147  13.992  0.3382  0.1497 -0.0979
19893TIP3   OH281169   0.969   0.884   4.780  0.2152 -0.3808  0.0103
19893TIP3    H181170   0.890   0.856   4.734  0.5924 -0.8361 -0.3708
19893TIP3    H281171   0.937   0.925   4.860 -0.3759 -1.1113  0.1562
19894TIP3   OH281172   3.848   6.139   0.089 -0.2845 -0.0118 -0.0754
19894TIP3    H181173   3.880   6.217   0.133  0.2423 -0.0753 -0.3410
19894TIP3    H281174   3.780   6.105   0.147 -1.0327  1.0422 -0.2988
19895TIP3   OH281175   0.350   4.021  14.946  0.2227 -0.2258  0.1183
19895TIP3    H181176   0.274   4.018  15.005 -0.7458 -1.9462 -1.1277
19895TIP3    H281177   0.420   3.977  14.995  0.3785  1.1770  1.1907
19896TIP3   OH281178   6.522   1.907  12.134  0.3446 -0.2201  0.1477
19896TIP3    H181179   6.523   2.002  12.142 -0.4153  0.1307 -2.7367
19896TIP3    H281180   6.584   1.876  12.199 -0.3544  2.1390  2.0485
19897TIP3   OH281181   3.172   4.135   2.088 -0.3864  0.0599 -0.0611
19897TIP3    H181182   3.194   4.119   1.996  1.3892 -0.7771  0.4595
19897TIP3    H281183   3.120   4.215   2.086 -0.9216 -0.2710 -1.8431
19898TIP3   OH281184   3.467   3.805  14.788  0.2230  0.4441  0.0086
19898TIP3    H181185   3.424   3.745  14.727 -0.0305  1.0451 -0.4115
19898TIP3    H281186   3.463   3.761  14.872 -0.2318  0.0033 -0.2402
19899TIP3   OH281187   3.480   0.767   3.726 -0.2490 -0.1511 -0.0030
19899TIP3    H181188   3.408   0.732   3.778 -0.0285 -0.1321  0.3201
19899TIP3    H281189   3.487   0.859   3.754  0.2534 -0.2964  0.3740
19900TIP3   OH281190   0.194   0.340   5.407 -0.4334 -0.0771  0.3625
19900TIP3    H181191   0.182   0.256   5.362 -1.5456 -0.7765  1.8531
19900TIP3    H281192   0.258   0.322   5.476 -0.3961  0.3967  0.4586
19901TIP3   OH281193   6.591   1.660   2.942  0.1810 -0.2946  0.1683
19901TIP3    H181194   6.648   1.593   2.905 -0.1336 -1.2243  1.3226
19901TIP3    H281195   6.621   1.741   2.902  0.9037 -1.0461 -0.8718
19902TIP3   OH281196   1.168   5.501   4.357  0.4174 -0.0663  0.3225
19902TIP3    H181197   1.142   5.505   4.449 -1.9067  1.9211 -0.3300
19902TIP3    H281198   1.174   5.593   4.330  0.5704 -0.6177 -1.6546
19903TIP3   OH281199   4.654   6.661   2.487 -0.0073 -0.0253 -0.1971
19903TIP3    H181200   4.729   6.609   2.457 -0.4612 -0.5131 -0.5020
19903TIP3    H281201   4.658   6.740   2.433  0.0072 -0.2665 -0.5581
19904TIP3   OH281202   1.496   4.449   4.251  0.4129  0.2106  0.3504
19904TIP3    H181203   1.427   4.403   4.204 -0.3042 -0.7578  2.2458
19904TIP3    H281204   1.564   4.382   4.265  0.4929  0.3955  0.8895
19905TIP3   OH281205   4.380   4.444  12.262 -0.1195  0.3535  0.0858
19905TIP3    H181206   4.400   4.450  12.355  1.8030 -2.0794 -0.0858
19905TIP3    H281207   4.290   4.412  12.258 -0.0866  0.1206  1.0921
19906TIP3   OH281208   6.044   4.746  14.722 -0.0366 -0.2167 -0.0092
19906TIP3    H181209   6.008   4.833  14.703 -1.0996 -1.0925 -2.4350
19906TIP3    H281210   6.126   4.743  14.673 -1.7063 -1.7109 -3.0042
19907TIP3   OH281211   4.597   3.336   3.210 -0.0199 -0.2104  0.1362
19907TIP3    H181212   4.575   3.278   3.138  0.0679  1.3736 -1.2242
19907TIP3    H281213   4.522   3.331   3.269  0.1431 -1.9375  0.2494
19908TIP3   OH281214   2.131   2.168   2.594  0.2251  0.0321 -1.0589
19908TIP3    H181215   2.142   2.075   2.572 -1.4968 -0.0088 -1.8746
19908TIP3    H281216   2.055   2.196   2.544  0.4552  1.7930 -0.4920
19909TIP3   OH281217   1.069   6.352   0.108  0.2006 -0.0266  0.2261
19909TIP3    H181218   1.165   6.347   0.110  0.1581 -0.7480  2.3481
19909TIP3    H281219   1.045   6.313   0.024  1.7481  0.1708 -0.3473
19910TIP3   OH281220   4.549   6.218   0.778 -0.6191 -0.5966  0.1024
19910TIP3    H181221   4.482   6.172   0.829  1.0533 -1.1514  1.9475
19910TIP3    H281222   4.542   6.309   0.807 -1.0782 -0.4928 -0.3149
19911TIP3   OH281223   1.721   3.924   3.935  0.4553  0.6872 -0.5147
19911TIP3    H181224   1.795   3.979   3.908  0.0028  0.4251 -2.4467
19911TIP3    H281225   1.749   3.885   4.018  2.2658  1.0098 -0.9274
19912TIP3   OH281226   0.885   1.770   0.156 -0.3967 -0.4654 -0.2029
19912TIP3    H181227   0.850   1.683   0.178  2.0998 -1.7375 -0.8960
19912TIP3    H281228   0.899   1.767   0.062  1.6067 -0.0868  0.0530
19913TIP3   OH281229   1.027   1.472   0.365 -0.7747 -0.3750  0.1757
19913TIP3    H181230   1.069   1.490   0.449 -0.1943 -0.8498 -0.0037
19913TIP3    H281231   1.071   1.393   0.333 -1.2847 -0.4419 -0.3758
19914TIP3   OH281232   3.432   4.478   5.844  0.1786  0.1180 -0.8180
19914TIP3    H181233   3.341   4.462   5.870  0.4299 -0.3637 -0.1928
19914TIP3    H281234   3.432   4.567   5.809 -0.6836 -0.1510 -1.5510
19915TIP3   OH281235   6.300   0.069   4.872 -0.5016 -0.2981  0.5809
19915TIP3    H181236   6.380   0.027   4.841  1.1815  1.9319  1.6178
19915TIP3    H281237   6.264   0.113   4.795  0.1044 -0.0786  0.4228
19916TIP3   OH281238   3.720   1.470   1.152  0.6494  0.7653 -0.7466
19916TIP3    H181239   3.748   1.533   1.086  3.2637  0.1417 -0.3226
19916TIP3    H281240   3.800   1.443   1.196 -0.6088 -1.3930  0.4169
19917TIP3   OH281241   6.808   1.571  15.908  0.0314  0.7756 -0.2420
19917TIP3    H181242   6.725   1.524  15.911  0.9999 -0.9615  1.8158
19917TIP3    H281243   6.850   1.541  15.827 -0.2923 -0.3085 -0.0229
19918TIP3   OH281244   1.779   6.487  11.368 -0.2732 -0.1591 -0.0672
19918TIP3    H181245   1.804   6.467  11.278  0.4918  0.3570  0.0209
19918TIP3    H281246   1.703   6.546  11.360  0.3746  0.6501 -0.3980
19919TIP3   OH281247   3.647   2.026   5.936  0.1184 -0.7404  0.5753
19919TIP3    H181248   3.726   1.973   5.945  1.0327  0.5946  0.7255
19919TIP3    H281249   3.623   2.049   6.026  0.2510 -0.1653  0.4665
19920TIP3   OH281250   3.420   5.134   0.574 -0.6660 -0.5313 -0.1856
19920TIP3    H181251   3.432   5.180   0.657  0.0158  0.6598 -0.9045
19920TIP3    H281252   3.388   5.202   0.514  2.5570 -0.3256 -1.8864
19921TIP3   OH281253   1.098   2.772  12.696  0.2320  0.0846  0.2641
19921TIP3    H181254   1.165   2.823  12.743  0.9004 -0.8194  0.3239
19921TIP3    H281255   1.017   2.820  12.710  0.7771  0.9143  0.6579
19922TIP3   OH281256   0.739   5.387  11.620 -0.4551  0.1432 -0.2869
19922TIP3    H181257   0.693   5.358  11.542 -0.8455  0.7377 -0.2791
19922TIP3    H281258   0.687   5.459  11.654  0.0531  0.3055  0.1664
19923TIP3   OH281259   1.116   6.128   1.344  0.4131 -0.2964 -0.0943
19923TIP3    H181260   1.206   6.099   1.362  1.6009  1.8509 -1.8695
19923TIP3    H281261   1.100   6.197   1.409  0.0435 -0.6975  0.2372
19924TIP3   OH281262   2.801   2.411   5.697  0.0400 -0.3129 -0.3798
19924TIP3    H181263   2.813   2.361   5.777 -2.9624  0.2707  0.5640
19924TIP3    H281264   2.748   2.355   5.641  0.4581  0.0714 -1.1816
19925TIP3   OH281265   0.140   5.344   3.747 -0.0520  0.1194 -0.4007
19925TIP3    H181266   0.053   5.337   3.707 -0.2238  0.5374 -0.1119
19925TIP3    H281267   0.178   5.423   3.708  0.3021 -0.1994 -0.7124
19926TIP3   OH281268   3.782   0.450  17.173  0.3649 -0.5209  0.1199
19926TIP3    H181269   3.712   0.494  17.125  0.5679 -0.1936  0.1248
19926TIP3    H281270   3.849   0.431  17.107  1.2227  1.0783  0.4663
19927TIP3   OH281271   3.195   3.723  12.302 -0.2666  0.0387  0.0057
19927TIP3    H181272   3.265   3.749  12.242  0.7629 -0.2954  1.0340
19927TIP3    H281273   3.201   3.784  12.375  0.2479 -1.1926  1.0306
19928TIP3   OH281274   0.013   3.080  13.035  0.3528 -0.2827  0.6310
19928TIP3    H181275  -0.048   3.025  13.084 -1.0375 -0.3774 -1.1065
19928TIP3    H281276  -0.009   3.064  12.943  2.2055  0.6130 -0.0222
19929TIP3   OH281277   2.812   3.039  11.870  0.6691  0.3626  0.9117
19929TIP3    H181278   2.782   3.086  11.948  1.2256  0.6696  0.9451
19929TIP3    H281279   2.833   3.107  11.807 -1.7578  0.0876 -0.2982
19930TIP3   OH281280   2.308   4.131  14.502  0.3037  1.1434  0.1397
19930TIP3    H181281   2.403   4.137  14.497  0.4268 -0.9045 -2.4580
19930TIP3    H281282   2.278   4.220  14.520  2.6437  2.3030 -1.2960
19931TIP3   OH281283   4.631   0.939  15.371  0.5104 -0.1637 -0.0608
19931TIP3    H181284   4.633   0.962  15.464 -1.0721 -0.9465  0.2005
19931TIP3    H281285   4.698   0.870  15.363  2.6587  1.7995 -0.1236
19932TIP3   OH281286   5.237   1.815   0.201 -0.2829 -0.1431  0.5088
19932TIP3    H181287   5.328   1.788   0.209 -0.2777  0.1658  1.6416
19932TIP3    H281288   5.205   1.770   0.123  0.7157 -0.5847  0.3461
19933TIP3   OH281289   2.737   4.014   4.640 -0.4525  0.1724 -0.4860
19933TIP3    H181290   2.764   3.942   4.695  0.0922  0.6499 -0.1224
19933TIP3    H281291   2.641   4.009   4.639 -0.4555  0.0292  0.3185
19934TIP3   OH281292   3.903   3.207  16.208  0.0406 -0.2594  0.2898
19934TIP3    H181293   3.952   3.128  16.232 -1.7193 -1.4163  0.2750
19934TIP3    H281294   3.896   3.257  16.290  2.2374  0.5423  0.0346
19935TIP3   OH281295   2.581   6.793  11.276 -0.3682 -0.7826  0.3733
19935TIP3    H181296   2.637   6.789  11.199 -0.5875  1.0002  0.0737
19935TIP3    H281297   2.572   6.702  11.304  1.8813 -1.2230 -0.1151
19936TIP3   OH281298   1.191   2.857  16.652 -0.3159  0.3131 -0.3453
19936TIP3    H181299   1.129   2.785  16.666 -0.6059  0.7067  0.4645
19936TIP3    H281300   1.142   2.935  16.678  0.3390  0.6899 -0.2401
19937TIP3   OH281301   0.513   0.090   4.292 -0.4511 -0.0156 -0.0858
19937TIP3    H181302   0.538   0.115   4.203  0.9855 -0.2626  0.2107
19937TIP3    H281303   0.597   0.070   4.335 -1.1974 -0.9282  1.0045
19938TIP3   OH281304   6.627   5.200   5.105  0.1296  0.1227  0.4513
19938TIP3    H181305   6.658   5.231   5.020 -0.2242  0.9204  0.6092
19938TIP3    H281306   6.647   5.271   5.165 -2.5521  0.9643  0.4561
19939TIP3   OH281307   1.265   3.531  14.559 -0.1137 -0.2599  0.4323
19939TIP3    H181308   1.275   3.614  14.512 -1.1266 -1.0496 -1.2540
19939TIP3    H281309   1.226   3.556  14.643  1.5927  1.1680  0.8829
19940TIP3   OH281310   3.618   4.957   0.803  0.1658  0.3653  0.4018
19940TIP3    H181311   3.696   5.012   0.793  0.5551  0.0025  1.2916
19940TIP3    H281312   3.582   4.950   0.715  2.6202 -1.6346 -0.5675
19941TIP3   OH281313   2.221   0.986   6.846  0.3091 -0.1571  0.4972
19941TIP3    H181314   2.190   1.072   6.874  1.2865  0.1303  0.7212
19941TIP3    H281315   2.165   0.964   6.771 -1.1729 -0.1639  1.5803
19942TIP3   OH281316   0.863   2.054   1.850  0.4358 -0.5280 -0.1253
19942TIP3    H181317   0.897   2.058   1.939  0.5652 -1.3474 -0.1295
19942TIP3    H281318   0.782   2.002   1.858  0.3429 -0.4366 -0.4525
19943TIP3   OH281319   6.510   3.171   1.362  0.2260 -0.3368 -0.4396
19943TIP3    H181320   6.562   3.140   1.437 -0.8462 -3.3563 -0.8034
19943TIP3    H281321   6.419   3.154   1.387 -0.1894 -0.8478 -2.1609
19944TIP3   OH281322   4.595   1.625   3.986 -0.3452 -0.3462 -0.2148
19944TIP3    H181323   4.615   1.718   3.999  1.6155 -0.5236 -1.4470
19944TIP3    H281324   4.628   1.582   4.065  1.9299 -0.3061 -1.0585
19945TIP3   OH281325   2.493   5.934   0.036 -0.2212 -0.1659  0.1366
19945TIP3    H181326   2.569   5.888   0.071 -0.4147 -0.7191 -0.1683
19945TIP3    H281327   2.479   5.896  -0.050  0.6720  1.6678 -0.8844
19946TIP3   OH281328   2.616   5.235  15.270 -0.0472  0.0923 -0.2845
19946TIP3    H181329   2.586   5.259  15.182  0.3206  2.0366  0.0629
19946TIP3    H281330   2.572   5.298  15.328 -0.8079 -1.5733  1.0316
19947TIP3   OH281331   1.666   0.459  11.882  0.0003  0.2244  0.0050
19947TIP3    H181332   1.586   0.453  11.830 -0.4695 -1.4894  0.8689
19947TIP3    H281333   1.637   0.454  11.973  1.1681 -2.6264  0.3299
19948TIP3   OH281334   0.915   4.577   0.143 -0.1773  0.3622  0.1168
19948TIP3    H181335   1.009   4.568   0.128 -0.0801  3.2411 -1.8965
19948TIP3    H281336   0.876   4.571   0.056 -1.7335  0.4583  0.7651
19949TIP3   OH281337   3.356   3.913   2.749 -0.4160 -0.1717 -0.0875
19949TIP3    H181338   3.262   3.927   2.746 -0.3212  1.3457  1.7669
19949TIP3    H281339   3.372   3.842   2.687 -2.8956 -1.1425  0.2515
19950TIP3   OH281340   5.131   5.773  14.405 -0.7440 -0.1070 -0.2257
19950TIP3    H181341   5.209   5.784  14.459 -1.1369  1.6930  0.0253
19950TIP3    H281342   5.059   5.763  14.467 -0.7974 -1.4060 -0.4576
19951TIP3   OH281343   0.978   0.069  12.354 -0.0304 -0.4305 -0.6723
19951TIP3    H181344   0.970   0.049  12.261 -1.0622  0.2916 -0.7563
19951TIP3    H281345   1.031   0.148  12.357 -0.7384  0.0518 -0.7118
19952TIP3   OH281346   5.727   4.486   4.041  0.4271  0.2920 -0.3197
19952TIP3    H181347   5.810   4.441   4.054 -1.5685 -3.6690  0.0931
19952TIP3    H281348   5.704   4.469   3.950 -1.3051 -1.5158  0.3740
19953TIP3   OH281349   2.767   5.457  12.744 -0.4834  0.2157 -0.3283
19953TIP3    H181350   2.811   5.386  12.698 -1.0395  1.3037 -2.7076
19953TIP3    H281351   2.830   5.485  12.811  0.1979 -1.7211 -0.0961
19954TIP3   OH281352   5.826   0.055  12.906  0.8158  0.5586  0.2089
19954TIP3    H181353   5.920   0.070  12.891  0.7186  1.3724  0.3523
19954TIP3    H281354   5.782   0.117  12.849  0.2333 -2.1047 -2.4502
19955TIP3   OH281355   2.095   4.094   5.767 -0.5139 -0.3737 -0.3197
19955TIP3    H181356   2.154   4.054   5.704 -2.0957 -0.6338 -1.7071
19955TIP3    H281357   2.060   4.171   5.721 -1.2061 -0.1983  0.4790
19956TIP3   OH281358   6.577   5.145   6.012 -0.2307  0.5909 -0.1781
19956TIP3    H181359   6.643   5.154   6.081  0.1157  0.8251 -0.5437
19956TIP3    H281360   6.608   5.072   5.959 -1.1270 -0.4085  0.6143
19957TIP3   OH281361   2.422   6.139   4.577 -0.4329 -0.2775  0.3754
19957TIP3    H181362   2.408   6.095   4.493 -1.2529 -2.5721  1.6331
19957TIP3    H281363   2.357   6.209   4.578 -0.7033 -0.4895 -0.7113
19958TIP3   OH281364   3.078   2.885   1.402  0.1050  0.7975  0.3251
19958TIP3    H181365   3.150   2.838   1.445 -0.0056 -0.5861 -0.9024
19958TIP3    H281366   3.066   2.964   1.454  1.3576  0.2124  1.5696
19959TIP3   OH281367   1.891   2.007   4.683 -0.2858 -0.0745  0.2748
19959TIP3    H181368   1.904   2.082   4.625 -2.1412  0.4052  0.4042
19959TIP3    H281369   1.847   2.045   4.760 -0.9814 -1.2381  0.4704
19960TIP3   OH281370   0.908   4.430   5.905  0.6090  0.1418 -0.5576
19960TIP3    H181371   0.969   4.404   5.835  0.4183 -2.3139  0.0970
19960TIP3    H281372   0.954   4.408   5.986 -0.0701  0.8843  0.0484
19961TIP3   OH281373   5.498   0.370   0.214  0.1052  0.5499  0.2300
19961TIP3    H181374   5.442   0.415   0.277 -0.8931 -1.3091  0.7425
19961TIP3    H281375   5.480   0.277   0.227  0.8611  0.0294 -1.8913
19962TIP3   OH281376   6.167   3.556   5.837  0.2154  0.2441 -0.1951
19962TIP3    H181377   6.253   3.578   5.873 -0.4438  1.3489  0.7328
19962TIP3    H281378   6.186   3.524   5.748  1.5155  1.2521 -0.3061
19963TIP3   OH281379   1.889   2.518  12.487  0.0466 -0.9300  0.0563
19963TIP3    H181380   1.931   2.433  12.499  0.3959 -0.6303  1.0987
19963TIP3    H281381   1.855   2.541  12.574 -1.4668 -0.7299 -0.5532
19964TIP3   OH281382   5.671   5.129  11.309 -0.2793  0.2413  0.8877
19964TIP3    H181383   5.744   5.162  11.256 -0.7990  0.8963  0.5563
19964TIP3    H281384   5.593   5.160  11.263 -0.8186 -1.5590  0.4978
19965TIP3   OH281385   3.162   0.855  16.825  0.2174  0.6169  0.3152
19965TIP3    H181386   3.199   0.847  16.737 -0.8218 -1.3879  0.0020
19965TIP3    H281387   3.202   0.785  16.875 -0.1396  0.9648  1.1059
19966TIP3   OH281388   3.041   3.770   2.013 -0.8152 -0.5229  0.0013
19966TIP3    H181389   2.950   3.773   1.984 -0.4460 -0.6727 -1.2007
19966TIP3    H281390   3.079   3.852   1.981 -0.2201 -1.0130 -0.5643
19967TIP3   OH281391   0.074   1.625  17.066 -0.4672 -0.0198  0.3756
19967TIP3    H181392   0.084   1.719  17.048  2.4208  0.2462  2.6376
19967TIP3    H281393   0.087   1.583  16.981 -0.9949  1.5749 -0.5365
19968TIP3   OH281394   3.032   3.450  14.903  0.2006 -0.3139  0.4300
19968TIP3    H181395   3.001   3.508  14.833  1.3709  0.4223  0.4854
19968TIP3    H281396   3.012   3.362  14.872 -0.5372  0.0550 -0.1989
19969TIP3   OH281397   0.124   1.213   0.442  0.1066 -0.0794  0.1893
19969TIP3    H181398   0.215   1.192   0.418  0.1306 -2.3939  1.9500
19969TIP3    H281399   0.071   1.157   0.385 -0.2895  1.4412 -1.0036
19970TIP3   OH281400   1.606   1.895   3.082 -0.7702 -0.0357 -0.6668
19970TIP3    H181401   1.615   1.954   3.007  0.0796  0.4141 -0.2242
19970TIP3    H281402   1.689   1.903   3.128 -1.2193 -0.4517  0.2257
19971TIP3   OH281403   2.611   6.364  12.359  0.0603  0.0605 -1.3499
19971TIP3    H181404   2.615   6.289  12.419  2.0225  0.3841 -1.0333
19971TIP3    H281405   2.623   6.326  12.272  0.9308 -0.0148 -1.2002
19972TIP3   OH281406   1.604   4.569  14.671  0.1982 -0.3815  0.3343
19972TIP3    H181407   1.558   4.626  14.732 -1.4080  1.2613 -2.2158
19972TIP3    H281408   1.696   4.594  14.680 -0.0117 -0.0774  1.9228
19973TIP3   OH281409   4.154   1.246  15.543 -0.1639 -0.2056 -0.3688
19973TIP3    H181410   4.077   1.198  15.574 -0.1035  0.0017  0.1036
19973TIP3    H281411   4.119   1.325  15.503 -0.3627 -1.2137 -2.3157
19974TIP3   OH281412   3.333   5.553   4.560  0.2118 -0.0712  0.4302
19974TIP3    H181413   3.351   5.508   4.478  1.1700  0.8186  0.1263
19974TIP3    H281414   3.374   5.499   4.627  1.3669  0.3161  0.0680
19975TIP3   OH281415   0.009   3.895   3.679 -0.1195  0.1656 -0.2990
19975TIP3    H181416  -0.082   3.871   3.664 -0.2465  0.7886 -0.5478
19975TIP3    H281417   0.059   3.820   3.649 -0.6114 -0.8659  1.3562
19976TIP3   OH281418   2.236   5.150  12.303 -0.3512 -0.7469  0.1438
19976TIP3    H181419   2.175   5.097  12.251  0.0906 -0.4760 -0.6648
19976TIP3    H281420   2.268   5.090  12.370  1.0371 -1.9053 -1.4642
19977TIP3   OH281421   0.781   3.595   2.731  0.4937 -0.2037 -0.0353
19977TIP3    H181422   0.694   3.569   2.700 -0.0064 -0.3735  1.4673
19977TIP3    H281423   0.839   3.523   2.703 -0.1623 -0.9603  0.5130
19978TIP3   OH281424   5.448   4.349  12.654  0.4032  0.1107  0.2565
19978TIP3    H181425   5.488   4.435  12.667  1.1370 -0.2842  0.6870
19978TIP3    H281426   5.390   4.338  12.730  0.6816  0.0233  0.4578
19979TIP3   OH281427   0.996   2.557  13.238 -0.4426  0.0810 -0.3476
19979TIP3    H181428   0.963   2.641  13.268 -0.8240  0.2285 -1.1622
19979TIP3    H281429   0.972   2.553  13.146  0.3258 -0.5516 -0.5313
19980TIP3   OH281430   3.588   1.670  12.424  0.0545  0.0310 -0.4162
19980TIP3    H181431   3.512   1.725  12.439  0.2016 -0.0739  0.7937
19980TIP3    H281432   3.558   1.604  12.362 -0.4865  0.7079 -0.8846
19981TIP3   OH281433   2.558   3.030   6.123 -0.3571  0.4519 -0.5265
19981TIP3    H181434   2.546   3.005   6.215 -0.5917 -1.2569 -1.0040
19981TIP3    H281435   2.627   2.973   6.091 -0.1850  1.1291 -1.3986
19982TIP3   OH281436   2.525   0.674   3.855 -0.4165 -0.0206  0.2613
19982TIP3    H181437   2.608   0.661   3.809  0.1339  1.6176  0.7124
19982TIP3    H281438   2.530   0.615   3.930  1.6588  2.0333  1.8671
19983TIP3   OH281439   2.605   5.243   3.196 -0.8251  0.3551  0.0262
19983TIP3    H181440   2.557   5.314   3.154 -0.0330  0.7740 -0.1789
19983TIP3    H281441   2.588   5.167   3.140 -0.8961  0.5941 -0.2811
19984TIP3   OH281442   4.100   3.743  11.759  0.2328  0.2205  0.2760
19984TIP3    H181443   4.033   3.680  11.784 -0.9436  1.3836  0.2056
19984TIP3    H281444   4.179   3.691  11.745 -0.4122 -1.0832  1.2750
19985TIP3   OH281445   1.958   2.189   4.273  0.0231 -0.2505 -0.1295
19985TIP3    H181446   1.909   2.247   4.215 -2.8126 -0.8668  1.4947
19985TIP3    H281447   1.974   2.110   4.221  1.8377  0.9597 -1.5628
19986TIP3   OH281448   2.272   2.105  13.967  0.1811 -0.1406 -0.4583
19986TIP3    H181449   2.280   2.035  14.032  2.0126  1.0799  0.7433
19986TIP3    H281450   2.214   2.169  14.009 -1.4796 -0.8774 -1.5459
19987TIP3   OH281451   1.660   0.753  15.785  0.2242  0.2535  0.3565
19987TIP3    H181452   1.580   0.806  15.795 -0.4167 -0.7167  0.4803
19987TIP3    H281453   1.679   0.721  15.873  0.1261 -0.4026  0.1410
19988TIP3   OH281454   1.676   4.202  11.853  0.5973 -0.2708  0.0411
19988TIP3    H181455   1.606   4.144  11.823  1.0908 -1.1766  0.6066
19988TIP3    H281456   1.636   4.289  11.852 -1.1320 -0.9513  2.0694
19989TIP3   OH281457   3.544   1.744  16.227  0.0643 -0.1411 -0.2368
19989TIP3    H181458   3.634   1.735  16.195  0.0076  2.3584 -1.3596
19989TIP3    H281459   3.532   1.839  16.237 -1.7888 -0.5213  1.9083
19990TIP3   OH281460   2.196   2.464  12.933  1.0854 -0.2500 -0.2345
19990TIP3    H181461   2.231   2.540  12.885  0.3276  0.3671  0.1704
19990TIP3    H281462   2.149   2.413  12.867 -0.3578  0.8418 -0.0982
19991TIP3   OH281463   3.688   1.717  11.736  0.2889  0.2609  0.1576
19991TIP3    H181464   3.740   1.778  11.788 -0.6556  0.6820  0.6301
19991TIP3    H281465   3.597   1.744  11.750 -0.2121 -1.6286  0.9073
19992TIP3   OH281466   1.745   6.754   0.658 -0.0398  0.0347  0.1301
19992TIP3    H181467   1.659   6.746   0.616 -0.6059 -3.0870  1.5570
19992TIP3    H281468   1.794   6.814   0.602 -2.1498 -0.5139 -2.4943
19993TIP3   OH281469   2.075   0.250  16.390  0.1094 -0.3683  0.1248
19993TIP3    H181470   2.085   0.168  16.438  0.1220 -0.7610 -0.5253
19993TIP3    H281471   2.036   0.311  16.452 -1.1880 -1.2617  0.2189
19994TIP3   OH281472   5.922   4.120  11.140 -0.2575 -0.2592 -0.0730
19994TIP3    H181473   5.884   4.152  11.221 -0.5176 -0.9337  0.0850
19994TIP3    H281474   6.012   4.095  11.163  0.7252  2.4280 -0.7124
19995TIP3   OH281475   3.744   1.650   6.380 -0.1241 -0.4515  0.1142
19995TIP3    H181476   3.815   1.586   6.373 -0.9655 -1.5622  1.1986
19995TIP3    H281477   3.780   1.720   6.434  0.6668 -0.1750 -0.7300
19996TIP3   OH281478   6.083   4.034  16.856 -0.0336  0.5842 -0.0066
19996TIP3    H181479   6.017   4.103  16.862  1.0007  1.9287 -2.6194
19996TIP3    H281480   6.033   3.954  16.839 -1.0398  1.5767 -1.9735
19997TIP3   OH281481   2.446   2.476   4.778  0.0476  0.1787  0.0052
19997TIP3    H181482   2.374   2.468   4.716  0.1552 -1.0026  0.0155
19997TIP3    H281483   2.512   2.414   4.747  1.8771  2.5153 -1.0628
19998TIP3   OH281484   1.762   2.114   4.918  0.0386 -0.1384  0.3309
19998TIP3    H181485   1.786   2.097   5.009  1.2278  0.6242  0.1846
19998TIP3    H281486   1.772   2.209   4.908  0.8822 -0.3263 -0.8449
19999TIP3   OH281487   2.820   2.543  17.216 -0.1537 -0.2007 -0.4911
19999TIP3    H181488   2.798   2.498  17.134  1.1986  0.2146 -1.0972
19999TIP3    H281489   2.880   2.483  17.260  0.6138  0.4108 -0.6903
20000TIP3   OH281490   0.831   5.411  13.684 -0.3536 -0.2178 -0.8422
20000TIP3    H181491   0.856   5.392  13.774  0.7359 -0.1569 -1.1175
20000TIP3    H281492   0.759   5.349  13.666  0.3381 -1.1861 -0.3742
20001TIP3   OH281493   6.357   5.920   0.948 -0.7074 -0.4422 -0.2189
20001TIP3    H181494   6.332   5.968   0.869 -0.6773 -2.2190 -1.3585
20001TIP3    H281495   6.286   5.936   1.009 -2.3034 -1.5286 -1.7091
20002TIP3   OH281496   1.179   6.496   2.846  0.3651 -0.4468 -0.4822
20002TIP3    H181497   1.123   6.511   2.769  0.5488  0.1647 -0.5077
20002TIP3    H281498   1.118   6.474   2.916  0.1956 -1.0078 -0.8062
20003TIP3   OH281499   6.185   0.468   3.475 -0.0860  0.1984  0.0743
20003TIP3    H181500   6.251   0.399   3.476  0.7152  0.9472  0.5333
20003TIP3    H281501   6.192   0.510   3.561 -1.1554  0.3050  0.1295
20004TIP3   OH281502   1.601   4.846  11.961 -0.0687  0.0276  0.2989
20004TIP3    H181503   1.679   4.895  11.989  1.4894 -1.5302 -1.0782
20004TIP3    H281504   1.635   4.781  11.900 -2.5398 -0.5069 -0.5938
20005TIP3   OH281505   3.252   0.489   6.678 -0.5212 -0.6864 -0.5531
20005TIP3    H181506   3.336   0.447   6.694 -0.0671  0.3367 -0.1902
20005TIP3    H281507   3.269   0.583   6.687 -1.5218 -0.4123 -1.2822
20006TIP3   OH281508   0.286   6.114  13.443  0.4667  0.2371  0.1552
20006TIP3    H181509   0.316   6.028  13.416  2.1195  1.4399 -2.1847
20006TIP3    H281510   0.363   6.156  13.482  0.1793  1.2711 -0.3625
20007TIP3   OH281511   5.061   0.505  14.076 -0.0158  0.3443 -0.4159
20007TIP3    H181512   5.118   0.454  14.134 -3.2304 -0.4758  2.3458
20007TIP3    H281513   5.093   0.595  14.083  1.8420 -0.2913 -0.2342
20008TIP3   OH281514   5.886   1.771   0.968  0.4221 -0.4086 -0.0152
20008TIP3    H181515   5.966   1.785   1.018  0.3252 -0.0650  0.0451
20008TIP3    H281516   5.837   1.707   1.019  2.2617 -3.5128 -1.8410
20009TIP3   OH281517   3.541   6.188  16.640 -0.0711 -0.2138 -0.0658
20009TIP3    H181518   3.604   6.242  16.593 -0.6223 -0.8848 -1.6656
20009TIP3    H281519   3.540   6.223  16.729  1.3420  0.8339 -0.4346
20010TIP3   OH281520   2.838   0.287   1.838 -0.2956  0.0107 -0.4597
20010TIP3    H181521   2.760   0.335   1.810 -0.2812 -0.6676 -1.7553
20010TIP3    H281522   2.809   0.196   1.842 -0.4315  0.1034  2.3599
20011TIP3   OH281523   0.009   6.323   2.685  0.5765  0.2990 -0.0511
20011TIP3    H181524   0.016   6.252   2.749 -1.0084  0.5291  0.4171
20011TIP3    H281525   0.077   6.303   2.621 -0.7467 -2.5218 -0.7714
20012TIP3   OH281526   0.654   3.670  11.188  0.1458 -0.4750  0.5436
20012TIP3    H181527   0.620   3.581  11.182  1.3905 -0.9448  0.1090
20012TIP3    H281528   0.636   3.708  11.102  0.2017 -0.5324  0.5065
20013TIP3   OH281529   2.257   6.709   0.044  0.2805  0.3533  0.1946
20013TIP3    H181530   2.339   6.732  -0.000  0.9076 -0.2065  1.0464
20013TIP3    H281531   2.282   6.642   0.108 -0.7724  0.4682  0.7412
20014TIP3   OH281532   5.785   6.381  15.159  0.0674 -0.3320  0.2589
20014TIP3    H181533   5.787   6.332  15.077  1.0550  1.6225 -0.9643
20014TIP3    H281534   5.875   6.376  15.193 -0.3079 -1.0349  1.2049
20015TIP3   OH281535   6.498   4.620  15.905  0.3394 -0.0973 -0.1894
20015TIP3    H181536   6.472   4.701  15.950  0.1946  2.4493 -4.3483
20015TIP3    H281537   6.592   4.613  15.920  0.3550  0.8552  0.2408
20016TIP3   OH281538   4.946   0.628  12.790 -0.2998  0.2816  0.0304
20016TIP3    H181539   4.982   0.588  12.711  0.9902  1.7408 -0.1718
20016TIP3    H281540   5.010   0.694  12.815 -0.8450  0.0964  2.1279
20017TIP3   OH281541   4.069   6.069  13.714  0.0060  0.4302 -0.3270
20017TIP3    H181542   4.119   6.016  13.776 -1.4466 -1.4076 -0.6283
20017TIP3    H281543   4.133   6.132  13.679  1.7701 -0.9536  0.2333
20018TIP3   OH281544   3.350   1.005   5.133 -0.5377  0.0462 -0.0818
20018TIP3    H181545   3.424   1.050   5.090 -1.3781 -0.0196 -1.6844
20018TIP3    H281546   3.280   1.070   5.134 -0.4992  0.1025  1.4221
20019TIP3   OH281547   0.294   4.141  14.110  0.3379 -0.6351 -0.1708
20019TIP3    H181548   0.360   4.137  14.179 -1.0532  0.6652  1.3249
20019TIP3    H281549   0.263   4.232  14.111 -1.4610 -1.1948 -0.8112
20020TIP3   OH281550   0.701   2.377  15.744 -0.1085 -0.3269  0.4342
20020TIP3    H181551   0.762   2.313  15.780 -0.4196 -0.4421  0.7644
20020TIP3    H281552   0.681   2.435  15.818  0.7172  0.5908 -0.0277
20021TIP3   OH281553   5.492   1.743  11.942  0.2024 -0.3462  0.1193
20021TIP3    H181554   5.456   1.690  11.870 -1.2350 -1.2309  1.4209
20021TIP3    H281555   5.415   1.775  11.988  1.0793 -0.4327  1.7163
20022TIP3   OH281556   0.558   1.694   5.416  0.0020  0.4009 -0.0678
20022TIP3    H181557   0.532   1.625   5.354  1.9050  0.7791 -1.3517
20022TIP3    H281558   0.487   1.696   5.480 -0.7078 -1.8983 -0.6905
20023TIP3   OH281559   5.789   5.558   2.750  0.4591  0.1389 -0.1417
20023TIP3    H181560   5.835   5.642   2.745  1.9487 -0.4653  2.2310
20023TIP3    H281561   5.843   5.497   2.700  2.3946 -0.5559  2.5890
20024TIP3   OH281562   4.205   6.728  16.160  0.1266  0.0394 -0.0618
20024TIP3    H181563   4.116   6.764  16.160 -0.1251 -0.5606 -0.6127
20024TIP3    H281564   4.213   6.683  16.076  1.2892  0.8789 -0.4289
20025TIP3   OH281565   5.292   5.805   4.679 -0.2790 -0.2510  0.4338
20025TIP3    H181566   5.360   5.864   4.710  0.0847 -0.1546 -0.5117
20025TIP3    H281567   5.339   5.727   4.650 -0.4242  0.2559 -1.2967
20026TIP3   OH281568   4.670   0.279   1.919  0.1947 -0.1363 -0.2173
20026TIP3    H181569   4.748   0.330   1.900 -0.5694  2.2253  2.3150
20026TIP3    H281570   4.697   0.219   1.989  0.5126 -1.7567 -1.6583
20027TIP3   OH281571   3.515   0.707  14.417  0.0987 -0.1354 -0.4068
20027TIP3    H181572   3.456   0.752  14.478 -0.0671 -2.9088  1.6455
20027TIP3    H281573   3.470   0.626  14.396  0.6970  0.2010 -3.4371
20028TIP3   OH281574   0.748   3.174   2.223  0.0311 -0.2291 -0.3309
20028TIP3    H181575   0.748   3.222   2.140  1.0307  0.8578  0.2615
20028TIP3    H281576   0.761   3.242   2.289 -0.4214 -1.1200  0.6979
20029TIP3   OH281577   0.599   1.154  16.320  0.2609 -1.3139 -0.4555
20029TIP3    H181578   0.536   1.199  16.376 -0.5040 -1.1255 -1.4405
20029TIP3    H281579   0.681   1.159  16.368 -0.4679 -1.5788  0.8679
20030TIP3   OH281580   0.452   5.543  14.997 -0.2104 -0.4075  0.2136
20030TIP3    H181581   0.401   5.622  15.015  0.4298 -0.1685  1.0610
20030TIP3    H281582   0.539   5.563  15.031  0.6879 -0.5110 -1.8394
20031TIP3   OH281583   0.454   5.237   1.656 -0.2818 -0.6256  0.2703
20031TIP3    H181584   0.455   5.328   1.685  0.5774 -1.2952  2.5542
20031TIP3    H281585   0.373   5.201   1.694 -1.0799 -0.6417 -1.3614
20032TIP3   OH281586   5.057   2.949  11.607  0.3329  0.3525 -0.1067
20032TIP3    H181587   5.085   2.962  11.697 -0.6873  0.5493  0.1925
20032TIP3    H281588   5.139   2.941  11.557  0.9374  1.8010  0.5911
20033TIP3   OH281589   2.869   2.028  15.282 -0.6308 -0.0551  0.2712
20033TIP3    H181590   2.793   1.971  15.280  0.8264 -2.1260 -0.8892
20033TIP3    H281591   2.884   2.052  15.191 -0.0987  0.6204  0.5227
20034TIP3   OH281592   1.492   6.720   4.342 -0.1977 -0.3042 -0.0372
20034TIP3    H181593   1.550   6.750   4.271 -1.2455 -0.9596 -1.2108
20034TIP3    H281594   1.451   6.641   4.307 -0.5698 -0.7769  1.4144
20035TIP3   OH281595   3.587   6.190   0.449 -0.1679  0.6004  0.5787
20035TIP3    H181596   3.529   6.148   0.512 -0.0196  0.4459  0.6124
20035TIP3    H281597   3.669   6.202   0.497  0.6203 -1.3382 -0.1760
20036TIP3   OH281598   0.512   4.018  12.819  0.0606  0.1104 -0.3954
20036TIP3    H181599   0.546   4.107  12.816  0.6430 -0.1240 -1.2657
20036TIP3    H281600   0.492   3.996  12.728 -0.7970 -0.3818 -0.1016
20037TIP3   OH281601   3.191   5.225   1.984 -0.1880  0.3360  0.5751
20037TIP3    H181602   3.252   5.237   2.057  1.4714 -0.8315 -0.5402
20037TIP3    H281603   3.246   5.195   1.911 -1.8120  1.2424 -1.1180
20038TIP3   OH281604   1.665   1.511   3.371 -0.1645  0.7594  0.5775
20038TIP3    H181605   1.679   1.426   3.412 -0.9700  0.6284  0.5858
20038TIP3    H281606   1.632   1.491   3.284  0.1972  1.0579  0.3691
20039TIP3   OH281607   4.784   2.110   0.372  0.1988  0.3030 -0.0494
20039TIP3    H181608   4.848   2.046   0.403  1.0338  1.8700  1.6630
20039TIP3    H281609   4.835   2.188   0.353 -0.8417  0.6088 -1.7718
20040TIP3   OH281610   4.122   5.042  16.087  0.0670 -0.0330  0.8366
20040TIP3    H181611   4.068   5.055  16.009 -0.8313 -0.6599  1.3508
20040TIP3    H281612   4.065   4.998  16.150  1.1066 -0.5190  1.4675
20041TIP3   OH281613   5.073   4.114  12.325  0.1000  0.1140 -0.3110
20041TIP3    H181614   5.050   4.024  12.298 -0.3165 -0.0572  0.5918
20041TIP3    H281615   5.014   4.133  12.397 -0.2688  1.3717 -0.9143
20042TIP3   OH281616   1.285   0.879  14.891  0.1066 -0.6692 -0.2828
20042TIP3    H181617   1.323   0.843  14.811  1.5307  0.2232 -0.0432
20042TIP3    H281618   1.197   0.907  14.866  1.2358  1.5267 -2.1226
20043TIP3   OH281619   2.688   3.481   4.211  0.2077 -0.1907  0.5079
20043TIP3    H181620   2.599   3.476   4.177  1.0366  0.8622 -1.9913
20043TIP3    H281621   2.705   3.575   4.220  1.8769 -0.2363 -1.4986
20044TIP3   OH281622   6.576   5.736   4.945 -0.1257  0.2932 -0.1302
20044TIP3    H181623   6.581   5.683   4.866  2.0683 -0.6085  0.5324
20044TIP3    H281624   6.616   5.819   4.921  0.1499  0.1730 -0.0898
20045TIP3   OH281625   0.085   3.392   3.209 -0.4309  0.6063  0.0967
20045TIP3    H181626   0.156   3.346   3.252 -1.5829 -0.3531  1.0402
20045TIP3    H281627   0.124   3.427   3.128  0.5212 -2.0031 -0.6745
20046TIP3   OH281628   2.612   6.249  15.280  0.2214  0.7609 -0.4764
20046TIP3    H181629   2.558   6.326  15.259 -0.0923  0.8187  0.4733
20046TIP3    H281630   2.557   6.197  15.338  0.7715  0.2595 -0.3962
20047TIP3   OH281631   5.936   0.251   3.890 -0.5492  0.4688 -0.3241
20047TIP3    H181632   5.973   0.210   3.813  0.5615  0.5208  0.1718
20047TIP3    H281633   5.986   0.216   3.963 -0.2958  1.8677  0.2056
20048TIP3   OH281634   5.281   5.706  12.861  0.0430  0.1342  0.8727
20048TIP3    H181635   5.340   5.676  12.930 -0.4644  1.6831  2.0473
20048TIP3    H281636   5.339   5.734  12.790  0.6808  0.5137  1.5324
20049TIP3   OH281637   1.538   4.108   3.577 -0.4769  0.2058  0.3054
20049TIP3    H181638   1.607   4.048   3.607  1.2448  1.2090 -1.3797
20049TIP3    H281639   1.509   4.153   3.657  1.0698 -0.0308  1.0426
20050TIP3   OH281640   4.737   1.254  11.303 -0.0697 -0.3877  0.4657
20050TIP3    H181641   4.825   1.218  11.302 -0.1856 -0.6920  1.0151
20050TIP3    H281642   4.750   1.349  11.305  0.2366 -0.3732 -0.9577
20051TIP3   OH281643   4.853   1.145  14.843 -0.1982 -0.3833  0.1651
20051TIP3    H181644   4.891   1.229  14.819  2.0687 -1.4704 -0.3440
20051TIP3    H281645   4.840   1.150  14.938  0.2467  0.3936  0.1881
20052TIP3   OH281646   2.075   4.779   5.463 -0.7013  0.4432  0.1393
20052TIP3    H181647   2.071   4.742   5.551 -0.6220  2.5041  1.0755
20052TIP3    H281648   2.168   4.777   5.440 -0.7258 -0.1188  0.0731
20053TIP3   OH281649   4.984   5.017  13.840  0.1300  0.3573 -0.1529
20053TIP3    H181650   5.008   4.932  13.879  0.1625  0.6626  0.5007
20053TIP3    H281651   5.028   5.017  13.755 -1.8707 -1.3420 -1.2716
20054TIP3   OH281652   5.774   5.295   0.912 -0.4074 -0.2573  0.3427
20054TIP3    H181653   5.698   5.353   0.900 -0.2224  0.0432  0.6208
20054TIP3    H281654   5.784   5.252   0.827 -1.1403 -0.6063  0.4205
20055TIP3   OH281655   5.061   3.149   1.112 -0.2861 -0.0709  0.2678
20055TIP3    H181656   5.092   3.108   1.192  1.4433  1.0032  0.2142
20055TIP3    H281657   5.046   3.241   1.135  0.2762  0.2653 -0.6163
20056TIP3   OH281658   0.271   0.738   2.710  0.4976  0.8461 -0.1653
20056TIP3    H181659   0.279   0.709   2.801 -1.0115 -0.5517 -0.4197
20056TIP3    H281660   0.179   0.722   2.689  1.0259  0.3035 -2.2091
20057TIP3   OH281661   2.063   0.901  12.638 -0.5848  0.4221 -0.2117
20057TIP3    H181662   2.128   0.953  12.590 -0.0354 -0.1390 -0.0918
20057TIP3    H281663   2.077   0.811  12.607 -0.5023  0.1188  0.6967
20058TIP3   OH281664   1.510   4.330   1.701 -0.2041  0.3029  0.1666
20058TIP3    H181665   1.553   4.369   1.778 -1.4166  1.2490  0.4016
20058TIP3    H281666   1.551   4.373   1.626  1.7087 -1.3569  0.1859
20059TIP3   OH281667   2.347   0.531  12.351 -0.1984 -0.1453 -0.2322
20059TIP3    H181668   2.316   0.612  12.310 -3.7658 -0.4108  1.4889
20059TIP3    H281669   2.300   0.461  12.305 -0.3890 -0.8454  0.9787
20060TIP3   OH281670   3.151   4.942  15.944  0.0024 -0.0494  0.0195
20060TIP3    H181671   3.179   4.943  15.853  0.0883 -1.1345  0.0279
20060TIP3    H281672   3.071   4.995  15.946  1.5340  2.4829 -0.1447
20061TIP3   OH281673   5.295   5.556  16.606  0.0831  0.2186 -0.4562
20061TIP3    H181674   5.320   5.593  16.690 -2.6559  0.5701  0.3151
20061TIP3    H281675   5.293   5.630  16.546 -1.8027  0.7458  0.1924
20062TIP3   OH281676   1.972   5.551  15.688  0.2174  0.1493  0.2676
20062TIP3    H181677   1.977   5.544  15.783  2.4651 -0.5608  0.1654
20062TIP3    H281678   1.923   5.473  15.661  0.0325  0.0745  0.8003
20063TIP3   OH281679   5.387   0.153   0.492 -0.2092 -0.1430  0.1797
20063TIP3    H181680   5.416   0.117   0.409 -0.2789 -0.6992  0.3933
20063TIP3    H281681   5.468   0.177   0.538 -0.1278 -0.6225  0.2971
20064TIP3   OH281682   4.746   2.350   4.130 -0.4534 -0.7164 -0.6493
20064TIP3    H181683   4.817   2.292   4.104 -0.1321 -0.4207 -0.4270
20064TIP3    H281684   4.789   2.429   4.162 -0.8960 -0.0218 -1.6945
20065TIP3   OH281685   3.943   6.054  16.811  0.2646 -0.1415 -0.1085
20065TIP3    H181686   3.893   5.978  16.839  1.7868 -0.4599  1.9944
20065TIP3    H281687   3.969   6.034  16.721  0.4321 -2.0247  0.3117
20066TIP3   OH281688   4.666   5.674  15.292 -0.7827  0.1634  0.1595
20066TIP3    H181689   4.693   5.603  15.350  0.0446  1.6808  1.7441
20066TIP3    H281690   4.664   5.635  15.205  1.7410 -1.2983  0.6522
20067TIP3   OH281691   1.232   6.703  16.435 -0.3028 -0.1004  0.6218
20067TIP3    H181692   1.192   6.686  16.520  2.3303 -1.8836  1.6558
20067TIP3    H281693   1.169   6.669  16.371 -2.1826  0.9775  1.8250
20068TIP3   OH281694   1.524   3.846   4.607 -0.0572  0.5833 -0.4252
20068TIP3    H181695   1.609   3.890   4.614  0.4654 -0.3039 -0.9266
20068TIP3    H281696   1.499   3.857   4.516  1.0009 -1.7326 -1.0568
20069TIP3   OH281697   1.991   5.737   3.994 -0.1667  0.2875  0.1596
20069TIP3    H181698   2.087   5.734   4.003 -0.0177  1.7494 -0.6470
20069TIP3    H281699   1.959   5.740   4.084  0.5347 -0.1462  0.4377
20070TIP3   OH281700   1.732   3.864   6.437 -0.5849 -0.6212 -0.6805
20070TIP3    H181701   1.716   3.863   6.343  1.5581 -2.0551 -1.1012
20070TIP3    H281702   1.804   3.803   6.450 -0.5278 -0.1336  1.8534
20071TIP3   OH281703   3.617   4.085   0.321 -0.4592  0.1256 -0.1016
20071TIP3    H181704   3.643   4.108   0.232 -1.2220  2.1080  0.1341
20071TIP3    H281705   3.537   4.034   0.310 -0.2468 -0.1114 -0.5689
20072TIP3   OH281706   4.170   5.119   6.289 -0.1355 -0.4416 -0.3048
20072TIP3    H181707   4.127   5.098   6.206 -1.1089  1.7229 -0.4183
20072TIP3    H281708   4.098   5.144   6.347  0.7808  1.3396  0.1236
20073TIP3   OH281709   1.076   0.402   3.797 -0.1437  0.3070 -0.4824
20073TIP3    H181710   1.125   0.434   3.721 -0.2740 -0.2409 -0.8023
20073TIP3    H281711   1.124   0.436   3.873  0.6293 -0.0788 -0.7923
20074TIP3   OH281712   6.285   0.908  13.832 -1.0294 -0.5836 -0.4688
20074TIP3    H181713   6.214   0.949  13.881 -1.0618 -0.7501 -0.3758
20074TIP3    H281714   6.365   0.951  13.864 -0.9679 -1.2618  0.3350
20075TIP3   OH281715   4.202   4.280   0.382  0.6049  0.4691  0.5164
20075TIP3    H181716   4.146   4.331   0.323 -0.9091 -1.7423 -0.0892
20075TIP3    H281717   4.222   4.340   0.454  0.1060  2.3335 -0.8205
20076TIP3   OH281718   1.321   0.021  11.904  0.3929 -0.3689  0.5106
20076TIP3    H181719   1.390   0.043  11.841 -1.0000 -2.0500 -1.8048
20076TIP3    H281720   1.245   0.072  11.874 -0.0615 -0.5020  1.4114
20077TIP3   OH281721   0.573   1.987   3.776  0.1154 -0.1943 -0.2086
20077TIP3    H181722   0.511   2.033   3.720 -0.6403 -1.1706 -0.1888
20077TIP3    H281723   0.521   1.920   3.820  0.9871 -0.3776  0.5724
20078TIP3   OH281724   6.436   2.139   0.664 -0.0535  0.0463  0.1401
20078TIP3    H181725   6.432   2.066   0.602  1.4058  0.8061 -0.9041
20078TIP3    H281726   6.403   2.103   0.746  1.1866 -1.9740 -0.1861
20079TIP3   OH281727   1.056   5.316  16.863  0.0669 -0.0378 -0.1915
20079TIP3    H181728   1.091   5.266  16.789  0.2017 -0.2479  0.0118
20079TIP3    H281729   1.019   5.250  16.921 -0.0378  0.1263 -0.0713
20080TIP3   OH281730   1.981   3.906   3.255 -0.3473 -0.5781 -0.3003
20080TIP3    H181731   1.895   3.935   3.225 -0.7924  0.4228  1.7495
20080TIP3    H281732   1.964   3.823   3.300  0.2888 -1.9923 -2.4852
20081TIP3   OH281733   4.633   2.850  15.323 -0.3531 -0.2752  0.1902
20081TIP3    H181734   4.714   2.828  15.369 -0.0655 -0.2069 -0.2793
20081TIP3    H281735   4.651   2.936  15.283 -0.6880 -0.2165  0.1651
20082TIP3   OH281736   0.710   0.956   6.464 -1.0496  0.5037  0.4272
20082TIP3    H181737   0.775   1.023   6.443  0.9354 -1.5304 -0.4107
20082TIP3    H281738   0.703   0.959   6.560  0.8752  0.3548  0.6215
20083TIP3   OH281739   0.895   0.406  14.427  0.2165  0.0593  0.5067
20083TIP3    H181740   0.942   0.456  14.360 -0.2636 -0.6950 -0.4290
20083TIP3    H281741   0.956   0.400  14.501  1.4445 -0.5412 -0.5094
20084TIP3   OH281742   5.978   3.661  12.412 -0.5736  0.0762 -0.2709
20084TIP3    H181743   6.038   3.681  12.484  0.0834 -1.8819 -0.2123
20084TIP3    H281744   5.895   3.642  12.455  0.0897 -2.1586  0.1296
20085TIP3   OH281745   5.078   3.590   0.103  0.5931 -0.8883  0.5191
20085TIP3    H181746   5.161   3.620   0.141  0.7442 -2.4194  1.4822
20085TIP3    H281747   5.012   3.648   0.141  0.9653 -1.1742  1.6367
20086TIP3   OH281748   5.457   1.908  14.920 -0.0977 -0.2277 -0.5988
20086TIP3    H181749   5.430   1.817  14.930 -0.3622 -0.0647  0.2362
20086TIP3    H281750   5.400   1.943  14.852 -0.3669 -0.5432 -0.5363
20087TIP3   OH281751   4.389   3.004  13.776 -0.1128  0.1066  0.4271
20087TIP3    H181752   4.465   3.046  13.736  0.2587  0.3020  1.3112
20087TIP3    H281753   4.427   2.937  13.833 -0.7202 -2.3468 -1.9052
20088TIP3   OH281754   3.742   1.004  12.171  0.0559  0.4010 -0.6697
20088TIP3    H181755   3.717   1.090  12.140  1.6436  0.7619 -1.0391
20088TIP3    H281756   3.812   1.020  12.234 -0.5075 -0.5492  0.2397
20089TIP3   OH281757   3.961   3.597   1.153  0.5936 -0.0817 -0.3505
20089TIP3    H181758   4.039   3.544   1.135  1.9795  1.3992  0.9213
20089TIP3    H281759   3.972   3.675   1.099 -0.8429 -0.5380 -1.3457
20090TIP3   OH281760   0.813   6.679   0.901  0.3879  0.9711 -0.6717
20090TIP3    H181761   0.896   6.642   0.869 -0.3047  0.2667 -1.7158
20090TIP3    H281762   0.838   6.732   0.976  1.6583 -0.2024 -0.2158
20091TIP3   OH281763   5.330   4.425   3.914 -0.1727 -0.1674 -0.0945
20091TIP3    H181764   5.405   4.449   3.859  0.6060 -0.1406  0.9554
20091TIP3    H281765   5.368   4.404   3.999 -1.3696 -0.0397  0.4976
20092TIP3   OH281766   5.336   6.678  16.944 -0.1689 -0.1062  0.0555
20092TIP3    H181767   5.400   6.724  16.891  0.6909 -1.1490  0.1608
20092TIP3    H281768   5.258   6.672  16.888  0.2891 -0.0444 -0.5952
20093TIP3   OH281769   4.782   0.958  14.110  0.4356  0.3960 -0.4738
20093TIP3    H181770   4.758   0.899  14.182  0.7038  0.2371 -0.5128
20093TIP3    H281771   4.723   0.934  14.038 -0.4908  1.2016 -0.0060
20094TIP3   OH281772   1.259   1.488   5.268  0.4812  0.0776 -0.5885
20094TIP3    H181773   1.170   1.515   5.249  0.4688 -0.9712 -2.2311
20094TIP3    H281774   1.313   1.565   5.248 -0.1695  1.7238  3.1215
20095TIP3   OH281775   2.191   4.596  11.837 -0.5684 -0.6096  0.3962
20095TIP3    H181776   2.190   4.510  11.879  0.1303 -0.5867  0.4766
20095TIP3    H281777   2.262   4.590  11.773 -1.3862 -0.5278 -0.5378
20096TIP3   OH281778   3.187   1.208  11.420  0.6430 -0.1558  0.4525
20096TIP3    H181779   3.206   1.150  11.347  4.3448  2.2643 -0.8078
20096TIP3    H281780   3.162   1.291  11.380 -1.3437  0.1616  2.1311
20097TIP3   OH281781   4.274   2.066   0.164  0.0204  0.4553 -0.0513
20097TIP3    H181782   4.336   2.138   0.172 -1.5330  1.8483  0.1186
20097TIP3    H281783   4.313   2.007   0.099  2.0365  0.6477  0.9069
20098TIP3   OH281784   4.495   0.511  16.743  0.3631 -0.4653 -0.2863
20098TIP3    H181785   4.408   0.550  16.746  0.0104 -1.2855  0.8097
20098TIP3    H281786   4.480   0.418  16.761  1.5929 -0.3635  1.5906
20099TIP3   OH281787   2.644   4.842  11.427  0.0426 -0.9406 -0.2800
20099TIP3    H181788   2.676   4.756  11.402  2.2970  0.1167 -1.3898
20099TIP3    H281789   2.648   4.894  11.347  1.3561  0.8843  0.8815
20100TIP3   OH281790   4.850   2.425  14.633  0.4656 -0.3800  0.4854
20100TIP3    H181791   4.857   2.452  14.541  2.9283 -2.6050 -0.0832
20100TIP3    H281792   4.940   2.409  14.661 -0.2403 -0.0174  3.2648
20101TIP3   OH281793   1.402   6.515   3.292 -0.1997 -0.3468  0.0963
20101TIP3    H181794   1.446   6.431   3.284 -1.1970 -0.7081 -2.1071
20101TIP3    H281795   1.312   6.493   3.318 -0.8514 -0.1017 -1.8425
20102TIP3   OH281796   5.050   1.662  10.955  0.5374  0.3377  0.7053
20102TIP3    H181797   5.117   1.653  11.023  0.6414  0.2349  0.5885
20102TIP3    H281798   5.098   1.663  10.873  0.4512  1.0114  0.6577
20103TIP3   OH281799   6.357   3.815   4.198  0.6198 -0.2723 -0.3982
20103TIP3    H181800   6.355   3.904   4.232 -2.3924 -1.0346  1.8581
20103TIP3    H281801   6.439   3.778   4.230  1.9246  1.6281 -1.3974
20104TIP3   OH281802   5.957   6.698   1.474 -0.1736 -0.0516  0.0370
20104TIP3    H181803   6.043   6.737   1.491  0.2497 -1.4001  1.2094
20104TIP3    H281804   5.968   6.605   1.496 -0.4904 -1.5036 -4.6927
20105TIP3   OH281805   2.026   1.333   3.245 -0.2458 -0.1266  0.3557
20105TIP3    H181806   2.113   1.322   3.282  0.1287 -0.3114 -0.5538
20105TIP3    H281807   1.968   1.288   3.307  0.4839 -1.3309  0.1965
20106TIP3   OH281808   1.330   6.259   5.660  0.1957  0.7337 -0.1180
20106TIP3    H181809   1.250   6.213   5.685 -0.5157  2.5619  1.1732
20106TIP3    H281810   1.395   6.230   5.723  0.3808 -0.2346 -0.7432
20107TIP3   OH281811   2.547   2.140  11.834  0.5643  0.0506 -0.1012
20107TIP3    H181812   2.569   2.120  11.925 -0.8533  1.0372  0.4994
20107TIP3    H281813   2.628   2.127  11.786  1.2879 -0.7162  1.2647
20108TIP3   OH281814   5.769   2.368   4.515 -0.3045  0.1557  0.8094
20108TIP3    H181815   5.737   2.283   4.483  0.0351  0.3207 -0.0075
20108TIP3    H281816   5.694   2.426   4.506  0.7339  1.2025 -3.6171
20109TIP3   OH281817   3.121   0.755  11.692 -0.2876  0.2190  0.0126
20109TIP3    H181818   3.160   0.727  11.774 -0.6342 -0.7919 -0.1543
20109TIP3    H281819   3.067   0.831  11.715  0.0205  0.2562  0.6147
20110TIP3   OH281820   5.897   0.970   1.156  0.4716  0.5971 -0.2889
20110TIP3    H181821   5.939   1.033   1.097  3.1229 -2.5878 -2.1848
20110TIP3    H281822   5.929   0.993   1.243 -0.4579  3.0988 -0.5281
20111TIP3   OH281823   0.814   1.308  15.509 -0.0707 -0.5864  0.1638
20111TIP3    H181824   0.730   1.292  15.466  0.3207 -1.9950 -0.1207
20111TIP3    H281825   0.873   1.242  15.474  0.1292 -2.2553  3.2633
20112TIP3   OH281826   4.348   0.688  15.366 -0.5401  0.0685  0.9483
20112TIP3    H181827   4.390   0.734  15.439 -0.3966  1.3431  0.1027
20112TIP3    H281828   4.419   0.641  15.323 -0.5088 -0.1588  1.2479
20113TIP3   OH281829   2.049   0.763  14.093 -0.3978 -0.1327  0.1542
20113TIP3    H181830   2.030   0.804  14.177  0.8107  2.8477 -0.9107
20113TIP3    H281831   2.121   0.702  14.112  0.1698  0.8348  1.1986
20114TIP3   OH281832   6.136   2.079  12.044  0.4149 -0.1980  0.2783
20114TIP3    H181833   6.169   2.099  11.956  0.4875  2.5475  0.8484
20114TIP3    H281834   6.044   2.054  12.029  0.0569  1.4375 -0.5185
20115TIP3   OH281835   6.653   1.056  14.965 -0.2854 -0.5433  0.1485
20115TIP3    H181836   6.682   1.142  14.994  0.7229 -1.6226  2.6236
20115TIP3    H281837   6.733   1.014  14.932 -0.6722 -0.7443 -0.5662
20116TIP3   OH281838   1.221   5.540   3.622 -0.0357  0.3459  0.1376
20116TIP3    H181839   1.285   5.552   3.692 -0.3488  1.7524  0.2144
20116TIP3    H281840   1.193   5.449   3.630  1.4194 -0.0946  0.5467
20117TIP3   OH281841   4.464   0.145  15.618  0.0946 -0.0022 -0.2987
20117TIP3    H181842   4.387   0.170  15.668  0.1039  1.0668 -0.7799
20117TIP3    H281843   4.512   0.086  15.676 -0.4218  0.3642  0.5261
20118TIP3   OH281844   5.549   6.802   3.337  0.3453 -0.0819  0.3657
20118TIP3    H181845   5.529   6.894   3.317  1.0795  0.0022  0.0019
20118TIP3    H281846   5.642   6.803   3.361  1.0937 -1.1176 -2.1730
20119TIP3   OH281847   2.114   0.056  12.274  0.0443 -0.0591  0.2068
20119TIP3    H181848   2.019   0.071  12.269  0.0830  0.1067 -0.0267
20119TIP3    H281849   2.147   0.082  12.188  0.5878  1.8670  0.9328
20120TIP3   OH281850   1.407   5.776  15.287  0.3736 -0.1067  0.3286
20120TIP3    H181851   1.315   5.750  15.281  0.3629 -0.5943  2.0986
20120TIP3    H281852   1.452   5.718  15.225 -0.3418 -0.7422  0.3868
20121TIP3   OH281853   3.219   5.939   5.406  0.2226  0.2713  0.3077
20121TIP3    H181854   3.200   5.964   5.497  0.3578  0.2789  0.3337
20121TIP3    H281855   3.313   5.951   5.397  0.2451  0.0531  0.2348
20122TIP3   OH281856   5.531   5.581   4.676 -0.1501 -0.5954  0.8004
20122TIP3    H181857   5.501   5.628   4.599  0.6332  0.8371  1.3291
20122TIP3    H281858   5.565   5.498   4.642 -1.5666 -0.8234 -0.1446
20123TIP3   OH281859   4.470   4.172   2.105  0.7306  0.4195  0.0343
20123TIP3    H181860   4.476   4.261   2.140 -2.4185  0.0303  1.8875
20123TIP3    H281861   4.478   4.115   2.182  0.5360 -0.8186 -0.8279
20124TIP3   OH281862   5.877   2.262  12.070 -0.0662 -0.5270 -0.0984
20124TIP3    H181863   5.898   2.209  12.147 -1.6830 -1.0444  0.0043
20124TIP3    H281864   5.795   2.305  12.092 -0.8579 -1.1256 -1.7553
20125TIP3   OH281865   0.269   6.268   5.121  0.2277  0.5215 -0.1900
20125TIP3    H181866   0.277   6.329   5.194 -1.4493  1.4022 -0.7034
20125TIP3    H281867   0.340   6.293   5.062  0.8486  0.5891  0.5631
20126TIP3   OH281868   0.233   4.138  14.490 -0.9246 -0.2112  0.4008
20126TIP3    H181869   0.177   4.212  14.512 -0.0631 -0.1440  2.7185
20126TIP3    H281870   0.205   4.068  14.550  1.0839 -0.3025  1.3414
20127TIP3   OH281871   0.566   4.405   0.318  0.5379 -0.6450  0.2048
20127TIP3    H181872   0.501   4.426   0.251 -2.2819  0.2381  3.0077
20127TIP3    H281873   0.516   4.363   0.388  3.1897 -0.8962  2.0973
20128TIP3   OH281874   4.740   6.760  15.015 -0.6807 -0.2244 -0.7611
20128TIP3    H181875   4.822   6.807  15.026 -0.9860  0.3414 -0.8456
20128TIP3    H281876   4.751   6.711  14.933 -0.0680 -0.9350 -0.2638
20129TIP3   OH281877   3.366   1.562   2.799 -0.2674  0.2131 -0.3632
20129TIP3    H181878   3.299   1.524   2.856 -1.8414  0.0471 -2.2169
20129TIP3    H281879   3.317   1.614   2.736  1.3641  0.1834 -1.7332
20130TIP3   OH281880   4.670   3.942  15.776  0.6645  0.1750 -0.0090
20130TIP3    H181881   4.723   3.879  15.824  0.5352 -0.4768 -0.7144
20130TIP3    H281882   4.729   3.978  15.710  0.2838 -0.4578 -0.7130
20131TIP3   OH281883   0.774   1.085   0.368  0.1835 -0.3131  0.8988
20131TIP3    H181884   0.824   1.100   0.288  0.5562  2.0439  1.4934
20131TIP3    H281885   0.835   1.044   0.428  0.4147 -0.5100  0.5264
20132TIP3   OH281886   0.166   6.187   2.025  0.2134  0.8638 -0.2386
20132TIP3    H181887   0.135   6.175   1.935 -0.7152 -0.0501  0.1823
20132TIP3    H281888   0.116   6.262   2.057  0.2133  0.9121 -0.3501
20133TIP3   OH281889   4.972   6.132  15.846  0.1615 -0.7154 -0.2413
20133TIP3    H181890   5.044   6.069  15.854 -0.2968 -1.2353 -0.1339
20133TIP3    H281891   4.972   6.178  15.930 -1.7041 -2.9975  1.1460
20134TIP3   OH281892   1.623   6.772  14.922  0.0138  0.3777 -0.0928
20134TIP3    H181893   1.713   6.740  14.924 -0.7150 -1.8812 -0.2213
20134TIP3    H281894   1.606   6.792  14.830  0.3047  0.5200 -0.1142
20135TIP3   OH281895   0.613   4.192  16.913  0.0895 -0.4156 -0.4566
20135TIP3    H181896   0.594   4.148  16.996 -2.6089 -0.8798 -1.2097
20135TIP3    H281897   0.617   4.285  16.936  0.8685 -0.6423  0.3937
20136TIP3   OH281898   2.909   0.517   2.672 -0.1343  0.2131 -0.7489
20136TIP3    H181899   2.857   0.455   2.621 -0.3335  0.7303 -1.1774
20136TIP3    H281900   2.861   0.599   2.667 -0.0559  0.3259  0.1145
20137TIP3   OH281901   2.273   6.748  15.721  0.6150 -0.0337 -0.1293
20137TIP3    H181902   2.294   6.665  15.678  0.1344 -0.2881  0.1171
20137TIP3    H281903   2.238   6.722  15.806 -1.8079  0.3078 -0.9622
20138TIP3   OH281904   5.839   3.229   0.710 -0.0692 -0.5516 -0.1870
20138TIP3    H181905   5.877   3.154   0.757 -0.7267 -1.5452 -1.1803
20138TIP3    H281906   5.850   3.208   0.618 -2.5597 -0.6975 -0.5340
20139TIP3   OH281907   2.929   3.639  14.686  0.6023  0.7165 -0.2534
20139TIP3    H181908   2.897   3.593  14.609 -0.9945 -0.0198  0.8150
20139TIP3    H281909   2.855   3.642  14.746  1.9429  0.7901  1.4973
20140TIP3   OH281910   3.056   2.130  13.014 -0.5105  0.2814 -0.0289
20140TIP3    H181911   3.095   2.057  12.965  0.5276  0.3746  0.6538
20140TIP3    H281912   3.130   2.184  13.042 -1.1102  0.4698  1.2685
20141TIP3   OH281913   1.424   0.300  14.671  0.2334 -0.1532 -0.3764
20141TIP3    H181914   1.415   0.212  14.707  0.5169  0.0318  0.1527
20141TIP3    H281915   1.402   0.359  14.744  1.1179  0.2290 -0.4074
20142TIP3   OH281916   3.860   2.749  13.932  0.1406  0.2179 -0.0686
20142TIP3    H181917   3.806   2.670  13.925 -0.3398  0.6217 -0.9328
20142TIP3    H281918   3.903   2.740  14.018  0.7477 -1.3909 -0.4930
20143TIP3   OH281919   0.519   5.498  13.501 -0.4097  0.0013 -0.4171
20143TIP3    H181920   0.504   5.539  13.586 -2.6244  0.9259 -1.1856
20143TIP3    H281921   0.555   5.568  13.446  1.9243 -0.8272 -0.0664
20144TIP3   OH281922   6.544   3.255   0.090  0.1074  0.2246 -0.6197
20144TIP3    H181923   6.595   3.318   0.141  1.0246  1.2064 -2.6212
20144TIP3    H281924   6.475   3.308   0.050 -0.6262 -0.5340 -0.3724
20145TIP3   OH281925   3.714   3.488   1.604  0.1195  0.3186  0.1297
20145TIP3    H181926   3.654   3.478   1.677 -1.0192  1.6435 -0.5644
20145TIP3    H281927   3.664   3.458   1.528  1.1264 -0.6171 -0.1977
20146TIP3   OH281928   5.529   4.438  15.358 -0.1268  0.0342  0.0352
20146TIP3    H181929   5.495   4.349  15.345 -2.0115  0.6372  0.4430
20146TIP3    H281930   5.564   4.437  15.447 -0.0197 -0.3351 -0.0094
20147TIP3   OH281931   0.345   5.720   4.592  0.6029 -0.4193  0.1041
20147TIP3    H181932   0.368   5.658   4.523 -1.9756 -0.6716 -0.6498
20147TIP3    H281933   0.256   5.694   4.619 -0.3194  2.5175  0.2222
20148TIP3   OH281934   4.699   5.026  13.208 -0.1216  0.2259  0.1405
20148TIP3    H181935   4.744   5.015  13.292 -0.0650 -1.1338 -0.0373
20148TIP3    H281936   4.767   5.056  13.148  0.1539 -0.1303  0.2741
20149TIP3   OH281937   5.329   4.623  12.539 -0.0164 -0.0817 -0.3948
20149TIP3    H181938   5.239   4.620  12.572  0.1656  0.8459  0.2332
20149TIP3    H281939   5.379   4.662  12.611  1.3493 -2.7489  0.2181
20150TIP3   OH281940   2.128   2.304   1.767  0.1159  0.4073  0.5214
20150TIP3    H181941   2.052   2.289   1.710  1.8702  0.3432 -1.9871
20150TIP3    H281942   2.112   2.248   1.843 -1.7188 -0.6335 -0.5519
20151TIP3   OH281943   4.206   1.567   2.581 -0.3598 -0.5872  0.4514
20151TIP3    H181944   4.126   1.567   2.528  0.0460 -0.1669 -0.1619
20151TIP3    H281945   4.266   1.508   2.535  0.1454  0.1063  0.2139
20152TIP3   OH281946   2.484   4.759  12.754 -0.3969  0.6150  0.2876
20152TIP3    H181947   2.579   4.755  12.740 -0.5365  0.7915 -0.7725
20152TIP3    H281948   2.475   4.808  12.836  0.3847  2.4493 -0.6584
20153TIP3   OH281949   0.026   1.175   5.582 -0.1447  0.0510  0.0912
20153TIP3    H181950   0.082   1.218   5.647  0.8642 -0.1141 -0.6317
20153TIP3    H281951  -0.053   1.228   5.579  0.1288  0.5162  0.8835
20154TIP3   OH281952   1.609   5.300   2.072  0.2495  0.4778 -0.4875
20154TIP3    H181953   1.577   5.359   2.140 -3.0635 -1.4060 -0.1866
20154TIP3    H281954   1.661   5.235   2.119 -0.1743  0.4389 -0.0576
20155TIP3   OH281955   3.076   0.221   0.816  0.0268  1.0552  0.9004
20155TIP3    H181956   3.040   0.202   0.903  1.4246 -1.6329  1.0024
20155TIP3    H281957   3.083   0.316   0.813 -0.1095  1.2384  3.7131
20156TIP3   OH281958   4.633   5.226  15.267  0.1482  0.5488 -0.1915
20156TIP3    H181959   4.675   5.311  15.279  1.7641 -0.0309 -1.4369
20156TIP3    H281960   4.609   5.224  15.174 -1.9094  0.4943  0.2857
20157TIP3   OH281961   0.954   1.332   3.559 -0.0228  0.3684  0.3968
20157TIP3    H181962   1.005   1.331   3.478 -1.1696 -0.2453 -0.3396
20157TIP3    H281963   0.937   1.425   3.575 -2.4501  0.4324 -1.8523
20158TIP3   OH281964   5.055   2.874  14.655 -0.2508  0.0651  0.1437
20158TIP3    H181965   4.986   2.915  14.709 -0.9331  0.1857 -0.7990
20158TIP3    H281966   5.127   2.937  14.658 -0.7838  0.7082 -0.1639
20159TIP3   OH281967   1.395   5.707   1.553 -0.3925  0.2759 -0.5871
20159TIP3    H181968   1.309   5.668   1.570 -0.5619  0.9533  0.1763
20159TIP3    H281969   1.429   5.658   1.478 -1.6249  0.2837 -1.1714
20160TIP3   OH281970   1.130   2.833   0.003  0.0337  0.1221  0.2110
20160TIP3    H181971   1.070   2.767   0.038  2.3012 -3.0228 -1.3892
20160TIP3    H281972   1.187   2.856   0.076  1.2126 -2.1993  0.1162
20161TIP3   OH281973   2.120   1.143   1.613 -0.1837  0.2756  0.2319
20161TIP3    H181974   2.127   1.227   1.569  0.1078  0.7027  1.0664
20161TIP3    H281975   2.046   1.099   1.572  0.2265  0.5585 -0.8281
20162TIP3   OH281976   3.663   5.391   2.311  0.2453 -0.8553 -0.6859
20162TIP3    H181977   3.748   5.371   2.351  0.0224  1.6991  1.2468
20162TIP3    H281978   3.599   5.363   2.376 -0.2804  0.0338 -0.8181
20163TIP3   OH281979   3.056   6.579   4.856  0.3719  0.1150 -0.2612
20163TIP3    H181980   3.136   6.583   4.804 -0.4651 -0.5543 -1.6712
20163TIP3    H281981   3.002   6.513   4.812 -1.4368  1.3990 -0.0880
20164TIP3   OH281982   5.113   3.763  11.014  0.3716  0.0074  0.1681
20164TIP3    H181983   5.121   3.858  11.005  0.1738 -0.0026 -0.1046
20164TIP3    H281984   5.057   3.750  11.091 -2.0714  0.1634 -1.4650
20165TIP3   OH281985   5.493   0.393  12.362 -0.4509  0.0075  0.2913
20165TIP3    H181986   5.400   0.373  12.359 -0.2641 -0.8600 -2.0736
20165TIP3    H281987   5.534   0.312  12.393 -0.2100 -1.3928 -3.1964
20166TIP3   OH281988   4.520   2.038   6.013 -0.3967 -0.9986  0.9640
20166TIP3    H181989   4.533   1.993   6.096  3.1583  0.0583  1.1566
20166TIP3    H281990   4.500   2.128   6.036  0.2606 -0.7771  0.7033
20167TIP3   OH281991   5.085   5.352   4.391 -0.0687  0.0821  0.2767
20167TIP3    H181992   5.075   5.258   4.377 -0.4822  0.2726 -0.8372
20167TIP3    H281993   5.177   5.370   4.372 -0.6510  0.3723 -2.8131
20168TIP3   OH281994   1.704   1.413   3.023  0.1121  0.0619  0.2610
20168TIP3    H181995   1.713   1.354   3.098  0.9534  0.3864  0.4239
20168TIP3    H281996   1.785   1.402   2.974 -0.9874 -1.1922 -1.3894
20169TIP3   OH281997   2.435   1.468  16.060  0.5446 -0.3438 -0.0441
20169TIP3    H181998   2.483   1.442  15.981  1.3326  0.4790  0.1519
20169TIP3    H281999   2.500   1.511  16.115 -0.1706 -0.2310  0.7340
20170TIP3   OH282000   4.464   0.634  14.559 -0.0964 -0.1578  0.6582
20170TIP3    H182001   4.553   0.663  14.582 -0.6868  0.6122  2.0583
20170TIP3    H282002   4.415   0.715  14.545 -0.6324 -0.5754  0.0288
20171TIP3   OH282003   3.077   3.496   2.163 -0.1210  0.3525  0.2947
20171TIP3    H182004   3.152   3.476   2.219  0.4878 -1.0273 -0.9509
20171TIP3    H282005   3.104   3.574   2.114  1.2079 -0.9906 -1.2513
20172TIP3   OH282006   3.301   2.641   2.261  0.1649 -0.0643  0.2914
20172TIP3    H182007   3.283   2.580   2.333  1.9082 -1.4439 -0.3680
20172TIP3    H282008   3.390   2.673   2.277  1.3127 -1.7294 -2.0480
20173TIP3   OH282009   2.021   4.705  12.136  0.3089 -0.3848  0.0650
20173TIP3    H182010   1.939   4.656  12.130 -0.2407  0.1874  2.1076
20173TIP3    H282011   2.089   4.638  12.133 -0.1956 -0.8673 -1.6719
20174TIP3   OH282012   2.063   2.268  12.774  0.1644 -0.4101 -0.8880
20174TIP3    H182013   2.062   2.176  12.800 -1.1187 -0.1918 -0.0761
20174TIP3    H282014   2.028   2.269  12.685 -1.5863 -0.5601 -0.2366
20175TIP3   OH282015   0.856   2.850  15.676  0.1176 -0.0485  0.2823
20175TIP3    H182016   0.860   2.792  15.753 -1.8672 -0.7227 -0.0817
20175TIP3    H282017   0.888   2.934  15.709  0.4238 -0.6263  1.5425
20176TIP3   OH282018   4.838   1.005   2.166  0.1036  0.5136 -0.5873
20176TIP3    H182019   4.867   0.982   2.078  0.1256 -2.5516  0.1069
20176TIP3    H282020   4.745   0.986   2.167  0.6935 -3.2843  0.9404
20177TIP3   OH282021   0.423   0.794   0.193 -0.4645  0.0244 -0.1449
20177TIP3    H182022   0.351   0.756   0.142 -0.7583  0.6042 -0.1747
20177TIP3    H282023   0.501   0.780   0.139 -0.2800 -1.9515  0.5507
20178TIP3   OH282024   5.449   1.274   0.683  0.2613 -0.0646  0.9975
20178TIP3    H182025   5.455   1.343   0.749 -1.7951 -0.3061  1.4913
20178TIP3    H282026   5.434   1.320   0.600 -0.6933  0.1151  1.2621
20179TIP3   OH282027   5.680   3.216   4.208 -0.2699 -0.1360  0.1721
20179TIP3    H182028   5.654   3.253   4.124  2.6779  0.3920 -0.6327
20179TIP3    H282029   5.764   3.174   4.190 -1.0023 -2.7770  2.2128
20180TIP3   OH282030   4.641   3.800   6.338 -1.4998  0.1576 -0.1443
20180TIP3    H182031   4.693   3.758   6.270 -0.3820  1.5412 -0.1932
20180TIP3    H282032   4.663   3.753   6.418  0.1771  0.9761 -0.0943
20181TIP3   OH282033   4.989   6.131  11.448 -0.1196 -0.5269  0.1139
20181TIP3    H182034   5.003   6.222  11.473 -0.1203 -0.8153  1.1993
20181TIP3    H282035   5.048   6.117  11.374 -1.0565  0.7073 -0.9102
20182TIP3   OH282036   5.492   6.025  12.612  0.5178 -0.4152  0.1944
20182TIP3    H182037   5.408   6.005  12.653  1.3553 -0.9883  1.7179
20182TIP3    H282038   5.553   5.962  12.651  1.9551  0.9564  0.2684
20183TIP3   OH282039   0.911   4.145   1.890 -0.4166  0.7936  0.5660
20183TIP3    H182040   0.891   4.067   1.837  0.9958  0.4862  0.4484
20183TIP3    H282041   1.006   4.154   1.884 -0.5455  2.4401  0.7270
20184TIP3   OH282042   0.379   0.150   0.593 -0.0798  0.0574 -0.3408
20184TIP3    H182043   0.432   0.195   0.659  2.3219 -1.7445 -0.8749
20184TIP3    H282044   0.357   0.066   0.632 -0.2924 -0.2642 -1.1204
20185TIP3   OH282045   0.018   1.104   4.374 -0.3429  0.1315  0.7432
20185TIP3    H182046  -0.033   1.072   4.448  1.1739  0.4165  1.9785
20185TIP3    H282047   0.102   1.131   4.413  0.6419 -0.0461 -1.1272
20186TIP3   OH282048   3.776   2.548   2.879  0.8923  0.5756 -0.3400
20186TIP3    H182049   3.759   2.512   2.966 -0.1743  0.6715 -0.4961
20186TIP3    H282050   3.819   2.478   2.831 -0.6629 -0.3073 -0.4739
20187TIP3   OH282051   0.737   2.351  16.212 -0.4376 -0.3034  0.4036
20187TIP3    H182052   0.752   2.289  16.140 -1.4690 -0.1510  0.0424
20187TIP3    H282053   0.808   2.333  16.274  0.9152  0.0676 -0.9784
20188TIP3   OH282054   6.353   3.619   1.418  0.0281  0.3898 -0.8575
20188TIP3    H182055   6.349   3.681   1.346  3.6471  0.3784 -1.2754
20188TIP3    H282056   6.332   3.534   1.379  4.3926 -0.0821 -2.8372
20189TIP3   OH282057   3.394   3.229  16.238 -0.4092  0.3299  0.1210
20189TIP3    H182058   3.398   3.323  16.222 -0.1521  0.5699  1.4730
20189TIP3    H282059   3.469   3.192  16.192 -0.0777  0.8884  0.2163
20190TIP3   OH282060   4.399   0.760  17.000 -0.0150  0.4727 -0.2870
20190TIP3    H182061   4.450   0.770  17.080  0.7542 -2.6113 -0.2571
20190TIP3    H282062   4.439   0.685  16.955 -2.7459 -0.3049 -1.6620
20191TIP3   OH282063   2.471   0.231   0.501 -0.5016  0.1329  0.0646
20191TIP3    H182064   2.428   0.175   0.566  0.9825  1.2202  2.0979
20191TIP3    H282065   2.399   0.275   0.456 -1.5978 -0.6221  1.0153
20192TIP3   OH282066   3.244   1.741   2.629 -0.0070 -0.1793  0.2003
20192TIP3    H182067   3.309   1.753   2.560  1.5332  0.3440  1.6652
20192TIP3    H282068   3.198   1.661   2.605 -0.7881  0.9335 -2.3542
20193TIP3   OH282069   5.136   2.580  14.854 -0.4588 -0.0096 -0.2500
20193TIP3    H182070   5.162   2.672  14.867 -1.6998  0.3984 -0.5251
20193TIP3    H282071   5.057   2.570  14.907 -1.8841 -0.1366 -2.2985
20194TIP3   OH282072   2.754   2.556   2.919  0.1120  0.3527  0.7722
20194TIP3    H182073   2.793   2.482   2.872 -0.4451 -0.4391  1.5156
20194TIP3    H282074   2.773   2.539   3.011  0.0278  1.1780  0.9507
20195TIP3   OH282075   4.402   6.267  11.075 -0.4998  0.0497 -0.4124
20195TIP3    H182076   4.426   6.227  11.159 -0.0680 -1.1890 -1.1069
20195TIP3    H282077   4.379   6.193  11.019 -0.2288  0.8211 -1.5672
20196TIP3   OH282078   2.898   4.464   3.820 -0.2401 -0.4324  0.4903
20196TIP3    H182079   2.971   4.513   3.859  1.6437 -2.2816 -0.5630
20196TIP3    H282080   2.829   4.530   3.811  0.9975  1.2366  2.1857
20197TIP3   OH282081   6.225   1.067   5.399  0.3564 -0.3297  0.5463
20197TIP3    H182082   6.148   1.052   5.344  0.9934 -0.1228 -0.4163
20197TIP3    H282083   6.231   1.162   5.407  1.0384 -0.2946 -0.1761
20198TIP3   OH282084   2.262   0.339   0.337 -0.4086 -0.1716  0.5675
20198TIP3    H182085   2.262   0.280   0.262  0.3851 -1.8890  1.8487
20198TIP3    H282086   2.173   0.376   0.339 -1.0389 -1.5874 -0.0981
20199TIP3   OH282087   5.202   5.462  11.415 -0.4265 -0.5288 -0.2956
20199TIP3    H182088   5.193   5.485  11.508 -2.2589  0.1715 -0.5984
20199TIP3    H282089   5.212   5.367  11.414 -0.7767 -0.5861  0.6083
20200TIP3   OH282090   4.421   4.399   1.862 -0.0529 -0.2234 -0.6990
20200TIP3    H182091   4.432   4.472   1.801 -0.5329  1.6839  1.3372
20200TIP3    H282092   4.473   4.424   1.938 -1.4444 -1.2813  0.6636
20201TIP3   OH282093   1.860   1.692  16.391  0.4308 -0.3233  0.1260
20201TIP3    H182094   1.787   1.746  16.420 -1.0322  0.0961 -3.7487
20201TIP3    H282095   1.935   1.752  16.389 -0.1189  0.3734  0.1903
20202TIP3   OH282096   6.334   3.443  15.913  0.0481 -1.0654  0.3688
20202TIP3    H182097   6.316   3.382  15.985 -1.0705 -0.1718  0.8810
20202TIP3    H282098   6.426   3.428  15.892  0.3772 -1.4306  1.9093
20203TIP3   OH282099   1.721   1.645  12.913 -0.4438 -0.2271  0.0478
20203TIP3    H182100   1.630   1.629  12.936 -0.1007 -1.6557  0.5217
20203TIP3    H282101   1.717   1.691  12.829 -1.5938  0.1272  0.2832
20204TIP3   OH282102   0.899   1.875  15.494 -0.1669  0.4243 -0.2425
20204TIP3    H182103   0.866   1.785  15.490  1.0168  0.0097 -1.0966
20204TIP3    H282104   0.974   1.876  15.435  2.9595  0.6733  3.3830
20205TIP3   OH282105   4.300   5.571   2.039  0.1641  0.4318  0.1292
20205TIP3    H182106   4.223   5.572   2.096  0.6357 -0.5044  0.8024
20205TIP3    H282107   4.265   5.553   1.952 -0.3732 -0.0993  0.4468
20206TIP3   OH282108   3.343   4.198  15.131  0.3163  0.3340  0.6501
20206TIP3    H182109   3.348   4.221  15.038  2.4572  0.3400  0.7205
20206TIP3    H282110   3.293   4.269  15.171  0.1112  0.7686 -0.3593
20207TIP3   OH282111   2.292   1.618   4.754 -0.9839  0.4833  0.1733
20207TIP3    H182112   2.309   1.712   4.755  0.6134  0.2326 -0.2866
20207TIP3    H282113   2.263   1.600   4.665  0.9006  0.2435 -0.4495
20208TIP3   OH282114   4.557   2.685  14.144 -0.0064 -0.1689 -0.1939
20208TIP3    H182115   4.578   2.673  14.237 -1.3432  1.8241  0.4448
20208TIP3    H282116   4.587   2.605  14.102 -3.5918 -3.4154  2.6465
20209TIP3   OH282117   0.961   2.682  17.051  0.7408  0.2775  0.1443
20209TIP3    H182118   0.978   2.610  16.991  1.6846  0.8096 -0.2522
20209TIP3    H282119   0.988   2.649  17.137  0.8063  0.0300  0.0284
20210TIP3   OH282120   4.069   2.623  14.814 -0.3125  0.1207 -0.1289
20210TIP3    H182121   4.074   2.548  14.755 -1.0730  0.1480 -0.2349
20210TIP3    H282122   4.026   2.692  14.763  0.1576  0.5532  0.0476
20211TIP3   OH282123   1.178   4.812   1.628  0.3270  0.2823 -0.3880
20211TIP3    H182124   1.100   4.788   1.579  1.1282  0.1251 -1.6331
20211TIP3    H282125   1.180   4.752   1.702  0.8529 -1.7651 -1.9811
20212TIP3   OH282126   4.209   3.084  16.791 -0.0917 -0.0749 -0.4647
20212TIP3    H182127   4.262   3.035  16.854  0.7502 -0.7783 -1.6708
20212TIP3    H282128   4.125   3.039  16.789 -0.0036 -0.2559 -0.1008
20213TIP3   OH282129   6.679   3.737   3.050  0.0358  0.2718  0.3198
20213TIP3    H182130   6.614   3.707   2.987  0.6816 -0.4134 -0.0320
20213TIP3    H282131   6.650   3.702   3.134  0.3642 -0.6998  0.0389
20214TIP3   OH282132   3.722   6.597   2.816 -0.2090  0.3136  0.6009
20214TIP3    H182133   3.720   6.618   2.723  0.2966  0.6229  0.6557
20214TIP3    H282134   3.783   6.524   2.823  0.7647  1.1235  0.8358
20215TIP3   OH282135   5.672   3.453   1.016  0.4352  0.1991  0.0615
20215TIP3    H182136   5.637   3.539   1.039  0.7651 -0.0330  1.5119
20215TIP3    H282137   5.616   3.423   0.944 -0.9176  0.7954  0.8285
20216TIP3   OH282138   1.621   5.237   5.237  0.6362 -0.1337 -0.4345
20216TIP3    H182139   1.699   5.183   5.249 -0.2667 -1.1769  1.1672
20216TIP3    H282140   1.552   5.175   5.216 -0.1321  0.5474  0.0096
20217TIP3   OH282141   2.898   3.911  15.360 -0.2474  0.2592  0.1979
20217TIP3    H182142   2.964   3.942  15.298 -0.2848  0.4461  0.2483
20217TIP3    H282143   2.828   3.875  15.306  0.9569 -2.2136  0.1698
20218TIP3   OH282144   2.297   0.995   0.981 -0.2284  0.8776 -0.0142
20218TIP3    H182145   2.267   0.904   0.993 -0.9017  1.1515  0.4796
20218TIP3    H282146   2.246   1.045   1.045 -0.2549  1.6851 -0.6492
20219TIP3   OH282147   2.497   1.236  14.776 -0.3637 -0.6159 -0.4667
20219TIP3    H182148   2.541   1.318  14.796  2.1326 -1.5580 -1.6321
20219TIP3    H282149   2.426   1.261  14.716  0.2048  0.7255 -0.6193
20220TIP3   OH282150   1.581   1.730   4.796  0.1870  0.1124  0.3899
20220TIP3    H182151   1.672   1.703   4.784 -0.0039 -1.4326  2.0735
20220TIP3    H282152   1.547   1.673   4.865 -1.9694  0.8867  0.0638
20221TIP3   OH282153   3.643   1.770   4.403  0.0910  0.1967  0.1475
20221TIP3    H182154   3.634   1.815   4.319 -0.7885  0.7630  0.5275
20221TIP3    H282155   3.649   1.678   4.380  0.1751  0.3695 -0.5572
20222TIP3   OH282156   1.010   2.484  12.784  0.1828  0.0955 -0.3610
20222TIP3    H182157   1.053   2.407  12.821  0.8156  0.2593 -0.7387
20222TIP3    H282158   1.072   2.555  12.800 -1.5138  1.1069  2.4164
20223TIP3   OH282159   6.496   4.912  14.047  0.4581  0.2407 -0.6920
20223TIP3    H182160   6.495   4.833  14.102 -0.4397  0.4948 -0.3276
20223TIP3    H282161   6.561   4.969  14.089  2.4154 -0.9634 -1.9482
20224TIP3   OH282162   0.980   3.518   0.148  0.5918  0.1383  0.2159
20224TIP3    H182163   0.890   3.543   0.166  0.9627  1.4629  0.3443
20224TIP3    H282164   1.011   3.478   0.229  0.5001  0.8522  0.6091
20225TIP3   OH282165   5.883   0.593  14.897 -0.1352  0.2606  1.1741
20225TIP3    H182166   5.845   0.674  14.931 -0.1943  0.5854  0.3530
20225TIP3    H282167   5.814   0.528  14.909 -0.7502  0.7153  0.2733
20226TIP3   OH282168   1.650   5.646  15.152  0.1519 -0.2625  0.2737
20226TIP3    H182169   1.723   5.652  15.213  0.5104  0.2471 -0.1979
20226TIP3    H282170   1.661   5.722  15.094  1.3640 -2.1451 -2.1211
20227TIP3   OH282171   1.519   5.503   1.396  0.2144 -0.3403  1.0264
20227TIP3    H182172   1.425   5.488   1.406  0.1155  0.0065  0.6496
20227TIP3    H282173   1.540   5.470   1.309  0.0737  1.2567  0.3543
20228TIP3   OH282174   3.190   1.980  15.642 -0.0771 -0.2396  0.1042
20228TIP3    H182175   3.104   1.977  15.684  0.6348 -1.2921  1.5767
20228TIP3    H282176   3.171   1.998  15.550 -1.7535  1.4352  0.6953
20229TIP3   OH282177   2.515   0.822  11.323  0.0350  0.2458  0.2720
20229TIP3    H182178   2.440   0.857  11.275 -0.4361  0.6584  1.2854
20229TIP3    H282179   2.525   0.881  11.397  0.9291 -0.2187  0.5248
20230TIP3   OH282180   4.425   1.634   4.555  0.1278  0.6413  0.0705
20230TIP3    H182181   4.469   1.719   4.560 -1.3848  1.5955 -1.5226
20230TIP3    H282182   4.354   1.641   4.619 -0.6665  1.0435 -0.8271
20231TIP3   OH282183   1.821   6.695   6.118 -0.4320  0.2883  0.0224
20231TIP3    H182184   1.822   6.719   6.210  0.0059 -2.2816  0.7823
20231TIP3    H282185   1.881   6.621   6.112  0.0840  0.8248 -2.4806
20232TIP3   OH282186   0.307   4.570   3.715  0.1224  0.7089  0.0002
20232TIP3    H182187   0.309   4.475   3.706  0.3634  0.7747 -0.7331
20232TIP3    H282188   0.389   4.592   3.759 -0.1143  0.5486  0.5298
20233TIP3   OH282189   6.070   5.387   2.809 -0.0232 -0.1798  0.1770
20233TIP3    H182190   6.156   5.412   2.842 -0.9154  0.5350  2.0568
20233TIP3    H282191   6.077   5.397   2.714  2.1361 -0.7372  0.2267
20234TIP3   OH282192   2.310   3.256   4.738 -0.2681  0.2543  0.1831
20234TIP3    H182193   2.385   3.247   4.798  0.5817  1.0240 -0.7232
20234TIP3    H282194   2.350   3.268   4.652 -1.4785 -1.1735 -0.6119
20235TIP3   OH282195   4.328   6.657   4.265  0.2694 -0.0681 -0.3917
20235TIP3    H182196   4.332   6.582   4.206  0.4490  1.0178 -1.8248
20235TIP3    H282197   4.237   6.686   4.260  0.6411  1.0363 -1.5197
20236TIP3   OH282198   5.984   2.005  16.814 -0.3292 -0.2382 -0.2077
20236TIP3    H182199   5.980   2.054  16.896  2.9408  2.4544 -1.3959
20236TIP3    H282200   6.060   1.948  16.823 -1.7123 -2.2093 -0.3700
20237TIP3   OH282201   5.190   2.733  13.860 -0.4590 -0.3015  0.0811
20237TIP3    H182202   5.188   2.638  13.877  0.8839 -0.0742  1.8233
20237TIP3    H282203   5.114   2.749  13.804 -0.9829 -2.3447  0.1229
20238LIG      S82204   2.704   2.942  15.509 -0.0193  0.4771 -0.0715
20238LIG     F182205   3.301   3.832  15.919  0.4277 -0.3867 -0.2512
20238LIG     F282206   3.110   3.930  15.901  0.5789  0.2119  0.5373
20238LIG     F382207   3.255   3.975  16.061  0.3333  0.6328  0.4570
20238LIG     N182208   2.823   3.200  15.831  0.3094  0.2784  0.2865
20238LIG     N282209   2.825   3.232  15.443 -0.4070  0.5281 -0.5143
20238LIG     C182210   2.860   3.163  15.569 -0.0493  0.0372  0.1371
20238LIG     C282211   2.776   3.212  15.687  0.3220  0.1670 -0.2029
20238LIG     C382212   2.717   3.236  15.927  0.7322  0.6011  0.9918
20238LIG     C482213   2.947   3.273  15.863  0.3446  0.7431 -0.6951
20238LIG     C582214   2.693   3.393  15.924 -0.8113  0.3600 -0.1658
20238LIG     C682215   2.923   3.425  15.850  0.1124  0.2940  0.6941
20238LIG     C782216   2.820   3.465  15.950  1.2383 -0.2447 -0.1699
20238LIG     C882217   2.862   3.008  15.559  0.2533 -0.1526  0.8097
20238LIG     C982218   2.684   3.215  15.387 -1.0903  0.8896 -0.3718
20238LIG    C1082219   2.669   3.060  15.365 -0.0249 -0.7194  0.0174
20238LIG    C1182220   2.840   3.534  16.071  0.9224  0.3131  0.5353
20238LIG    C1282221   2.925   3.215  15.341 -0.1661 -0.1254  0.1014
20238LIG    C1382222   2.964   3.598  16.110 -0.4665  0.7795 -0.4345
20238LIG    C1482223   2.736   3.545  16.173  0.5051  0.0503 -0.1731
20238LIG    C1582224   3.020   3.692  16.020 -0.6148  0.0989 -0.2298
20238LIG    C1682225   3.036   3.561  16.231 -0.6366 -0.9041 -0.1454
20238LIG    C1782226   2.640   3.651  16.174 -0.1161  0.0127 -0.7878
20238LIG    C1882227   2.730   3.441  16.273  0.8526 -0.5888  0.3213
20238LIG    C1982228   3.136   3.760  16.063 -0.0670 -0.3077 -0.5874
20238LIG    C2082229   3.158   3.615  16.264  0.0031 -0.2059  0.1758
20238LIG    C2182230   2.536   3.643  16.274  0.2598 -0.5385 -0.1376
20238LIG    C2282231   2.635   3.451  16.373 -0.2481  0.1455 -0.6867
20238LIG    C2382232   3.197   3.721  16.187 -0.0791  0.0312  0.7620
20238LIG    C2482233   2.541   3.547  16.375  0.0419 -0.1882  0.3465
20238LIG    C2582234   3.197   3.879  15.987  0.4428 -0.0266 -0.3337
20238LIG     H182235   2.962   3.201  15.594  0.6334  0.3983 -2.8309
20238LIG     H282236   2.742   3.316  15.665 -0.3455  0.2394  1.0264
20238LIG     H382237   2.681   3.155  15.674 -0.0527  0.9293 -0.9235
20238LIG     H482238   2.754   3.194  16.023  3.2072 -0.1827 -0.2210
20238LIG     H582239   2.620   3.194  15.892  1.3073  0.7378 -0.8498
20238LIG     H682240   3.028   3.243  15.793  1.2206 -1.2009  1.0107
20238LIG     H782241   2.978   3.249  15.967  0.6610 -0.8809 -1.1285
20238LIG     H882242   2.615   3.428  15.994  0.1734  1.7102  0.3120
20238LIG     H982243   2.651   3.419  15.824  0.1239  0.6516 -0.5052
20238LIG    H1082244   2.903   3.450  15.743  1.9974  0.7738  0.4164
20238LIG    H1182245   3.025   3.464  15.871  0.8673 -0.3163 -1.5159
20238LIG    H1282246   2.944   2.970  15.494 -0.5006 -2.3064  1.0439
20238LIG    H1382247   2.888   2.966  15.658  0.1234 -0.2936  0.7853
20238LIG    H1482248   2.677   3.285  15.301 -1.7596  0.4811 -0.6533
20238LIG    H1582249   2.602   3.237  15.458 -1.2353 -0.7416  0.0161
20238LIG    H1682250   2.567   3.045  15.324 -0.1894 -1.5448  0.7040
20238LIG    H1782251   2.730   3.021  15.281 -1.7031  0.3897 -1.8170
20238LIG    H1882252   3.017   3.274  15.359  1.4792 -1.1886 -3.8342
20238LIG    H1982253   2.886   3.250  15.243 -0.4023 -2.1648 -0.5680
20238LIG    H2082254   2.957   3.110  15.324  1.2679  0.1532  0.9441
20238LIG    H2182255   2.957   3.729  15.941  1.0981  0.8966 -1.2840
20238LIG    H2282256   2.996   3.482  16.292 -1.1024  0.0918  0.8886
20238LIG    H2382257   2.652   3.738  16.112  0.7525 -0.1574 -0.8653
20238LIG    H2482258   2.804   3.362  16.281  1.7132 -0.4045 -3.5207
20238LIG    H2582259   3.213   3.588  16.353 -1.1566 -3.3233  0.0598
20238LIG    H2682260   2.451   3.709  16.271 -0.0752 -0.9801 -0.5064
20238LIG    H2782261   2.659   3.391  16.460 -1.1575  0.1796 -0.3962
20238LIG    H2882262   3.292   3.766  16.213 -0.4290  1.9084 -0.9752
20238LIG    H2982263   2.473   3.539  16.460  0.9505 -0.4378  1.0679
   6.82097   6.82097  17.27148
